INSANE! Membrane UpperLeaflet>loPI=1 LowerLeaflet>loPI=1
49675
    1loPI    C1    1   3.440   3.528  10.580  0.0918 -0.0146 -0.1117
    1loPI    C2    2   3.787   3.707  10.493  0.2026 -0.0910  0.1606
    1loPI    C3    3   3.737   3.531  10.848 -0.0709 -0.1940  0.0736
    1loPI   PO4    4   3.290   3.693  10.487  0.0508 -0.0730  0.1695
    1loPI   GL1    5   3.377   3.888  10.114 -0.1355 -0.0134 -0.2952
    1loPI   GL2    6   3.705   3.865  10.022 -0.0268  0.2217  0.0983
    1loPI   C1A    7   3.298   3.855   9.716 -0.1355  0.3641 -0.1127
    1loPI   C2A    8   2.941   3.832   9.462  0.0281 -0.2276 -0.0438
    1loPI   C3A    9   2.901   3.903   8.963  0.1596 -0.0780 -0.1297
    1loPI   C4A   10   2.840   3.627   8.587 -0.0669 -0.2129 -0.0741
    1loPI   C5A   11   3.038   3.766   8.278 -0.1381  0.1593 -0.0830
    1loPI   C6A   12   3.456   3.609   8.078 -0.1334  0.2617  0.1945
    1loPI   C1B   13   4.006   3.974   9.778  0.0612  0.0404  0.1406
    1loPI   C2B   14   4.199   4.185   9.482  0.2291 -0.2291  0.2673
    1loPI   C3B   15   4.257   4.202   8.979  0.1962 -0.0098 -0.1144
    1loPI   C4B   16   4.262   4.219   8.508 -0.1864 -0.1461  0.0652
    2loPI    C1   17  13.740   8.503  11.024  0.3444 -0.1855  0.0572
    2loPI    C2   18  14.125   8.455  11.119  0.3263 -0.0885  0.1829
    2loPI    C3   19  13.864   8.574  11.398  0.2798  0.2485  0.0018
    2loPI   PO4   20  13.606   8.327  10.912  0.1684 -0.0711 -0.2205
    2loPI   GL1   21  13.859   7.991  10.792 -0.1465  0.1882 -0.0390
    2loPI   GL2   22  13.655   7.921  10.621  0.2649 -0.0808 -0.1497
    2loPI   C1A   23  14.100   7.860  10.434  0.0784  0.1493  0.3244
    2loPI   C2A   24  14.249   7.897   9.966 -0.0500  0.2494  0.0486
    2loPI   C3A   25  14.264   7.926   9.571  0.1380  0.0354  0.0017
    2loPI   C4A   26  14.177   7.888   9.173  0.0758 -0.0672  0.0354
    2loPI   C5A   27  14.235   7.807   8.737 -0.0053  0.0421  0.0368
    2loPI   C6A   28  14.656   7.720   8.518 -0.3081  0.3049 -0.0805
    2loPI   C1B   29  13.621   8.092  10.221 -0.1999 -0.0203  0.0371
    2loPI   C2B   30  13.765   8.077   9.786 -0.1176  0.0211  0.1065
    2loPI   C3B   31  13.701   8.038   9.319  0.3146 -0.0682 -0.0029
    2loPI   C4B   32  13.755   8.038   8.931 -0.1407 -0.2847  0.0905
    3loPI    C1   33   2.788   1.372  11.081  0.3579 -0.0970 -0.0873
    3loPI    C2   34   2.692   1.440  10.699  0.0359  0.0894  0.0230
    3loPI    C3   35   2.765   1.747  10.945 -0.1626 -0.0117  0.2108
    3loPI   PO4   36   2.912   1.115  11.019  0.1057  0.1558 -0.0772
    3loPI   GL1   37   2.952   0.944  10.633  0.0764  0.0425 -0.0723
    3loPI   GL2   38   2.916   0.629  10.503 -0.0795  0.1275  0.1181
    3loPI   C1A   39   2.880   1.265  10.267  0.0997 -0.0372  0.1844
    3loPI   C2A   40   2.735   1.342   9.794 -0.0161  0.3741 -0.2526
    3loPI   C3A   41   2.723   1.337   9.353  0.0920 -0.0448 -0.1808
    3loPI   C4A   42   2.728   1.337   8.927 -0.0712  0.2151  0.1525
    3loPI   C5A   43   2.578   1.644   8.671 -0.2701 -0.1867 -0.1070
    3loPI   C6A   44   2.555   1.841   8.248  0.2445 -0.2095 -0.0595
    3loPI   C1B   45   3.149   0.802  10.153  0.2469  0.1773  0.1159
    3loPI   C2B   46   3.150   1.069   9.946 -0.2329  0.0345  0.1111
    3loPI   C3B   47   3.144   1.110   9.492  0.0924 -0.2425  0.2329
    3loPI   C4B   48   3.110   1.065   9.018  0.4897 -0.1010 -0.1475
    4loPI    C1   49  15.796  17.604  10.908  0.1195  0.1807  0.0432
    4loPI    C2   50  15.475  17.514  11.129  0.3118  0.0764  0.2853
    4loPI    C3   51  15.674  17.855  11.195  0.0471  0.3159 -0.1038
    4loPI   PO4   52  15.851  17.398  10.770 -0.1240 -0.0747 -0.3485
    4loPI   GL1   53  16.007  17.215  10.347  0.1242  0.0780 -0.1260
    4loPI   GL2   54  15.963  17.461  10.063  0.0539 -0.2487  0.1185
    4loPI   C1A   55  16.210  17.019  10.092  0.0570  0.1969 -0.1376
    4loPI   C2A   56  16.392  17.046   9.691  0.1253  0.1867 -0.1569
    4loPI   C3A   57  16.393  17.063   9.274  0.0330  0.1741 -0.0622
    4loPI   C4A   58  16.420  17.129   8.855  0.0534  0.0496  0.1076
    4loPI   C5A   59  16.534  16.938   8.415 -0.1408 -0.0705 -0.2949
    4loPI   C6A   60  16.981  16.970   8.296 -0.3261 -0.0588 -0.2299
    4loPI   C1B   61  15.884  17.126   9.722  0.0512  0.1953  0.1407
    4loPI   C2B   62  15.898  17.070   9.320  0.3638  0.3184 -0.0732
    4loPI   C3B   63  15.891  17.179   8.936  0.0939  0.2111 -0.1102
    4loPI   C4B   64  16.092  17.375   8.491 -0.1574  0.1859  0.2408
    5loPI    C1   65   2.838  14.613  10.975 -0.0834  0.2148  0.0919
    5loPI    C2   66   2.661  14.262  11.048  0.0511  0.1203 -0.0288
    5loPI    C3   67   2.517  14.597  11.213 -0.0923  0.0124  0.0681
    5loPI   PO4   68   2.870  14.594  10.731 -0.1449 -0.1710  0.2350
    5loPI   GL1   69   2.827  14.536  10.339 -0.3322  0.0630 -0.1114
    5loPI   GL2   70   3.047  14.707  10.248  0.0104 -0.2406  0.0670
    5loPI   C1A   71   2.541  14.398  10.224 -0.0416  0.0616 -0.2581
    5loPI   C2A   72   2.569  14.319   9.767  0.1121  0.0753 -0.0191
    5loPI   C3A   73   2.559  14.341   9.283  0.0557 -0.0620  0.1603
    5loPI   C4A   74   2.605  14.354   8.864 -0.2155  0.1197 -0.2905
    5loPI   C5A   75   2.566  14.309   8.481 -0.2824  0.0109  0.0142
    5loPI   C6A   76   2.539  13.975   8.230 -0.1187  0.2121 -0.3117
    5loPI   C1B   77   3.085  14.620   9.766  0.3478 -0.1677  0.0624
    5loPI   C2B   78   3.040  14.543   9.325  0.3302 -0.0151 -0.4015
    5loPI   C3B   79   3.055  14.491   8.909 -0.0731  0.0569 -0.0727
    5loPI   C4B   80   3.075  14.453   8.464  0.0520  0.0885 -0.0077
    6loPI    C1   81  16.693   9.274  11.322 -0.0186 -0.0485 -0.0329
    6loPI    C2   82  16.314   9.257  11.448 -0.0836  0.1231 -0.2014
    6loPI    C3   83  16.613   9.196  11.706 -0.2223  0.1345 -0.0365
    6loPI   PO4   84  16.710   9.447  11.173 -0.0588  0.2294  0.0474
    6loPI   GL1   85  16.610   9.545  10.818 -0.1672  0.3552 -0.3399
    6loPI   GL2   86  16.348   9.324  10.821  0.0262 -0.0114 -0.3192
    6loPI   C1A   87  16.764   9.680  10.483 -0.0541  0.1363 -0.0649
    6loPI   C2A   88  16.773   9.740  10.076  0.1002 -0.3848 -0.0100
    6loPI   C3A   89  16.637   9.741   9.721  0.0667 -0.0672 -0.2459
    6loPI   C4A   90  16.678   9.671   9.293 -0.2232 -0.0337 -0.0463
    6loPI   C5A   91  16.939   9.509   8.970 -0.4046 -0.1957 -0.2321
    6loPI   C6A   92  16.841   9.414   8.681  0.0869  0.2255 -0.0039
    6loPI   C1B   93  16.406   9.324  10.359  0.2359 -0.1322  0.1556
    6loPI   C2B   94  16.359   9.379   9.917  0.0487  0.1194  0.2067
    6loPI   C3B   95  16.301   9.373   9.490  0.0048 -0.0045  0.1927
    6loPI   C4B   96  15.926   9.178   9.387 -0.0018 -0.3665  0.2630
    7loPI    C1   97   7.166  -0.017  10.829  0.0375  0.1568 -0.0107
    7loPI    C2   98   7.114   0.201  10.498 -0.1320 -0.0201 -0.1024
    7loPI    C3   99   6.951   0.320  10.844 -0.1404  0.0498 -0.1304
    7loPI   PO4  100   7.109  -0.292  10.750 -0.1354 -0.0303 -0.0949
    7loPI   GL1  101   7.093  -0.373  10.349  0.1197 -0.0408 -0.0298
    7loPI   GL2  102   7.100  -0.679  10.187  0.1688 -0.0044  0.0235
    7loPI   C1A  103   7.200  -0.117  10.041 -0.0767 -0.0452 -0.1385
    7loPI   C2A  104   7.021  -0.102   9.569  0.2455  0.0281  0.2608
    7loPI   C3A  105   6.967  -0.141   9.166  0.0683 -0.1731 -0.3025
    7loPI   C4A  106   7.057  -0.156   8.748  0.1224  0.0978  0.0492
    7loPI   C5A  107   7.078   0.041   8.355  0.1048  0.0038 -0.1964
    7loPI   C6A  108   7.270   0.095   7.880 -0.1875 -0.4141 -0.0945
    7loPI   C1B  109   6.913  -0.604   9.731 -0.1779 -0.0674  0.0757
    7loPI   C2B  110   6.899  -0.601   9.390 -0.0154 -0.0798 -0.1584
    7loPI   C3B  111   6.947  -0.593   8.975 -0.1256  0.1549  0.0632
    7loPI   C4B  112   6.979  -0.576   8.475  0.0148 -0.0373 -0.0990
    8loPI    C1  113  16.789   4.843  10.933  0.1670 -0.2631  0.1089
    8loPI    C2  114  16.532   4.599  11.119  0.1965 -0.2057  0.2255
    8loPI    C3  115  16.533   4.991  11.202  0.1032 -0.1538 -0.0103
    8loPI   PO4  116  16.754   4.735  10.660  0.0411  0.2068  0.2251
    8loPI   GL1  117  16.704   4.562  10.226  0.1270  0.2895  0.2096
    8loPI   GL2  118  17.016   4.397  10.339 -0.1682 -0.2250  0.0066
    8loPI   C1A  119  16.643   4.510   9.746  0.1681 -0.1416 -0.1888
    8loPI   C2A  120  16.580   4.545   9.237 -0.2205 -0.0770  0.1272
    8loPI   C3A  121  16.608   4.585   8.826  0.2769  0.0386 -0.3006
    8loPI   C4A  122  16.615   4.544   8.408 -0.2552 -0.0986 -0.0252
    8loPI   C5A  123  16.470   4.485   7.951  0.0750  0.1326 -0.1627
    8loPI   C6A  124  16.410   4.351   7.550  0.4235  0.0313 -0.0953
    8loPI   C1B  125  17.122   4.324   9.964  0.2130  0.0850  0.1197
    8loPI   C2B  126  17.147   4.366   9.579 -0.0311 -0.4413 -0.1633
    8loPI   C3B  127  17.090   4.353   9.185  0.0535  0.1275 -0.0358
    8loPI   C4B  128  17.078   4.416   8.685  0.4164  0.2201 -0.1937
    9loPI    C1  129  12.764   5.196  11.265  0.1949 -0.2438 -0.0251
    9loPI    C2  130  12.970   5.231  11.606 -0.1128  0.0485  0.1356
    9loPI    C3  131  12.874   5.558  11.395 -0.2201 -0.1029 -0.0530
    9loPI   PO4  132  13.000   5.113  11.073 -0.0904  0.0744  0.1109
    9loPI   GL1  133  13.084   5.200  10.583 -0.2082 -0.0958 -0.0189
    9loPI   GL2  134  12.979   4.922  10.488 -0.2369  0.1380 -0.0206
    9loPI   C1A  135  13.246   5.392  10.314 -0.2480  0.0970  0.1658
    9loPI   C2A  136  13.264   5.389   9.967  0.0427 -0.1998  0.0273
    9loPI   C3A  137  13.440   5.205   9.623  0.0437  0.0384 -0.1982
    9loPI   C4A  138  13.754   5.165   9.383  0.1308 -0.1042  0.0490
    9loPI   C5A  139  13.778   5.175   8.928  0.0480 -0.0709 -0.1574
    9loPI   C6A  140  13.586   5.315   8.550 -0.0962  0.3484 -0.0409
    9loPI   C1B  141  12.985   4.635  10.109 -0.1081 -0.1595 -0.2498
    9loPI   C2B  142  13.168   4.664   9.661 -0.3602  0.0161 -0.1237
    9loPI   C3B  143  13.342   4.773   9.361 -0.1089 -0.0886  0.0862
    9loPI   C4B  144  13.450   4.838   8.849  0.0899  0.0568 -0.0579
   10loPI    C1  145   4.748  14.524  10.707 -0.0636 -0.0457 -0.1774
   10loPI    C2  146   5.031  14.761  10.863 -0.1328  0.0061 -0.1303
   10loPI    C3  147   4.670  14.740  11.034 -0.1436 -0.0939 -0.1645
   10loPI   PO4  148   4.715  14.623  10.399 -0.3117  0.0210  0.2733
   10loPI   GL1  149   4.341  14.503  10.154 -0.3206 -0.2872  0.2946
   10loPI   GL2  150   4.189  14.813  10.134  0.2755 -0.1089  0.1854
   10loPI   C1A  151   4.392  14.618   9.708 -0.0692 -0.0936 -0.0740
   10loPI   C2A  152   4.408  14.631   9.279  0.0442  0.1103 -0.3261
   10loPI   C3A  153   4.399  14.623   8.873  0.0520  0.2813 -0.1059
   10loPI   C4A  154   4.538  14.603   8.547 -0.0813  0.1392 -0.4389
   10loPI   C5A  155   4.762  14.601   8.128  0.1448  0.0918  0.0582
   10loPI   C6A  156   5.009  14.374   7.798 -0.3241 -0.0373 -0.0315
   10loPI   C1B  157   4.030  14.978   9.790 -0.1780 -0.2972 -0.0839
   10loPI   C2B  158   3.981  14.967   9.340  0.4120  0.0862 -0.1498
   10loPI   C3B  159   3.999  14.971   8.872  0.1508 -0.2415 -0.0850
   10loPI   C4B  160   3.986  14.939   8.469 -0.0029  0.4416  0.2021
   11loPI    C1  161  10.389  15.945  10.584  0.0437  0.0722 -0.0190
   11loPI    C2  162  10.576  15.989  10.935  0.0736 -0.0354 -0.0211
   11loPI    C3  163  10.215  16.152  10.879  0.0855  0.0144  0.0467
   11loPI   PO4  164  10.657  15.775  10.476 -0.0429  0.1108 -0.2016
   11loPI   GL1  165  10.994  15.589  10.345 -0.0297 -0.1670  0.1279
   11loPI   GL2  166  10.891  15.297  10.407 -0.0033 -0.0552 -0.2139
   11loPI   C1A  167  11.042  15.488   9.787  0.4498  0.1840 -0.0238
   11loPI   C2A  168  11.051  15.410   9.401 -0.0548 -0.1505  0.1500
   11loPI   C3A  169  11.020  15.342   8.933 -0.0140 -0.0720  0.0643
   11loPI   C4A  170  11.196  15.410   8.500  0.0494 -0.2826  0.2772
   11loPI   C5A  171  11.446  15.438   8.214  0.2517  0.2583  0.0138
   11loPI   C6A  172  11.764  15.427   7.985  0.1936  0.1006 -0.1090
   11loPI   C1B  173  10.652  15.227  10.091  0.2287  0.0248  0.1162
   11loPI   C2B  174  10.603  15.177   9.698  0.2242 -0.4314  0.2417
   11loPI   C3B  175  10.548  15.248   9.304  0.0048  0.1952 -0.3011
   11loPI   C4B  176  10.560  15.241   8.848  0.1122  0.0191  0.1180
   12loPI    C1  177  10.722   7.457  10.821 -0.0069 -0.0893  0.2723
   12loPI    C2  178  10.805   7.807  10.645  0.1654 -0.3240 -0.1262
   12loPI    C3  179  10.666   7.800  11.020  0.1918  0.1672 -0.1006
   12loPI   PO4  180  10.825   7.263  10.657 -0.1959 -0.2721  0.0805
   12loPI   GL1  181  10.683   7.050  10.317 -0.0995  0.0817 -0.4149
   12loPI   GL2  182  10.421   7.019  10.232  0.0894 -0.1663 -0.1821
   12loPI   C1A  183  10.826   6.995   9.922 -0.1823  0.2716  0.1170
   12loPI   C2A  184  10.861   6.894   9.423  0.4626  0.2161  0.0536
   12loPI   C3A  185  10.890   6.958   8.966  0.3004 -0.0846  0.0743
   12loPI   C4A  186  10.756   6.882   8.532  0.3158 -0.3703  0.0349
   12loPI   C5A  187  10.514   6.785   8.220 -0.1220  0.1442  0.3319
   12loPI   C6A  188  10.317   6.737   7.869  0.3629  0.2645  0.0076
   12loPI   C1B  189  10.304   6.985   9.765  0.0898  0.2786 -0.1759
   12loPI   C2B  190  10.325   6.998   9.274  0.1410 -0.0649 -0.0300
   12loPI   C3B  191  10.339   6.926   8.863  0.1766 -0.0891  0.1262
   12loPI   C4B  192  10.337   7.121   8.515  0.0980 -0.3701 -0.3400
   13loPI    C1  193  16.162   8.789  11.472 -0.3497  0.3076 -0.1266
   13loPI    C2  194  16.261   8.792  11.860 -0.1496 -0.1879 -0.1671
   13loPI    C3  195  15.891   8.688  11.749 -0.2713  0.1636 -0.1010
   13loPI   PO4  196  16.438   8.765  11.379  0.0244  0.0594 -0.0850
   13loPI   GL1  197  16.565   8.882  11.008 -0.4258 -0.2019  0.1553
   13loPI   GL2  198  16.818   9.020  10.936  0.3766 -0.1829  0.1935
   13loPI   C1A  199  16.412   8.866  10.523 -0.1496  0.1445 -0.2099
   13loPI   C2A  200  16.415   8.905  10.045 -0.0608 -0.2368 -0.4979
   13loPI   C3A  201  16.337   8.897   9.609  0.1524  0.3384  0.1568
   13loPI   C4A  202  16.322   8.941   9.176 -0.0854  0.0478  0.0442
   13loPI   C5A  203  16.303   9.312   8.945 -0.3177  0.2621  0.1408
   13loPI   C6A  204  16.434   9.604   8.867 -0.1288 -0.0384  0.0899
   13loPI   C1B  205  16.847   9.118  10.540 -0.0748  0.0425  0.0603
   13loPI   C2B  206  16.813   9.234  10.149  0.3245 -0.2705  0.0702
   13loPI   C3B  207  16.753   9.279   9.641 -0.2196  0.1149 -0.0221
   13loPI   C4B  208  16.734   9.186   9.267 -0.1878 -0.0769 -0.3670
   14loPI    C1  209   5.166  16.265  10.800  0.1754 -0.1361  0.0725
   14loPI    C2  210   4.922  16.470  11.041  0.1422 -0.0242 -0.0547
   14loPI    C3  211   5.276  16.341  11.177  0.1064  0.0024  0.0652
   14loPI   PO4  212   5.195  16.360  10.552 -0.2587  0.2959 -0.1594
   14loPI   GL1  213   5.105  16.598  10.198  0.2900 -0.0601 -0.2765
   14loPI   GL2  214   4.974  16.861  10.165 -0.1811  0.3244  0.1164
   14loPI   C1A  215   5.050  16.461   9.865 -0.0197  0.0860  0.1775
   14loPI   C2A  216   5.013  16.491   9.454  0.1064  0.2844  0.2328
   14loPI   C3A  217   5.013  16.297   9.003 -0.3966 -0.1446 -0.2026
   14loPI   C4A  218   4.999  16.317   8.656 -0.0165 -0.0042  0.0627
   14loPI   C5A  219   5.046  16.308   8.206 -0.3439  0.0693 -0.3582
   14loPI   C6A  220   5.117  16.794   8.074  0.2668 -0.0947  0.2499
   14loPI   C1B  221   5.083  17.005   9.788  0.2134  0.1839 -0.2965
   14loPI   C2B  222   5.050  16.937   9.370  0.1093  0.1427 -0.0136
   14loPI   C3B  223   5.088  16.794   9.000  0.1159  0.1828  0.2191
   14loPI   C4B  224   5.080  16.796   8.622  0.2955  0.0509  0.2617
   15loPI    C1  225  10.683  12.535  11.157 -0.0045 -0.0531  0.0884
   15loPI    C2  226  10.878  12.426  11.488 -0.1180 -0.0987  0.1409
   15loPI    C3  227  10.479  12.444  11.488 -0.1238 -0.1966 -0.0228
   15loPI   PO4  228  10.795  12.367  10.944  0.2504  0.0756  0.2615
   15loPI   GL1  229  10.777  12.152  10.477  0.0388  0.1687 -0.0152
   15loPI   GL2  230  10.866  12.361  10.359  0.2259  0.1662 -0.1126
   15loPI   C1A  231  10.929  11.968  10.132 -0.2484 -0.2092  0.1563
   15loPI   C2A  232  10.890  11.979   9.682  0.1236  0.1997  0.0561
   15loPI   C3A  233  10.770  11.976   9.278 -0.0706 -0.3334  0.3087
   15loPI   C4A  234  10.725  11.904   8.833  0.0471 -0.1802 -0.0157
   15loPI   C5A  235  10.612  11.984   8.456  0.0216 -0.1442 -0.0476
   15loPI   C6A  236  10.554  12.073   8.064 -0.1546  0.1606  0.0939
   15loPI   C1B  237  10.955  12.528   9.878 -0.1466  0.2063  0.0778
   15loPI   C2B  238  10.937  12.526   9.388 -0.0290  0.1252  0.0049
   15loPI   C3B  239  10.929  12.506   9.005  0.0475 -0.1397 -0.0975
   15loPI   C4B  240  10.886  12.370   8.637 -0.1449  0.0521 -0.2444
   16loPI    C1  241   9.407  13.812  11.132  0.2259 -0.0380 -0.1549
   16loPI    C2  242   9.447  14.204  11.061  0.2400 -0.0043  0.0354
   16loPI    C3  243   9.209  14.077  11.357  0.2802 -0.1372  0.0112
   16loPI   PO4  244   9.432  13.671  10.848  0.2381 -0.0241 -0.0700
   16loPI   GL1  245   9.708  13.543  10.543  0.3438 -0.0815 -0.2275
   16loPI   GL2  246   9.751  13.178  10.685  0.2735  0.0714 -0.1926
   16loPI   C1A  247   9.486  13.332  10.119 -0.1337  0.1296 -0.3118
   16loPI   C2A  248   9.406  13.397   9.681 -0.2091 -0.0732 -0.3837
   16loPI   C3A  249   9.272  13.411   9.310 -0.2648  0.0396  0.3054
   16loPI   C4A  250   9.280  13.528   8.925 -0.0838  0.1815  0.2385
   16loPI   C5A  251   9.300  13.582   8.544  0.1323 -0.0988  0.1344
   16loPI   C6A  252   9.249  13.623   8.172  0.0725  0.3116  0.1452
   16loPI   C1B  253   9.829  12.950  10.266  0.0690 -0.0024  0.1912
   16loPI   C2B  254   9.835  13.075   9.803 -0.2366  0.0602 -0.2239
   16loPI   C3B  255   9.761  13.075   9.369 -0.2380  0.0378 -0.1580
   16loPI   C4B  256   9.664  13.066   8.925  0.0274  0.1579  0.0409
   17loPI    C1  257  13.651  15.875  10.973 -0.0230 -0.3588  0.0396
   17loPI    C2  258  13.752  15.964  11.349 -0.0664 -0.2864  0.0342
   17loPI    C3  259  13.702  15.582  11.241 -0.1046 -0.3045  0.1146
   17loPI   PO4  260  13.541  15.997  10.757  0.0987  0.2056 -0.0354
   17loPI   GL1  261  13.714  15.876  10.445  0.0027 -0.0065 -0.0601
   17loPI   GL2  262  13.433  15.835  10.221  0.2441  0.0541 -0.1247
   17loPI   C1A  263  13.883  15.906  10.019  0.1550 -0.0985 -0.1633
   17loPI   C2A  264  13.833  15.894   9.581  0.1096  0.0543 -0.0750
   17loPI   C3A  265  13.958  15.862   9.135 -0.0936 -0.1020 -0.1108
   17loPI   C4A  266  13.865  15.905   8.747 -0.0940  0.1445 -0.0124
   17loPI   C5A  267  13.959  16.262   8.498 -0.1086  0.2171  0.1982
   17loPI   C6A  268  14.301  16.448   8.466  0.3604 -0.0232  0.2582
   17loPI   C1B  269  13.163  15.765   9.847  0.0781 -0.4567  0.0495
   17loPI   C2B  270  12.886  15.672   9.611  0.3304 -0.0419  0.6019
   17loPI   C3B  271  12.923  15.547   9.213  0.0813 -0.1627 -0.0120
   17loPI   C4B  272  12.978  15.441   8.783  0.1236 -0.2609 -0.0800
   18loPI    C1  273   7.688  13.681  10.819  0.1425  0.2494 -0.0622
   18loPI    C2  274   7.724  13.973  11.089 -0.2499 -0.0935  0.3796
   18loPI    C3  275   7.986  13.670  11.086  0.2575  0.3249 -0.1864
   18loPI   PO4  276   7.643  13.752  10.540  0.1412  0.1359  0.0881
   18loPI   GL1  277   7.629  13.918  10.052  0.0884  0.0372 -0.2292
   18loPI   GL2  278   7.885  14.078  10.193 -0.0463  0.1205  0.1126
   18loPI   C1A  279   7.614  13.972   9.486 -0.2044 -0.2522  0.0490
   18loPI   C2A  280   7.488  13.944   9.051 -0.1676 -0.2721  0.0346
   18loPI   C3A  281   7.489  13.973   8.644 -0.0122 -0.3333 -0.2573
   18loPI   C4A  282   7.323  13.778   8.218 -0.2271  0.0230  0.1187
   18loPI   C5A  283   7.551  13.351   8.016 -0.2519  0.2092 -0.0958
   18loPI   C6A  284   7.984  13.467   7.850  0.0507  0.0481  0.3772
   18loPI   C1B  285   8.042  13.969   9.813 -0.0083 -0.1948  0.0127
   18loPI   C2B  286   8.121  14.012   9.389  0.1592 -0.1610  0.0904
   18loPI   C3B  287   7.961  14.240   8.999  0.0778 -0.1261  0.0083
   18loPI   C4B  288   7.866  14.319   8.568 -0.1645  0.0174 -0.0566
   19loPI    C1  289   7.829  17.512  10.958 -0.1404  0.1509 -0.0742
   19loPI    C2  290   7.975  17.869  11.067 -0.0787  0.1453 -0.1380
   19loPI    C3  291   7.653  17.720  11.251 -0.1911  0.2990 -0.2085
   19loPI   PO4  292   7.816  17.477  10.755 -0.1217 -0.1413 -0.0728
   19loPI   GL1  293   7.591  17.379  10.382 -0.2035  0.1231  0.1402
   19loPI   GL2  294   7.595  17.762  10.236  0.0706 -0.2565  0.2309
   19loPI   C1A  295   7.342  17.303   9.986  0.1641  0.3193  0.0993
   19loPI   C2A  296   7.248  17.375   9.591 -0.0491  0.0536 -0.2561
   19loPI   C3A  297   7.325  17.377   9.157 -0.1269 -0.0279 -0.0504
   19loPI   C4A  298   7.369  17.484   8.745 -0.1144 -0.0829 -0.0356
   19loPI   C5A  299   7.361  17.461   8.274 -0.2945 -0.3171  0.1091
   19loPI   C6A  300   7.365  17.429   7.824 -0.1838 -0.2862  0.1802
   19loPI   C1B  301   7.420  17.863   9.828 -0.2758  0.0368  0.0146
   19loPI   C2B  302   7.397  17.842   9.370  0.0599  0.0558  0.2646
   19loPI   C3B  303   7.477  17.957   9.064 -0.2104 -0.0908  0.2213
   19loPI   C4B  304   7.542  17.881   8.549  0.0710 -0.2886  0.0021
   20loPI    C1  305  10.365   1.789  10.677 -0.1896 -0.2445 -0.0613
   20loPI    C2  306  10.594   1.468  10.742  0.1345 -0.0248 -0.0953
   20loPI    C3  307  10.365   1.614  11.036  0.2414 -0.0878  0.0201
   20loPI   PO4  308  10.210   1.821  10.378  0.2501 -0.0891 -0.2749
   20loPI   GL1  309   9.942   1.535  10.177  0.0137  0.0427 -0.0278
   20loPI   GL2  310   9.731   1.812  10.237 -0.2238 -0.1254  0.3011
   20loPI   C1A  311  10.167   1.399   9.826  0.1004  0.0845 -0.2968
   20loPI   C2A  312  10.331   0.935   9.563  0.0222  0.3706 -0.1863
   20loPI   C3A  313  10.294   0.736   9.231  0.0180  0.2333 -0.2059
   20loPI   C4A  314  10.319   0.580   8.822  0.1474 -0.0393  0.1037
   20loPI   C5A  315  10.548   0.520   8.561 -0.1201  0.0858 -0.1055
   20loPI   C6A  316  10.807   0.449   8.204 -0.2684  0.0429  0.1804
   20loPI   C1B  317   9.741   1.756   9.818 -0.1435 -0.3782 -0.0308
   20loPI   C2B  318   9.638   1.866   9.387  0.0719 -0.5963  0.0992
   20loPI   C3B  319   9.578   1.777   8.948 -0.0198  0.0449 -0.3060
   20loPI   C4B  320   9.869   1.812   8.499  0.1411  0.1139  0.0200
   21loPI    C1  321   4.067   2.972  11.131  0.0835 -0.0696  0.0326
   21loPI    C2  322   3.953   3.306  11.320  0.1803  0.0214 -0.0681
   21loPI    C3  323   4.289   3.118  11.430  0.0252 -0.1527  0.1170
   21loPI   PO4  324   3.959   3.085  10.883 -0.2586 -0.0167 -0.0073
   21loPI   GL1  325   3.845   3.201  10.473 -0.1041 -0.1353  0.0215
   21loPI   GL2  326   3.986   2.937  10.179 -0.0025  0.0076 -0.2408
   21loPI   C1A  327   3.696   3.356  10.076 -0.0962  0.0290 -0.1163
   21loPI   C2A  328   3.563   3.390   9.683 -0.0901 -0.0842  0.1390
   21loPI   C3A  329   3.547   3.371   9.255 -0.2097 -0.0117 -0.0334
   21loPI   C4A  330   3.591   3.332   8.837  0.0721  0.0301 -0.1054
   21loPI   C5A  331   3.452   3.239   8.476 -0.1794 -0.0380 -0.1967
   21loPI   C6A  332   3.090   3.254   8.191 -0.0746  0.0200 -0.1630
   21loPI   C1B  333   3.994   3.106   9.804 -0.2386  0.1347  0.1485
   21loPI   C2B  334   3.979   3.066   9.363  0.0944  0.1566  0.1588
   21loPI   C3B  335   4.012   3.395   9.127 -0.2754 -0.1551  0.1197
   21loPI   C4B  336   3.822   3.854   8.927  0.0387  0.0229  0.0968
   22loPI    C1  337   6.198   6.612  10.806 -0.1837 -0.0491 -0.0684
   22loPI    C2  338   5.998   6.947  10.891 -0.0282 -0.0187  0.1846
   22loPI    C3  339   6.045   6.666  11.171  0.1226 -0.1075  0.0712
   22loPI   PO4  340   6.412   6.659  10.717 -0.1736  0.0681  0.2155
   22loPI   GL1  341   6.587   6.920  10.401  0.0477  0.1235 -0.2263
   22loPI   GL2  342   6.841   7.114  10.339 -0.3204  0.2046  0.1917
   22loPI   C1A  343   6.436   6.737  10.015  0.0291  0.1315  0.0114
   22loPI   C2A  344   6.589   6.681   9.658  0.3161 -0.0813 -0.1417
   22loPI   C3A  345   6.647   6.704   9.183  0.0845 -0.1379 -0.1526
   22loPI   C4A  346   6.599   6.819   8.840  0.0124 -0.0411  0.1500
   22loPI   C5A  347   6.547   6.837   8.443 -0.3093 -0.0059  0.0253
   22loPI   C6A  348   6.672   6.882   7.985  0.0026 -0.1924 -0.1044
   22loPI   C1B  349   6.752   7.081   9.950 -0.0417 -0.0320  0.1288
   22loPI   C2B  350   6.841   7.106   9.499  0.1086  0.0523 -0.1570
   22loPI   C3B  351   6.855   7.156   9.099 -0.0927  0.1052 -0.0480
   22loPI   C4B  352   6.844   7.264   8.627 -0.1870  0.1333 -0.3351
   23loPI    C1  353  16.727  13.504  10.549  0.1190  0.1312  0.1354
   23loPI    C2  354  16.815  13.730  10.867  0.0976  0.2175  0.0803
   23loPI    C3  355  17.074  13.701  10.564  0.0885  0.1905  0.0750
   23loPI   PO4  356  16.496  13.611  10.442  0.2274  0.1595 -0.1967
   23loPI   GL1  357  16.249  13.968  10.173 -0.0206  0.2076  0.3414
   23loPI   GL2  358  16.244  13.670  10.034  0.0561 -0.2100  0.0408
   23loPI   C1A  359  16.277  14.226   9.924  0.0998 -0.2242 -0.2869
   23loPI   C2A  360  16.279  14.328   9.563  0.0686 -0.1355 -0.0469
   23loPI   C3A  361  16.346  14.318   9.248 -0.0385 -0.1309  0.1003
   23loPI   C4A  362  16.296  14.232   8.868  0.0986  0.0234 -0.0197
   23loPI   C5A  363  16.179  14.352   8.532  0.0556  0.0040 -0.1705
   23loPI   C6A  364  16.161  14.322   8.085  0.0082  0.1800 -0.0624
   23loPI   C1B  365  16.179  13.766   9.678 -0.2392 -0.0065 -0.0776
   23loPI   C2B  366  16.170  13.803   9.231 -0.1653  0.0373  0.2354
   23loPI   C3B  367  16.153  13.749   8.773  0.1306 -0.0059  0.0575
   23loPI   C4B  368  16.333  13.519   8.449  0.1051  0.0279  0.1685
   24loPI    C1  369   0.715  11.200  11.322  0.1119 -0.0431 -0.0803
   24loPI    C2  370   0.399  11.006  11.472 -0.2607  0.1791 -0.5476
   24loPI    C3  371   0.496  11.368  11.612  0.0647 -0.0712 -0.0995
   24loPI   PO4  372   0.673  11.169  11.025 -0.1067 -0.0546 -0.0723
   24loPI   GL1  373   0.384  11.109  10.679  0.0184  0.0508  0.0064
   24loPI   GL2  374   0.566  10.898  10.579 -0.2657 -0.0788  0.1921
   24loPI   C1A  375   0.560  11.297  10.321 -0.0778  0.0388  0.0161
   24loPI   C2A  376   0.524  11.317   9.973  0.2124 -0.1663  0.2261
   24loPI   C3A  377   0.310  11.572   9.654  0.0953 -0.2342  0.0480
   24loPI   C4A  378   0.225  11.688   9.351 -0.1531  0.5213  0.1819
   24loPI   C5A  379   0.221  11.743   8.923  0.0825 -0.1188 -0.0261
   24loPI   C6A  380   0.250  11.862   8.503  0.0346  0.0469  0.1422
   24loPI   C1B  381   0.479  10.777  10.152  0.0971 -0.0387 -0.1945
   24loPI   C2B  382   0.407  10.782   9.628 -0.1948  0.2871 -0.0878
   24loPI   C3B  383   0.497  10.938   9.277 -0.0178 -0.0732 -0.2451
   24loPI   C4B  384   0.460  11.005   8.882 -0.1610  0.1391  0.2239
   25loPI    C1  385   3.169   1.486  10.780  0.2129 -0.0579  0.0089
   25loPI    C2  386   3.418   1.291  10.535 -0.0654 -0.2942 -0.0905
   25loPI    C3  387   3.431   1.223  10.929  0.1831 -0.1322 -0.0692
   25loPI   PO4  388   3.143   1.743  10.599 -0.0007  0.1486 -0.1295
   25loPI   GL1  389   3.248   1.635  10.215  0.1379 -0.0159  0.2245
   25loPI   GL2  390   3.512   1.765  10.320  0.0432  0.0613 -0.0303
   25loPI   C1A  391   3.220   1.539   9.740  0.0496 -0.3390  0.2525
   25loPI   C2A  392   3.208   1.626   9.396 -0.0651  0.1597  0.1578
   25loPI   C3A  393   3.186   1.611   8.985 -0.1360  0.0892 -0.0509
   25loPI   C4A  394   3.060   1.600   8.520  0.2185  0.0898 -0.1986
   25loPI   C5A  395   2.991   1.549   8.040  0.3117  0.2030 -0.1052
   25loPI   C6A  396   2.874   1.059   7.975 -0.1495  0.1853 -0.1959
   25loPI   C1B  397   3.640   1.843   9.938 -0.0449  0.0636  0.2319
   25loPI   C2B  398   3.652   1.885   9.496  0.1829  0.0401  0.0022
   25loPI   C3B  399   3.632   1.797   9.030 -0.1257  0.2651 -0.1304
   25loPI   C4B  400   3.482   1.903   8.618 -0.2660 -0.2362  0.0726
   26loPI    C1  401  13.823   2.771  10.938  0.0430  0.1096  0.0599
   26loPI    C2  402  13.689   3.111  10.775  0.2491  0.2450  0.1689
   26loPI    C3  403  13.673   3.060  11.171  0.1111  0.0782  0.1429
   26loPI   PO4  404  13.799   2.652  10.700 -0.0866  0.1637  0.2554
   26loPI   GL1  405  14.016   2.743  10.320  0.0034  0.2143  0.2088
   26loPI   GL2  406  13.675   2.951  10.217  0.1567 -0.3776 -0.0670
   26loPI   C1A  407  14.268   2.581   9.957  0.0915 -0.2108  0.1706
   26loPI   C2A  408  14.144   2.567   9.574 -0.0389  0.3698  0.0576
   26loPI   C3A  409  14.019   2.929   9.324  0.1271  0.1659 -0.2688
   26loPI   C4A  410  13.961   3.179   8.996  0.0979 -0.0896  0.1078
   26loPI   C5A  411  13.895   3.150   8.559  0.1123  0.0029  0.1018
   26loPI   C6A  412  13.438   3.234   8.279 -0.0548 -0.1873 -0.2707
   26loPI   C1B  413  13.756   2.648   9.876 -0.0347  0.1581  0.2019
   26loPI   C2B  414  13.618   2.618   9.452  0.3764 -0.3037 -0.0026
   26loPI   C3B  415  13.702   2.613   9.041 -0.0533 -0.0892 -0.1230
   26loPI   C4B  416  13.517   2.730   8.587 -0.1292  0.1200  0.0433
   27loPI    C1  417  10.506  13.351  10.831  0.1879  0.1401  0.0188
   27loPI    C2  418  10.340  13.199  11.162  0.1996  0.2178  0.0609
   27loPI    C3  419  10.623  12.993  10.968  0.0906  0.1074  0.0173
   27loPI   PO4  420  10.285  13.459  10.730 -0.0129  0.0046 -0.1608
   27loPI   GL1  421  10.121  13.313  10.369 -0.1044  0.0791  0.1862
   27loPI   GL2  422  10.393  13.099  10.394 -0.1631  0.1579 -0.2435
   27loPI   C1A  423   9.965  13.495  10.042 -0.1033  0.3052 -0.0453
   27loPI   C2A  424   9.893  13.588   9.630  0.2117 -0.0460 -0.1947
   27loPI   C3A  425   9.778  13.604   9.190  0.2531  0.2424  0.4046
   27loPI   C4A  426   9.833  13.529   8.781  0.0231 -0.3722 -0.2716
   27loPI   C5A  427   9.637  13.279   8.360 -0.0411  0.1551 -0.0219
   27loPI   C6A  428   9.240  13.086   8.217  0.0754 -0.3406  0.0905
   27loPI   C1B  429  10.274  13.102   9.954  0.1413 -0.0147  0.1355
   27loPI   C2B  430  10.297  13.226   9.578  0.1468  0.1219  0.2541
   27loPI   C3B  431  10.205  13.194   9.126 -0.1034 -0.2951  0.0579
   27loPI   C4B  432  10.167  13.210   8.722 -0.1589 -0.1305 -0.2054
   28loPI    C1  433  14.765  15.347  11.020 -0.1119 -0.1126 -0.0090
   28loPI    C2  434  14.455  15.419  10.777 -0.2086 -0.1523  0.1016
   28loPI    C3  435  14.533  15.046  10.897 -0.0046 -0.1686 -0.0754
   28loPI   PO4  436  14.968  15.437  10.882  0.1146 -0.1659  0.0495
   28loPI   GL1  437  14.904  15.203  10.553  0.0231 -0.0589  0.2315
   28loPI   GL2  438  15.104  14.971  10.361  0.1749  0.0609 -0.0391
   28loPI   C1A  439  14.718  15.322  10.114  0.0356 -0.0890 -0.1577
   28loPI   C2A  440  14.735  15.222   9.714  0.2104  0.2220 -0.1409
   28loPI   C3A  441  14.659  15.159   9.239 -0.0084 -0.1436  0.0298
   28loPI   C4A  442  14.641  15.139   8.811  0.0789  0.2287 -0.1384
   28loPI   C5A  443  14.626  15.291   8.412 -0.0661 -0.3674  0.2315
   28loPI   C6A  444  14.567  15.339   7.899  0.0290  0.1145  0.3861
   28loPI   C1B  445  15.126  14.956   9.984 -0.1474 -0.1688 -0.0517
   28loPI   C2B  446  15.030  14.887   9.505  0.1187  0.1885 -0.0484
   28loPI   C3B  447  15.078  14.885   9.109  0.0633  0.1063  0.1116
   28loPI   C4B  448  15.162  14.812   8.663 -0.0446 -0.2572 -0.0351
   29loPI    C1  449  12.305   7.798  11.037 -0.0008 -0.0389 -0.0094
   29loPI    C2  450  12.089   7.478  11.142 -0.0062 -0.0523 -0.0611
   29loPI    C3  451  12.021   7.831  11.317  0.0054 -0.0812  0.0020
   29loPI   PO4  452  12.238   7.867  10.764  0.0240 -0.1424  0.1760
   29loPI   GL1  453  11.924   7.897  10.416 -0.0461 -0.0933  0.0610
   29loPI   GL2  454  11.615   7.775  10.328  0.0345  0.1149  0.0038
   29loPI   C1A  455  12.030   7.686  10.066  0.3443 -0.1773 -0.1772
   29loPI   C2A  456  12.017   7.763   9.653  0.1059  0.2857  0.0850
   29loPI   C3A  457  11.961   7.789   9.213 -0.2158  0.2036 -0.0078
   29loPI   C4A  458  12.073   7.995   8.846 -0.0956  0.0062 -0.0221
   29loPI   C5A  459  12.086   8.133   8.396  0.1089  0.0976 -0.0678
   29loPI   C6A  460  11.921   8.268   7.966  0.2677 -0.1953  0.1732
   29loPI   C1B  461  11.715   8.122   9.982  0.0836 -0.0459 -0.1995
   29loPI   C2B  462  11.831   8.226   9.595 -0.0090  0.1443  0.2921
   29loPI   C3B  463  11.926   8.404   9.211  0.1806  0.3598 -0.1886
   29loPI   C4B  464  12.066   8.503   8.860 -0.1863 -0.2211 -0.1206
   30loPI    C1  465  14.411   6.186  11.004  0.0787 -0.0592  0.1442
   30loPI    C2  466  14.136   6.301  10.737  0.1601 -0.1381  0.0246
   30loPI    C3  467  14.102   6.412  11.120  0.0843  0.0425 -0.0328
   30loPI   PO4  468  14.657   6.218  10.822  0.0547 -0.0779  0.0140
   30loPI   GL1  469  15.049   6.322  10.489 -0.0707 -0.3173 -0.1065
   30loPI   GL2  470  14.911   6.532  10.554 -0.1483 -0.1119 -0.3216
   30loPI   C1A  471  15.073   6.107  10.095  0.1577 -0.0244  0.1703
   30loPI   C2A  472  14.865   6.159   9.723  0.2508 -0.0860 -0.2991
   30loPI   C3A  473  14.931   6.082   9.314  0.3885  0.2218  0.2479
   30loPI   C4A  474  14.870   6.069   8.838 -0.2710  0.0357  0.0541
   30loPI   C5A  475  14.830   6.216   8.447  0.1004  0.1074  0.0553
   30loPI   C6A  476  14.551   6.425   8.110  0.1418 -0.4053 -0.1589
   30loPI   C1B  477  14.924   6.571  10.068  0.0169 -0.0274 -0.1009
   30loPI   C2B  478  14.817   6.643   9.640 -0.1236 -0.0376 -0.0242
   30loPI   C3B  479  14.826   6.590   9.170  0.1063  0.1129 -0.0318
   30loPI   C4B  480  14.802   6.625   8.678 -0.3706 -0.0527  0.2453
   31loPI    C1  481  15.104  18.119  10.685  0.1241 -0.0647 -0.0519
   31loPI    C2  482  15.392  17.853  10.766  0.1720  0.0524  0.1679
   31loPI    C3  483  15.480  18.187  10.564  0.1124 -0.0944 -0.1051
   31loPI   PO4  484  14.891  18.013  10.467  0.0639 -0.2339  0.1989
   31loPI   GL1  485  14.934  18.000  10.132  0.0121  0.0317  0.2864
   31loPI   GL2  486  15.176  17.755  10.076 -0.1320 -0.0841 -0.0254
   31loPI   C1A  487  15.080  18.213   9.762 -0.1756  0.4769 -0.1545
   31loPI   C2A  488  15.184  18.300   9.363 -0.3081 -0.2855  0.1027
   31loPI   C3A  489  15.158  18.250   8.989  0.0942 -0.0755 -0.2982
   31loPI   C4A  490  14.915  18.182   8.675  0.0947  0.2195  0.5054
   31loPI   C5A  491  14.737  18.435   8.300  0.2349  0.1746  0.0228
   31loPI   C6A  492  14.671  18.671   7.858 -0.2382 -0.0997 -0.2019
   31loPI   C1B  493  15.051  17.639   9.634  0.0697  0.0563 -0.0470
   31loPI   C2B  494  15.106  17.820   9.265 -0.2468 -0.2169  0.0317
   31loPI   C3B  495  15.001  17.734   8.901 -0.0038 -0.3436  0.0438
   31loPI   C4B  496  14.828  17.568   8.590 -0.0292  0.0090 -0.1583
   32loPI    C1  497   4.782   6.543  10.997 -0.1687  0.0177  0.0854
   32loPI    C2  498   5.075   6.806  11.069 -0.2974  0.1576  0.1046
   32loPI    C3  499   4.810   6.719  11.356 -0.1387 -0.1453  0.1638
   32loPI   PO4  500   4.878   6.374  10.804  0.1973 -0.3070  0.2157
   32loPI   GL1  501   4.880   6.276  10.402  0.1390  0.1915  0.0326
   32loPI   GL2  502   4.511   6.484  10.433  0.0646 -0.0432 -0.2110
   32loPI   C1A  503   4.875   6.025  10.072 -0.1324  0.1655  0.2342
   32loPI   C2A  504   4.934   5.936   9.583  0.0718  0.0776  0.0081
   32loPI   C3A  505   4.877   5.890   9.156 -0.2896  0.1569 -0.1244
   32loPI   C4A  506   4.950   6.001   8.769 -0.1933  0.1722  0.3653
   32loPI   C5A  507   4.995   5.819   8.427 -0.0245 -0.4944  0.2278
   32loPI   C6A  508   4.679   5.743   8.108  0.3553  0.1560  0.1139
   32loPI   C1B  509   4.627   6.517   9.947  0.1055  0.0093  0.1874
   32loPI   C2B  510   4.656   6.437   9.521 -0.4653  0.1161  0.0562
   32loPI   C3B  511   4.786   6.475   9.119  0.2092  0.1077 -0.2120
   32loPI   C4B  512   4.793   6.486   8.645  0.0200  0.3324 -0.1868
   33loPI    C1  513   4.313  14.176  10.691 -0.1081 -0.0840  0.1124
   33loPI    C2  514   4.245  14.561  10.610 -0.0465 -0.1038 -0.0350
   33loPI    C3  515   4.246  14.434  10.989 -0.3576 -0.0142 -0.0016
   33loPI   PO4  516   4.483  14.116  10.461  0.1517 -0.1593  0.1505
   33loPI   GL1  517   4.501  14.015   9.965 -0.3971 -0.0965 -0.1151
   33loPI   GL2  518   4.774  13.880   9.845  0.0385 -0.1977  0.0905
   33loPI   C1A  519   4.342  14.122   9.666 -0.1427  0.3352 -0.0652
   33loPI   C2A  520   4.358  14.086   9.330 -0.0281 -0.0451  0.0100
   33loPI   C3A  521   4.305  14.149   8.868  0.1391 -0.0703 -0.0746
   33loPI   C4A  522   4.422  14.147   8.389  0.3844 -0.0641 -0.0896
   33loPI   C5A  523   4.500  14.170   8.021 -0.2275 -0.2400  0.0165
   33loPI   C6A  524   4.233  14.130   7.650 -0.1083 -0.0400 -0.0599
   33loPI   C1B  525   4.777  13.747   9.478 -0.0012  0.3124 -0.0580
   33loPI   C2B  526   4.651  13.724   8.981 -0.0655  0.0004 -0.3066
   33loPI   C3B  527   4.778  14.077   8.704 -0.0194 -0.2930 -0.1259
   33loPI   C4B  528   4.917  14.237   8.391  0.1052  0.0566 -0.0072
   34loPI    C1  529   4.542  16.996  10.635  0.0063 -0.0062 -0.0240
   34loPI    C2  530   4.421  17.359  10.520  0.1357  0.1389  0.2868
   34loPI    C3  531   4.248  17.181  10.833 -0.1229 -0.1944 -0.0377
   34loPI   PO4  532   4.584  16.889  10.452 -0.0353 -0.1135 -0.1120
   34loPI   GL1  533   4.460  16.537  10.092  0.0643 -0.0810 -0.0112
   34loPI   GL2  534   4.606  16.320  10.054  0.1700  0.0577  0.1584
   34loPI   C1A  535   4.621  16.756   9.781  0.2289  0.0680 -0.1331
   34loPI   C2A  536   4.622  16.741   9.298 -0.0026  0.1539 -0.1551
   34loPI   C3A  537   4.584  16.652   8.876  0.1556 -0.1755  0.1914
   34loPI   C4A  538   4.552  16.614   8.421  0.1607 -0.2136  0.0408
   34loPI   C5A  539   4.621  16.423   7.961 -0.1116 -0.0433 -0.0457
   34loPI   C6A  540   4.757  16.023   7.839  0.2590 -0.3143 -0.0111
   34loPI   C1B  541   4.599  16.286   9.605 -0.0823 -0.1193 -0.1164
   34loPI   C2B  542   4.583  16.104   9.211  0.0630  0.0492 -0.2192
   34loPI   C3B  543   4.523  16.117   8.761 -0.2358  0.0706  0.0564
   34loPI   C4B  544   4.669  16.000   8.373  0.1806 -0.1184 -0.0396
   35loPI    C1  545  14.781   4.732  10.814  0.2935  0.4921 -0.0058
   35loPI    C2  546  14.597   4.845  11.151  0.1021  0.0518  0.0438
   35loPI    C3  547  14.878   4.560  11.162 -0.1498 -0.2132 -0.2098
   35loPI   PO4  548  14.660   4.860  10.651 -0.0573  0.1062 -0.0764
   35loPI   GL1  549  14.369   4.747  10.332 -0.1377 -0.2199  0.0669
   35loPI   GL2  550  14.167   4.951  10.328 -0.0331 -0.0941 -0.0806
   35loPI   C1A  551  14.546   4.799   9.922  0.2079  0.1429 -0.1231
   35loPI   C2A  552  14.660   4.609   9.399  0.0265  0.2111 -0.0533
   35loPI   C3A  553  14.731   4.818   8.985  0.0067 -0.2796 -0.0597
   35loPI   C4A  554  14.843   4.937   8.569  0.0370 -0.2264 -0.2271
   35loPI   C5A  555  14.970   5.260   8.244 -0.0111 -0.0531 -0.1378
   35loPI   C6A  556  14.882   5.546   7.910  0.2341  0.0761 -0.1121
   35loPI   C1B  557  13.984   4.523  10.096  0.1541  0.0044  0.1089
   35loPI   C2B  558  14.248   4.436   9.738  0.0024  0.3339  0.0145
   35loPI   C3B  559  14.269   4.386   9.261 -0.0568 -0.1362 -0.1373
   35loPI   C4B  560  14.349   4.457   8.790  0.0877 -0.0556 -0.0118
   36loPI    C1  561   2.245  15.139  11.026  0.0212  0.0519  0.0613
   36loPI    C2  562   2.350  15.045  11.401  0.0050  0.0908  0.0758
   36loPI    C3  563   1.983  14.956  11.268 -0.0352  0.1988  0.1128
   36loPI   PO4  564   2.445  14.991  10.838 -0.0605 -0.1892  0.2924
   36loPI   GL1  565   2.474  14.929  10.395 -0.1058 -0.0429  0.1643
   36loPI   GL2  566   2.173  14.789  10.196  0.0297  0.0484  0.1506
   36loPI   C1A  567   2.619  14.855   9.953 -0.4313 -0.1678  0.0222
   36loPI   C2A  568   2.681  14.838   9.533  0.0606  0.1447  0.0028
   36loPI   C3A  569   2.632  14.812   9.128 -0.0005  0.0926 -0.2237
   36loPI   C4A  570   2.628  14.830   8.710 -0.0455  0.5671  0.1819
   36loPI   C5A  571   2.680  14.822   8.290  0.2379 -0.2063 -0.0728
   36loPI   C6A  572   2.618  14.925   7.883  0.0109  0.2070  0.3465
   36loPI   C1B  573   2.172  14.709   9.786  0.1089 -0.2338 -0.0083
   36loPI   C2B  574   2.158  14.670   9.303 -0.0063  0.1321 -0.1793
   36loPI   C3B  575   2.144  14.687   8.881 -0.0916 -0.0561  0.2257
   36loPI   C4B  576   2.216  14.828   8.447  0.3886 -0.2000  0.2442
   37loPI    C1  577   0.905  15.935  10.812 -0.1113 -0.3366  0.0403
   37loPI    C2  578   1.195  15.960  11.087 -0.0447 -0.0077 -0.0565
   37loPI    C3  579   1.255  16.105  10.719 -0.2748 -0.0857 -0.1264
   37loPI   PO4  580   0.786  15.725  10.702 -0.0580  0.1538 -0.0003
   37loPI   GL1  581   0.967  15.568  10.340  0.0865 -0.1009 -0.0222
   37loPI   GL2  582   0.867  15.272  10.193  0.0228 -0.0252  0.0029
   37loPI   C1A  583   0.875  15.748   9.917  0.0755  0.4199  0.2167
   37loPI   C2A  584   0.985  15.730   9.552 -0.2508 -0.2641  0.3570
   37loPI   C3A  585   0.995  15.870   9.084  0.1667 -0.1716 -0.1253
   37loPI   C4A  586   1.155  15.909   8.692  0.1452  0.0639 -0.3760
   37loPI   C5A  587   1.186  15.879   8.280  0.0289  0.4747  0.1149
   37loPI   C6A  588   1.039  16.022   7.775 -0.0168  0.1587 -0.1232
   37loPI   C1B  589   0.919  15.260   9.768 -0.1677 -0.0304  0.1267
   37loPI   C2B  590   0.919  15.211   9.276 -0.0845 -0.0811  0.1868
   37loPI   C3B  591   0.932  15.416   8.891 -0.0158  0.0344  0.0061
   37loPI   C4B  592   1.191  15.412   8.465 -0.4516 -0.1012  0.0622
   38loPI    C1  593  14.831  11.734  11.250  0.0495 -0.1327 -0.0479
   38loPI    C2  594  14.761  11.758  11.643  0.0225 -0.2485 -0.0453
   38loPI    C3  595  14.477  11.865  11.383  0.0726 -0.0845 -0.0339
   38loPI   PO4  596  14.994  11.954  11.195  0.2394  0.0644  0.2334
   38loPI   GL1  597  15.047  12.203  10.840  0.0497 -0.3385  0.2567
   38loPI   GL2  598  15.299  12.454  10.736  0.1933  0.0663 -0.0938
   38loPI   C1A  599  14.988  12.172  10.373 -0.0612 -0.0948  0.0797
   38loPI   C2A  600  14.974  12.039   9.932 -0.1521  0.2151 -0.0606
   38loPI   C3A  601  14.996  11.989   9.501 -0.2444  0.0788  0.0041
   38loPI   C4A  602  14.961  11.914   9.090 -0.1547  0.1658  0.0336
   38loPI   C5A  603  14.730  11.799   8.709 -0.1614 -0.0498  0.1895
   38loPI   C6A  604  14.267  11.859   8.542  0.0516  0.0827 -0.0519
   38loPI   C1B  605  15.461  12.586  10.369 -0.3106 -0.0576 -0.1790
   38loPI   C2B  606  15.551  12.632   9.921 -0.1106  0.1722  0.1659
   38loPI   C3B  607  15.541  12.621   9.533 -0.1252  0.1796 -0.1570
   38loPI   C4B  608  15.543  12.663   9.122 -0.0461 -0.4600  0.0352
   39loPI    C1  609  14.597  16.563  10.589  0.1442 -0.2055 -0.0809
   39loPI    C2  610  14.909  16.639  10.826 -0.0983  0.1712  0.1265
   39loPI    C3  611  14.834  16.876  10.513 -0.1817  0.0867  0.0821
   39loPI   PO4  612  14.568  16.253  10.710  0.2522  0.2620 -0.0379
   39loPI   GL1  613  14.751  16.009  10.494 -0.1008  0.2026  0.1446
   39loPI   GL2  614  14.786  15.749  10.464 -0.0994 -0.4030  0.0445
   39loPI   C1A  615  14.847  16.280  10.081  0.0981 -0.0426 -0.1513
   39loPI   C2A  616  14.796  16.286   9.590 -0.0532  0.0551 -0.0356
   39loPI   C3A  617  14.868  16.190   9.187 -0.1467  0.0527  0.0513
   39loPI   C4A  618  14.882  16.104   8.790  0.0471  0.2378 -0.0856
   39loPI   C5A  619  14.681  16.149   8.456  0.2243  0.0106  0.0560
   39loPI   C6A  620  14.756  16.305   8.120  0.2430 -0.2581  0.1238
   39loPI   C1B  621  14.826  15.811  10.003 -0.2117  0.3358 -0.2899
   39loPI   C2B  622  14.860  15.719   9.542  0.3643 -0.0219  0.1410
   39loPI   C3B  623  14.785  15.703   9.092 -0.0225  0.2501  0.3784
   39loPI   C4B  624  14.751  15.666   8.630 -0.0333  0.0617 -0.0281
   40loPI    C1  625  16.898   3.703  10.967  0.0043  0.0972 -0.0332
   40loPI    C2  626  17.086   3.350  10.988  0.1135  0.1665  0.1813
   40loPI    C3  627  16.992   3.547  11.324 -0.1661  0.2274  0.0705
   40loPI   PO4  628  16.683   3.696  10.793  0.1532  0.0137  0.1139
   40loPI   GL1  629  16.627   3.685  10.452  0.1683  0.2185  0.2287
   40loPI   GL2  630  16.880   3.914  10.305  0.1187 -0.2134  0.0608
   40loPI   C1A  631  16.356   3.759  10.087 -0.0250  0.4512 -0.2555
   40loPI   C2A  632  16.324   3.734   9.575  0.0603  0.0581 -0.0707
   40loPI   C3A  633  16.332   3.777   9.269 -0.3133 -0.2516  0.0185
   40loPI   C4A  634  16.302   3.802   8.838 -0.0143  0.0263  0.0831
   40loPI   C5A  635  16.243   3.591   8.416  0.0023 -0.1291 -0.2162
   40loPI   C6A  636  16.072   3.697   8.120 -0.0872  0.2919 -0.0142
   40loPI   C1B  637  16.743   4.020   9.880 -0.1608  0.2749 -0.3363
   40loPI   C2B  638  16.706   4.064   9.446  0.0679 -0.3018 -0.0683
   40loPI   C3B  639  16.662   4.078   9.031  0.3466  0.2386  0.0426
   40loPI   C4B  640  16.729   4.101   8.608 -0.0010  0.1152 -0.1470
   41loPI    C1  641   9.483  17.723  11.043  0.0905 -0.1396  0.0191
   41loPI    C2  642   9.670  18.043  11.194 -0.1343 -0.0458  0.1035
   41loPI    C3  643   9.881  17.755  11.012  0.0921  0.0496  0.2104
   41loPI   PO4  644   9.235  17.842  10.873 -0.3947 -0.3775 -0.1114
   41loPI   GL1  645   9.111  17.836  10.450 -0.0225  0.1145 -0.0016
   41loPI   GL2  646   9.001  17.637  10.299  0.0828  0.1829  0.0856
   41loPI   C1A  647   9.065  18.230  10.204  0.1663 -0.0101  0.1985
   41loPI   C2A  648   8.944  18.347   9.828  0.1538 -0.2069  0.0792
   41loPI   C3A  649   8.887  18.432   9.435 -0.3697  0.0537  0.1329
   41loPI   C4A  650   8.946  18.421   8.991 -0.0940 -0.0132 -0.0142
   41loPI   C5A  651   8.880  18.483   8.480  0.1303 -0.3681  0.3513
   41loPI   C6A  652   8.614  18.243   8.213 -0.0818 -0.2951 -0.2354
   41loPI   C1B  653   9.078  17.515   9.889  0.0630 -0.0128  0.0627
   41loPI   C2B  654   9.218  17.617   9.470  0.0820  0.1284 -0.1615
   41loPI   C3B  655   9.207  17.693   9.059  0.0870 -0.0664  0.3176
   41loPI   C4B  656   9.164  17.505   8.771 -0.1865  0.0352  0.3490
   42loPI    C1  657  15.174   8.719  11.163  0.1046 -0.1100 -0.0642
   42loPI    C2  658  15.320   8.784  11.530 -0.0175  0.2009 -0.0679
   42loPI    C3  659  14.925   8.803  11.465  0.0113  0.2471 -0.2346
   42loPI   PO4  660  15.275   8.507  11.115 -0.0852  0.1374 -0.2148
   42loPI   GL1  661  15.371   8.423  10.696 -0.0653 -0.0646 -0.0669
   42loPI   GL2  662  15.346   8.211  10.704 -0.2628 -0.2099 -0.0324
   42loPI   C1A  663  15.477   8.352  10.228 -0.0290  0.0169  0.0508
   42loPI   C2A  664  15.615   8.346   9.813  0.3027  0.0956  0.0729
   42loPI   C3A  665  15.948   8.115   9.611 -0.1127 -0.2061  0.1190
   42loPI   C4A  666  15.927   7.837   9.298 -0.1323 -0.3971  0.0109
   42loPI   C5A  667  16.092   7.527   9.059  0.1844 -0.3926  0.3125
   42loPI   C6A  668  16.247   7.474   8.608  0.0512  0.0349 -0.1243
   42loPI   C1B  669  15.132   8.061  10.289 -0.3441 -0.1535 -0.2632
   42loPI   C2B  670  15.118   7.926   9.822 -0.3764  0.0181 -0.0239
   42loPI   C3B  671  15.106   7.898   9.326 -0.0058 -0.2837  0.1101
   42loPI   C4B  672  15.040   7.937   8.841  0.1422 -0.1014  0.1563
   43loPI    C1  673  15.630  14.959  11.217 -0.0334 -0.3518  0.1424
   43loPI    C2  674  16.021  14.929  11.295  0.0512 -0.0237 -0.1294
   43loPI    C3  675  15.816  15.247  11.424 -0.0674 -0.0633 -0.2188
   43loPI   PO4  676  15.686  14.823  10.930 -0.2162 -0.1077 -0.0380
   43loPI   GL1  677  15.756  14.782  10.518 -0.0660 -0.2572  0.1108
   43loPI   GL2  678  16.006  14.980  10.341  0.0949  0.2673  0.1722
   43loPI   C1A  679  15.511  14.620  10.202 -0.1258  0.1492 -0.0030
   43loPI   C2A  680  15.462  14.526   9.784 -0.2289  0.1930  0.0166
   43loPI   C3A  681  15.395  14.498   9.339  0.1042  0.0049  0.1218
   43loPI   C4A  682  15.421  14.457   8.992 -0.1910  0.1544 -0.1252
   43loPI   C5A  683  15.477  14.373   8.524  0.1542 -0.0715 -0.0270
   43loPI   C6A  684  15.635  14.258   8.177 -0.0312 -0.0564  0.0498
   43loPI   C1B  685  15.990  15.211  10.050  0.3186  0.0901 -0.1036
   43loPI   C2B  686  16.027  15.184   9.586  0.1457 -0.2935  0.1377
   43loPI   C3B  687  16.017  15.129   9.178  0.0316 -0.3865  0.0610
   43loPI   C4B  688  16.031  15.171   8.747 -0.1694 -0.1420  0.1307
   44loPI    C1  689   3.234  11.101  10.402 -0.0801  0.1877 -0.1633
   44loPI    C2  690   3.565  11.152  10.182 -0.0740  0.1346 -0.1664
   44loPI    C3  691   3.594  11.028  10.561 -0.1099 -0.2667 -0.2901
   44loPI   PO4  692   3.036  11.264  10.271 -0.2134  0.0965  0.0330
   44loPI   GL1  693   2.946  11.364   9.956 -0.0829  0.0074 -0.2154
   44loPI   GL2  694   3.321  11.543   9.953  0.0365 -0.3546 -0.2871
   44loPI   C1A  695   3.101  11.255   9.506 -0.0960  0.0687 -0.2838
   44loPI   C2A  696   3.351  11.411   9.084 -0.3153 -0.1869 -0.0304
   44loPI   C3A  697   3.715  11.258   8.867 -0.0591  0.1086  0.1021
   44loPI   C4A  698   3.893  10.831   8.638  0.0345 -0.2652  0.2110
   44loPI   C5A  699   3.634  10.442   8.873  0.0386  0.0164 -0.4394
   44loPI   C6A  700   3.437  10.052   8.756 -0.0322  0.1868  0.1948
   44loPI   C1B  701   3.577  11.431   9.650  0.1611  0.2167 -0.1664
   44loPI   C2B  702   3.728  11.066   9.311 -0.0270  0.2696 -0.0150
   44loPI   C3B  703   3.949  10.748   9.234 -0.3051  0.0471  0.1079
   44loPI   C4B  704   4.141  10.447   8.991 -0.0217  0.1718  0.1201
   45loPI    C1  705  14.413   9.896  11.273  0.1546 -0.0100  0.0599
   45loPI    C2  706  14.164   9.681  11.499 -0.1644  0.2176 -0.0669
   45loPI    C3  707  14.520   9.791  11.644 -0.2600  0.1468  0.2302
   45loPI   PO4  708  14.367   9.847  11.011  0.0512 -0.3075  0.0518
   45loPI   GL1  709  14.517  10.006  10.620  0.1557 -0.0895  0.4330
   45loPI   GL2  710  14.465   9.676  10.428  0.0028  0.2517  0.1592
   45loPI   C1A  711  14.755  10.025  10.275 -0.0401 -0.1903 -0.0719
   45loPI   C2A  712  14.775  10.043   9.830 -0.1889  0.0771  0.2029
   45loPI   C3A  713  14.854  10.062   9.385  0.1021  0.0114  0.1164
   45loPI   C4A  714  15.017   9.987   8.969  0.1277  0.0172 -0.0161
   45loPI   C5A  715  15.060   9.682   8.658  0.0946  0.2206  0.0690
   45loPI   C6A  716  14.940   9.211   8.475 -0.0759 -0.0709 -0.0688
   45loPI   C1B  717  14.440   9.732   9.986 -0.2061 -0.1684 -0.0387
   45loPI   C2B  718  14.472   9.701   9.556 -0.0598 -0.2451 -0.4245
   45loPI   C3B  719  14.507   9.801   9.128 -0.0215  0.1726 -0.0199
   45loPI   C4B  720  14.514  10.104   8.777  0.1548 -0.0270 -0.0836
   46loPI    C1  721  13.527   9.052  11.508 -0.0213 -0.2728  0.0768
   46loPI    C2  722  13.412   8.713  11.688 -0.1256 -0.1392  0.2646
   46loPI    C3  723  13.272   9.066  11.816 -0.1271 -0.0344 -0.0193
   46loPI   PO4  724  13.530   8.945  11.262 -0.4130 -0.0629  0.0347
   46loPI   GL1  725  13.637   8.976  10.820  0.1130 -0.2057 -0.0877
   46loPI   GL2  726  13.746   9.200  10.700  0.0324  0.1948  0.1179
   46loPI   C1A  727  13.942   8.746  10.592 -0.0482  0.2302 -0.0213
   46loPI   C2A  728  14.105   8.845  10.088  0.0748 -0.0832 -0.1678
   46loPI   C3A  729  14.163   8.844   9.679  0.1877  0.1028 -0.0146
   46loPI   C4A  730  14.225   8.817   9.221 -0.0848 -0.2167 -0.0627
   46loPI   C5A  731  14.215   8.875   8.876  0.1117  0.1585  0.2036
   46loPI   C6A  732  14.359   9.149   8.582  0.0255 -0.2196  0.1269
   46loPI   C1B  733  13.660   9.175  10.265  0.1697 -0.2335 -0.2717
   46loPI   C2B  734  13.658   9.070   9.859 -0.1678  0.1948 -0.0018
   46loPI   C3B  735  13.634   8.985   9.443 -0.0697  0.2327 -0.1991
   46loPI   C4B  736  13.744   9.116   9.119 -0.1059  0.0511 -0.1343
   47loPI    C1  737   5.333   7.299  10.894  0.3097  0.1191  0.1430
   47loPI    C2  738   5.651   7.248  10.656  0.2249  0.1348  0.0252
   47loPI    C3  739   5.592   7.599  10.838  0.2959  0.1193  0.0787
   47loPI   PO4  740   5.129   7.274  10.698  0.0449  0.1569 -0.3580
   47loPI   GL1  741   5.213   7.105  10.380  0.2469 -0.2645 -0.0526
   47loPI   GL2  742   5.168   6.703  10.496  0.2404 -0.1561  0.3561
   47loPI   C1A  743   5.303   7.242   9.918 -0.3687 -0.2358  0.1169
   47loPI   C2A  744   5.302   7.227   9.459  0.0774  0.0626 -0.2234
   47loPI   C3A  745   5.350   7.347   9.020  0.3086 -0.0032 -0.1352
   47loPI   C4A  746   5.399   7.395   8.573  0.2015 -0.0192  0.0981
   47loPI   C5A  747   5.507   7.411   8.140 -0.0017 -0.0782  0.0289
   47loPI   C6A  748   5.867   7.365   7.791 -0.0330 -0.5158  0.0151
   47loPI   C1B  749   5.045   6.666  10.064  0.2075 -0.0468  0.1523
   47loPI   C2B  750   4.989   6.779   9.675 -0.1631 -0.2606  0.1732
   47loPI   C3B  751   5.107   6.855   9.222  0.1515  0.0979 -0.1380
   47loPI   C4B  752   5.040   6.928   8.793 -0.0461 -0.2829  0.2901
   48loPI    C1  753   4.590  18.048  10.997 -0.1219  0.2454  0.0358
   48loPI    C2  754   4.245  18.251  11.008 -0.1483  0.1902  0.2981
   48loPI    C3  755   4.314  17.960  11.273 -0.0026  0.0300  0.0879
   48loPI   PO4  756   4.601  18.112  10.646  0.3441 -0.2310 -0.0729
   48loPI   GL1  757   4.780  18.040  10.106 -0.1749 -0.1203  0.0863
   48loPI   GL2  758   4.591  18.305  10.221 -0.0663  0.2628  0.2276
   48loPI   C1A  759   4.804  18.241   9.703  0.4100  0.2176 -0.2997
   48loPI   C2A  760   4.756  18.236   9.280  0.0607  0.1098  0.1354
   48loPI   C3A  761   4.793  18.163   8.821  0.2025 -0.0086 -0.2164
   48loPI   C4A  762   4.713  18.162   8.370  0.0208 -0.1700 -0.2068
   48loPI   C5A  763   4.520  18.110   7.978 -0.0166 -0.0261 -0.1557
   48loPI   C6A  764   4.103  18.065   7.763 -0.0979  0.1233 -0.1103
   48loPI   C1B  765   4.377  18.572   9.966  0.0556  0.1641 -0.0249
   48loPI   C2B  766   4.356  18.473   9.532  0.0347 -0.2310  0.0304
   48loPI   C3B  767   4.335  18.492   9.054  0.1275  0.1312  0.2724
   48loPI   C4B  768   4.301  18.412   8.645  0.1598  0.1190 -0.1003
   49loPI    C1  769   7.245   8.151  10.831  0.2135  0.1169 -0.1414
   49loPI    C2  770   7.613   8.286  10.910  0.1098  0.2246  0.1765
   49loPI    C3  771   7.379   8.160  11.208 -0.0429 -0.0257 -0.0446
   49loPI   PO4  772   7.117   8.321  10.670 -0.1319  0.1083  0.0663
   49loPI   GL1  773   6.766   8.406  10.371 -0.1152 -0.0669 -0.2518
   49loPI   GL2  774   6.619   8.641  10.245  0.1464 -0.0287  0.1164
   49loPI   C1A  775   6.850   8.079  10.079 -0.3062 -0.0845  0.0460
   49loPI   C2A  776   6.858   8.019   9.689  0.0068  0.1596 -0.2211
   49loPI   C3A  777   6.918   8.034   9.298 -0.0533 -0.0158 -0.0745
   49loPI   C4A  778   6.982   8.027   8.887  0.1226  0.0625 -0.1628
   49loPI   C5A  779   6.959   7.998   8.448  0.2272  0.1172  0.2203
   49loPI   C6A  780   7.056   8.000   7.953 -0.1034  0.0956  0.1926
   49loPI   C1B  781   6.639   8.461   9.800 -0.1168 -0.0867 -0.1421
   49loPI   C2B  782   6.661   8.452   9.398  0.0693  0.1200 -0.1542
   49loPI   C3B  783   6.782   8.495   9.013 -0.0808  0.1847  0.1203
   49loPI   C4B  784   6.895   8.532   8.678  0.0318 -0.0783 -0.3187
   50loPI    C1  785   6.597  15.734  10.667  0.0590 -0.1973  0.1633
   50loPI    C2  786   6.644  16.020  10.942  0.0770 -0.1238  0.0843
   50loPI    C3  787   6.790  15.654  11.008  0.0905 -0.1037  0.1678
   50loPI   PO4  788   6.683  15.826  10.465 -0.0367 -0.2021 -0.2032
   50loPI   GL1  789   7.084  15.856  10.238 -0.1397 -0.0578 -0.0846
   50loPI   GL2  790   7.213  16.135  10.155 -0.0562 -0.1879  0.0978
   50loPI   C1A  791   7.091  15.764   9.753 -0.0370  0.0116  0.0829
   50loPI   C2A  792   7.074  15.807   9.319 -0.2327 -0.3230 -0.0755
   50loPI   C3A  793   7.151  15.825   8.885  0.3098 -0.0458 -0.2156
   50loPI   C4A  794   7.281  15.933   8.490 -0.0793 -0.2207 -0.3287
   50loPI   C5A  795   7.318  16.126   8.081 -0.2405  0.1264 -0.0760
   50loPI   C6A  796   7.278  16.148   7.653  0.1195  0.0890 -0.0533
   50loPI   C1B  797   7.124  16.338   9.806 -0.1811  0.0336  0.0836
   50loPI   C2B  798   7.172  16.411   9.373 -0.1038  0.0197  0.1242
   50loPI   C3B  799   7.124  16.414   8.966 -0.0852  0.0289  0.0374
   50loPI   C4B  800   7.105  16.467   8.507  0.2703 -0.1396 -0.1809
   51loPI    C1  801  17.526  16.422  11.116 -0.0252  0.1742  0.1164
   51loPI    C2  802  17.225  16.609  11.302 -0.1964  0.0897 -0.0727
   51loPI    C3  803  17.516  16.438  11.516 -0.2245  0.2659  0.1093
   51loPI   PO4  804  17.590  16.513  10.890  0.0268 -0.1091  0.2728
   51loPI   GL1  805  17.472  16.512  10.479  0.0337 -0.0653 -0.1607
   51loPI   GL2  806  17.641  16.288  10.339  0.0537  0.0082 -0.0017
   51loPI   C1A  807  17.187  16.588  10.105 -0.1652  0.1968 -0.1300
   51loPI   C2A  808  17.245  16.507   9.697 -0.0300 -0.0119 -0.1229
   51loPI   C3A  809  17.203  16.482   9.264 -0.1006 -0.0217 -0.2099
   51loPI   C4A  810  17.287  16.555   8.827  0.1558 -0.1144  0.1145
   51loPI   C5A  811  17.168  16.429   8.404 -0.0696 -0.0958  0.0497
   51loPI   C6A  812  17.301  16.188   8.023 -0.1611 -0.2120  0.2086
   51loPI   C1B  813  17.564  16.163  10.003 -0.0917 -0.4174 -0.2821
   51loPI   C2B  814  17.604  16.187   9.501 -0.0290  0.0602 -0.1052
   51loPI   C3B  815  17.527  16.161   9.069  0.0790 -0.0898 -0.1861
   51loPI   C4B  816  17.561  16.147   8.549 -0.0025  0.2369 -0.1896
   52loPI    C1  817   4.428  15.897  10.640 -0.1288  0.1820  0.1600
   52loPI    C2  818   4.772  16.017  10.805 -0.0129  0.0399  0.0258
   52loPI    C3  819   4.724  15.634  10.702 -0.1400  0.0972 -0.1317
   52loPI   PO4  820   4.349  16.091  10.431 -0.2885  0.2670 -0.1673
   52loPI   GL1  821   4.247  15.987   9.949 -0.0726 -0.0036 -0.2380
   52loPI   GL2  822   4.016  16.162   9.972  0.0029 -0.2496  0.2534
   52loPI   C1A  823   4.184  15.980   9.525  0.1125 -0.2769  0.1323
   52loPI   C2A  824   4.125  15.917   9.122 -0.2807  0.0364  0.0521
   52loPI   C3A  825   3.976  15.994   8.705  0.2107 -0.0007  0.1536
   52loPI   C4A  826   4.174  15.969   8.344 -0.1247  0.0733 -0.0908
   52loPI   C5A  827   4.389  15.733   8.009 -0.1201  0.1137 -0.1423
   52loPI   C6A  828   4.288  15.431   7.653 -0.3181 -0.0834  0.1023
   52loPI   C1B  829   4.131  16.464   9.714  0.0624  0.0786  0.2332
   52loPI   C2B  830   4.245  16.455   9.229 -0.0065  0.3700 -0.0206
   52loPI   C3B  831   4.128  16.431   8.781 -0.0028 -0.0472  0.3525
   52loPI   C4B  832   4.078  16.497   8.242 -0.0752  0.1841  0.1147
   53loPI    C1  833  14.307   1.412  10.540 -0.2505  0.0444  0.0973
   53loPI    C2  834  14.338   1.491  10.149 -0.2576 -0.3062  0.0219
   53loPI    C3  835  14.535   1.716  10.415 -0.1092 -0.1759 -0.1946
   53loPI   PO4  836  14.158   1.195  10.530 -0.2517  0.0712  0.1565
   53loPI   GL1  837  14.045   1.051  10.153  0.1824 -0.1292  0.0532
   53loPI   GL2  838  13.865   0.869   9.953 -0.0482  0.3233 -0.1898
   53loPI   C1A  839  14.134   1.228   9.739 -0.2789  0.3046  0.1331
   53loPI   C2A  840  14.425   1.169   9.405  0.0553 -0.1121 -0.0367
   53loPI   C3A  841  14.354   1.280   8.899 -0.3109 -0.1956  0.3777
   53loPI   C4A  842  14.487   1.472   8.478  0.1156 -0.0726 -0.0572
   53loPI   C5A  843  14.798   1.518   8.174 -0.1764 -0.2692 -0.0957
   53loPI   C6A  844  15.012   1.333   7.805  0.0103  0.1094 -0.3494
   53loPI   C1B  845  13.994   0.741   9.595 -0.5204  0.2597 -0.0398
   53loPI   C2B  846  14.004   0.571   9.181  0.0855  0.1724 -0.2383
   53loPI   C3B  847  14.241   0.821   8.850 -0.1596  0.1429 -0.2235
   53loPI   C4B  848  14.140   0.910   8.470  0.2223  0.2674 -0.1629
   54loPI    C1  849   2.622  11.124  10.612 -0.4418 -0.1157 -0.0898
   54loPI    C2  850   2.492  11.436  10.825  0.1431  0.1648 -0.1218
   54loPI    C3  851   2.786  11.205  10.968 -0.1541 -0.2649 -0.1842
   54loPI   PO4  852   2.319  11.076  10.563 -0.2359  0.1007  0.2442
   54loPI   GL1  853   1.948  11.163  10.278 -0.2852 -0.0051 -0.0086
   54loPI   GL2  854   2.085  10.918  10.102  0.1238 -0.0773  0.1831
   54loPI   C1A  855   1.646  11.240   9.946  0.3310  0.2002  0.0039
   54loPI   C2A  856   1.348  11.099   9.619  0.0667 -0.4502 -0.1350
   54loPI   C3A  857   1.103  10.994   9.170 -0.0045  0.0451 -0.3118
   54loPI   C4A  858   0.932  10.983   8.755  0.3858  0.0398 -0.1042
   54loPI   C5A  859   0.608  10.939   8.454  0.2717 -0.0672  0.1736
   54loPI   C6A  860   0.126  10.865   8.519 -0.0982  0.0398  0.3573
   54loPI   C1B  861   2.042  10.956   9.791  0.1164  0.1983  0.2118
   54loPI   C2B  862   1.764  10.905   9.497 -0.0452 -0.2147  0.1142
   54loPI   C3B  863   1.599  11.136   9.233  0.0814  0.1322 -0.1450
   54loPI   C4B  864   1.416  11.141   8.818 -0.1315  0.0922  0.1624
   55loPI    C1  865  13.881   0.782  10.551  0.0139  0.0152 -0.1145
   55loPI    C2  866  13.672   1.109  10.453 -0.0066  0.0209 -0.0520
   55loPI    C3  867  13.738   1.021  10.838  0.2856  0.1331 -0.0739
   55loPI   PO4  868  13.831   0.606  10.368  0.0982  0.1845 -0.1902
   55loPI   GL1  869  13.824   0.360   9.998  0.1178  0.0224 -0.0718
   55loPI   GL2  870  13.467   0.439  10.062  0.0047  0.0614  0.2576
   55loPI   C1A  871  13.823   0.200   9.572 -0.2025 -0.0571  0.1171
   55loPI   C2A  872  13.654   0.229   9.201 -0.0626 -0.0846  0.0320
   55loPI   C3A  873  13.478   0.308   8.792  0.0067 -0.1440  0.3786
   55loPI   C4A  874  13.322   0.449   8.361  0.1340 -0.1628 -0.1433
   55loPI   C5A  875  13.310   0.754   8.045 -0.2761 -0.1074  0.2983
   55loPI   C6A  876  13.261   0.619   7.673 -0.1869 -0.0377  0.3439
   55loPI   C1B  877  13.497   0.615   9.620 -0.2841  0.0465 -0.0403
   55loPI   C2B  878  13.604   0.860   9.355 -0.2248  0.0916  0.2373
   55loPI   C3B  879  13.643   0.869   8.914  0.0996 -0.0867  0.0416
   55loPI   C4B  880  13.557   0.890   8.454 -0.0991 -0.1400 -0.2307
   56loPI    C1  881   8.690   8.772  10.432  0.0879 -0.3832  0.0495
   56loPI    C2  882   8.648   8.508  10.730  0.1848 -0.3724  0.0729
   56loPI    C3  883   8.810   8.867  10.801 -0.0627 -0.2574  0.0672
   56loPI   PO4  884   8.819   8.643  10.228  0.0584 -0.1409 -0.3481
   56loPI   GL1  885   8.875   8.729   9.876  0.1324  0.0692  0.2079
   56loPI   GL2  886   8.693   9.045   9.973 -0.0539 -0.1733  0.0701
   56loPI   C1A  887   9.133   8.457   9.732 -0.0823  0.0299  0.1649
   56loPI   C2A  888   9.373   8.228   9.387 -0.4579  0.3138 -0.0932
   56loPI   C3A  889   9.376   7.971   9.106  0.3186  0.0913  0.0548
   56loPI   C4A  890   9.301   7.879   8.660  0.0401 -0.1955 -0.1235
   56loPI   C5A  891   9.540   7.929   8.268 -0.2228  0.1891 -0.1405
   56loPI   C6A  892   9.714   7.953   7.828 -0.2919 -0.3598  0.0149
   56loPI   C1B  893   9.088   9.112   9.739  0.1166  0.0124 -0.2631
   56loPI   C2B  894   9.253   9.150   9.339  0.0960  0.0437  0.0946
   56loPI   C3B  895   9.397   9.140   8.917 -0.1489  0.1833 -0.3521
   56loPI   C4B  896   9.089   9.164   8.553 -0.3219  0.1281  0.2388
   57loPI    C1  897   4.457  15.046  10.674  0.1772  0.1520  0.0506
   57loPI    C2  898   4.259  15.383  10.757 -0.1960 -0.0531  0.0138
   57loPI    C3  899   4.573  15.276  10.981  0.2170  0.5447 -0.2503
   57loPI   PO4  900   4.562  15.097  10.388 -0.0417 -0.3086 -0.2043
   57loPI   GL1  901   4.511  15.187  10.022  0.0530  0.0909  0.2254
   57loPI   GL2  902   4.783  14.947   9.947 -0.2484 -0.1012 -0.3286
   57loPI   C1A  903   4.476  15.136   9.564 -0.3695 -0.1934  0.0368
   57loPI   C2A  904   4.434  15.102   9.121 -0.1697 -0.0839 -0.0528
   57loPI   C3A  905   4.550  15.120   8.732  0.0649  0.0116  0.1625
   57loPI   C4A  906   4.459  15.110   8.374  0.2376 -0.0651 -0.0674
   57loPI   C5A  907   4.550  15.042   7.864  0.2679 -0.0999 -0.1218
   57loPI   C6A  908   4.594  15.085   7.408 -0.1941  0.1365  0.0823
   57loPI   C1B  909   4.866  14.808   9.568 -0.1370  0.1635  0.2593
   57loPI   C2B  910   4.885  14.866   9.045 -0.1500  0.2927  0.0484
   57loPI   C3B  911   5.009  14.827   8.574 -0.4145  0.5193 -0.1684
   57loPI   C4B  912   5.293  14.543   8.356 -0.1925  0.0054  0.1440
   58loPI    C1  913   6.057   7.625  11.257  0.0679 -0.1965 -0.0004
   58loPI    C2  914   6.432   7.654  11.122  0.0343 -0.1716 -0.0887
   58loPI    C3  915   6.363   7.617  11.514  0.1178  0.0882 -0.0478
   58loPI   PO4  916   5.949   7.393  11.091 -0.1053  0.0684 -0.0267
   58loPI   GL1  917   6.086   7.441  10.713  0.3022 -0.0612 -0.3960
   58loPI   GL2  918   6.173   7.248  10.492  0.3039 -0.1613  0.1723
   58loPI   C1A  919   5.888   7.706  10.350 -0.0284 -0.2629 -0.1838
   58loPI   C2A  920   5.661   7.642   9.909  0.0593 -0.1898 -0.1252
   58loPI   C3A  921   5.599   7.784   9.432  0.1812 -0.0258 -0.2749
   58loPI   C4A  922   5.650   7.739   8.919 -0.1680  0.2009 -0.1905
   58loPI   C5A  923   5.585   7.916   8.495  0.3214  0.1493  0.3220
   58loPI   C6A  924   5.590   8.307   8.074 -0.2720 -0.0646 -0.3425
   58loPI   C1B  925   6.282   7.238  10.069 -0.3523 -0.0480  0.0048
   58loPI   C2B  926   6.343   7.192   9.598 -0.0281 -0.1977 -0.2294
   58loPI   C3B  927   6.330   7.243   9.117 -0.2301  0.1029 -0.0303
   58loPI   C4B  928   6.297   7.176   8.704  0.0903  0.0516 -0.2257
   59loPI    C1  929  10.574   5.763  10.942  0.1880  0.1588 -0.0658
   59loPI    C2  930  10.346   5.753  11.270  0.1484 -0.0076 -0.0974
   59loPI    C3  931  10.685   5.966  11.269 -0.0134  0.2544 -0.0555
   59loPI   PO4  932  10.462   5.769  10.692 -0.3684 -0.0420 -0.1552
   59loPI   GL1  933  10.224   5.618  10.332  0.0153  0.0377 -0.0581
   59loPI   GL2  934  10.476   5.329  10.439 -0.0160 -0.0506 -0.2438
   59loPI   C1A  935  10.062   5.588   9.944  0.1134 -0.0961 -0.0038
   59loPI   C2A  936  10.028   5.562   9.538 -0.0557  0.0831 -0.1590
   59loPI   C3A  937  10.169   5.616   9.072  0.0917 -0.1131  0.1692
   59loPI   C4A  938  10.104   5.685   8.627 -0.0439  0.1295 -0.0106
   59loPI   C5A  939  10.205   5.891   8.280  0.0195 -0.2880  0.0408
   59loPI   C6A  940  10.140   6.236   7.985  0.0850 -0.0819  0.2814
   59loPI   C1B  941  10.578   5.590  10.024  0.0568  0.1657  0.0954
   59loPI   C2B  942  10.550   5.669   9.511 -0.0127  0.2507  0.1410
   59loPI   C3B  943  10.652   5.694   9.042 -0.0534 -0.2183 -0.0104
   59loPI   C4B  944  10.631   5.577   8.648  0.2145 -0.0773  0.2543
   60loPI    C1  945  11.582   3.700  10.832 -0.0936  0.0633  0.1318
   60loPI    C2  946  11.317   3.475  11.029 -0.0143 -0.0936  0.0605
   60loPI    C3  947  11.546   3.735  11.229 -0.1244 -0.0567  0.1398
   60loPI   PO4  948  11.563   3.798  10.628  0.2948 -0.2363  0.0877
   60loPI   GL1  949  11.547   3.679  10.303  0.2238 -0.2750  0.0874
   60loPI   GL2  950  11.364   3.552  10.132  0.1937 -0.0252  0.4532
   60loPI   C1A  951  11.616   3.944   9.890  0.5784  0.0012 -0.2175
   60loPI   C2A  952  11.744   3.970   9.502 -0.2026 -0.4381  0.1110
   60loPI   C3A  953  11.786   3.928   9.081  0.2429  0.4448  0.1768
   60loPI   C4A  954  11.684   3.838   8.692 -0.1226  0.0767  0.1108
   60loPI   C5A  955  11.761   3.792   8.296 -0.0549 -0.0860  0.0282
   60loPI   C6A  956  11.627   3.438   8.011  0.0906 -0.0648 -0.1199
   60loPI   C1B  957  11.434   3.489   9.686  0.1666 -0.0668  0.2600
   60loPI   C2B  958  11.457   3.542   9.249 -0.1115 -0.0705 -0.1542
   60loPI   C3B  959  11.438   3.462   8.754  0.0642  0.1323  0.2122
   60loPI   C4B  960  11.357   3.501   8.400  0.1134 -0.1421 -0.0073
   61loPI    C1  961  16.754   7.236  11.212  0.1542 -0.0346 -0.0724
   61loPI    C2  962  16.739   7.568  11.435 -0.0931  0.0251 -0.1741
   61loPI    C3  963  16.762   7.209  11.611 -0.0001  0.0865 -0.0600
   61loPI   PO4  964  16.983   7.325  11.026  0.0264  0.0615 -0.1848
   61loPI   GL1  965  16.983   7.376  10.688 -0.2010 -0.0021 -0.0855
   61loPI   GL2  966  17.088   7.100  10.414 -0.3195  0.0791  0.1938
   61loPI   C1A  967  16.956   7.634  10.361  0.1470 -0.0625 -0.2472
   61loPI   C2A  968  16.983   7.734   9.902  0.1780 -0.2068 -0.2891
   61loPI   C3A  969  16.941   7.618   9.592 -0.0323  0.1642 -0.2496
   61loPI   C4A  970  16.995   7.695   9.170  0.0837  0.1470 -0.0454
   61loPI   C5A  971  17.167   7.820   8.791 -0.0723  0.0393 -0.0081
   61loPI   C6A  972  17.188   7.664   8.480  0.1293 -0.1112  0.0323
   61loPI   C1B  973  17.019   7.188  10.045  0.2745 -0.0352  0.1981
   61loPI   C2B  974  17.028   7.050   9.670 -0.1198  0.2109 -0.1230
   61loPI   C3B  975  16.997   7.161   9.306 -0.2714  0.0409 -0.1248
   61loPI   C4B  976  17.146   7.298   8.937  0.1942  0.0737 -0.0415
   62loPI    C1  977  15.677   8.751  11.199 -0.0955 -0.1811  0.0221
   62loPI    C2  978  15.491   9.102  11.146  0.3021  0.0381  0.0366
   62loPI    C3  979  15.733   9.049  11.460  0.4045 -0.1797 -0.0763
   62loPI   PO4  980  15.741   8.677  11.035  0.0713  0.0466 -0.0564
   62loPI   GL1  981  15.756   8.819  10.704 -0.0838  0.2799 -0.1460
   62loPI   GL2  982  15.961   8.756  10.543  0.1003 -0.0193 -0.0590
   62loPI   C1A  983  15.508   8.867  10.367  0.0515  0.2377 -0.1479
   62loPI   C2A  984  15.415   8.839   9.993  0.0254 -0.0207 -0.0656
   62loPI   C3A  985  15.455   8.840   9.561 -0.0476 -0.2441  0.1962
   62loPI   C4A  986  15.571   8.882   9.164  0.0111 -0.1810 -0.0973
   62loPI   C5A  987  15.591   8.515   8.950 -0.2440 -0.3655  0.2230
   62loPI   C6A  988  15.520   8.219   9.289  0.2844  0.0093  0.0684
   62loPI   C1B  989  15.963   8.521  10.133 -0.1336 -0.1227  0.0246
   62loPI   C2B  990  16.010   8.102  10.085 -0.1136  0.1622 -0.1793
   62loPI   C3B  991  16.085   7.696   9.931  0.1170  0.1510  0.0021
   62loPI   C4B  992  16.115   7.491   9.605 -0.0200 -0.1055  0.1020
   63loPI    C1  993   5.965   9.580  10.933  0.3277  0.0918  0.0244
   63loPI    C2  994   6.207   9.736  11.210  0.0187  0.0973  0.2979
   63loPI    C3  995   6.102   9.351  11.231  0.0649  0.0751  0.1352
   63loPI   PO4  996   6.142   9.595  10.629  0.0298 -0.0609 -0.2350
   63loPI   GL1  997   6.132   9.719  10.266 -0.2189 -0.0437  0.1795
   63loPI   GL2  998   6.239  10.017  10.329 -0.0988 -0.1676  0.0545
   63loPI   C1A  999   6.243   9.555   9.942 -0.1394  0.4091 -0.2866
   63loPI   C2A 1000   6.238   9.507   9.462 -0.1347 -0.2816 -0.0144
   63loPI   C3A 1001   6.486   9.368   9.066  0.1680  0.1030  0.0506
   63loPI   C4A 1002   6.471   9.358   8.601 -0.0778 -0.1205 -0.0394
   63loPI   C5A 1003   6.570   9.273   8.184 -0.0071  0.1121 -0.3006
   63loPI   C6A 1004   6.455   8.859   8.019  0.3809  0.0278 -0.0336
   63loPI   C1B 1005   6.218  10.112   9.877  0.3886  0.2988 -0.1432
   63loPI   C2B 1006   6.213  10.048   9.435 -0.0362  0.0821 -0.0226
   63loPI   C3B 1007   6.283   9.877   8.999  0.3492 -0.1782  0.0393
   63loPI   C4B 1008   6.369   9.956   8.550 -0.0574 -0.1138 -0.0180
   64loPI    C1 1009   6.948  13.536  11.206 -0.0958  0.2419 -0.1115
   64loPI    C2 1010   7.293  13.731  11.152  0.1582 -0.0868  0.2673
   64loPI    C3 1011   7.117  13.732  11.511 -0.2325  0.0631  0.0815
   64loPI   PO4 1012   6.819  13.623  11.006 -0.1624  0.2317 -0.1181
   64loPI   GL1 1013   6.918  13.745  10.605 -0.0268  0.1315 -0.2267
   64loPI   GL2 1014   7.162  13.675  10.307  0.0736  0.1805 -0.4270
   64loPI   C1A 1015   6.633  13.581  10.197  0.1515 -0.1479  0.0384
   64loPI   C2A 1016   6.591  13.528   9.773 -0.2522  0.0750 -0.1278
   64loPI   C3A 1017   6.475  13.520   9.385  0.0091 -0.0879  0.0379
   64loPI   C4A 1018   6.457  13.578   8.977 -0.4555 -0.0888 -0.0359
   64loPI   C5A 1019   6.454  13.486   8.584 -0.1437  0.0495  0.1326
   64loPI   C6A 1020   6.417  13.430   8.199 -0.0081  0.3185 -0.2256
   64loPI   C1B 1021   7.053  13.764   9.905 -0.0050  0.0211  0.3547
   64loPI   C2B 1022   7.080  13.782   9.446 -0.0660 -0.0345  0.0371
   64loPI   C3B 1023   6.973  13.705   9.043  0.1699  0.0328 -0.2706
   64loPI   C4B 1024   7.000  13.880   8.544  0.3790  0.1244  0.0605
   65loPI    C1 1025  12.503  12.471  10.980  0.0023  0.1430 -0.0144
   65loPI    C2 1026  12.496  12.656  11.334 -0.1228 -0.0998  0.1122
   65loPI    C3 1027  12.623  12.277  11.309 -0.0122 -0.0486 -0.1204
   65loPI   PO4 1028  12.548  12.583  10.822  0.0187 -0.2359 -0.1244
   65loPI   GL1 1029  12.606  12.743  10.392 -0.0877 -0.1013 -0.1596
   65loPI   GL2 1030  12.808  12.510  10.440 -0.0721  0.2340  0.2769
   65loPI   C1A 1031  12.538  12.906  10.030 -0.1700 -0.1819  0.0922
   65loPI   C2A 1032  12.413  12.978   9.634 -0.1215 -0.0801  0.0281
   65loPI   C3A 1033  12.437  13.035   9.161  0.0300  0.3816 -0.0320
   65loPI   C4A 1034  12.453  13.019   8.724  0.1433 -0.2486 -0.4497
   65loPI   C5A 1035  12.301  13.182   8.359 -0.4525 -0.0691 -0.2579
   65loPI   C6A 1036  11.906  13.124   7.971 -0.0924 -0.1915  0.2061
   65loPI   C1B 1037  12.816  12.554   9.919  0.0067  0.2789  0.2666
   65loPI   C2B 1038  12.808  12.662   9.490  0.0668  0.0497 -0.0886
   65loPI   C3B 1039  12.846  12.704   9.073  0.2428 -0.2214  0.2549
   65loPI   C4B 1040  12.827  12.701   8.660 -0.1390  0.2260 -0.2773
   66loPI    C1 1041  14.761   1.975  10.762 -0.2800  0.0045  0.0593
   66loPI    C2 1042  14.744   1.941  11.161  0.0448 -0.1643  0.0619
   66loPI    C3 1043  14.967   1.686  10.948 -0.1449 -0.0896 -0.2317
   66loPI   PO4 1044  14.656   2.205  10.689 -0.0006 -0.2995 -0.2568
   66loPI   GL1 1045  14.589   2.247  10.243  0.1600 -0.0765  0.0594
   66loPI   GL2 1046  14.447   2.015  10.001  0.0593 -0.3608  0.0964
   66loPI   C1A 1047  14.724   2.483   9.914 -0.0815  0.1563 -0.1919
   66loPI   C2A 1048  14.666   2.532   9.511 -0.2144 -0.0371 -0.0165
   66loPI   C3A 1049  14.633   2.652   9.098 -0.0051 -0.1758 -0.1286
   66loPI   C4A 1050  14.343   2.794   8.945  0.1704 -0.1482  0.1661
   66loPI   C5A 1051  14.025   2.657   8.677 -0.1365  0.1041 -0.0151
   66loPI   C6A 1052  13.954   2.371   8.379 -0.2539 -0.4864  0.2326
   66loPI   C1B 1053  14.443   2.093   9.623  0.1428 -0.1226 -0.0629
   66loPI   C2B 1054  14.323   2.273   9.178  0.1206 -0.0713  0.1734
   66loPI   C3B 1055  14.277   2.283   8.787  0.0708 -0.0675  0.2430
   66loPI   C4B 1056  14.458   2.044   8.429  0.1070 -0.1637 -0.3746
   67loPI    C1 1057  16.413  12.404  11.067  0.2983  0.1310 -0.0551
   67loPI    C2 1058  16.101  12.445  11.314  0.2578 -0.0073 -0.0818
   67loPI    C3 1059  16.469  12.394  11.463  0.2639  0.1227 -0.0504
   67loPI   PO4 1060  16.247  12.297  10.819 -0.1636  0.2014  0.0811
   67loPI   GL1 1061  16.408  12.480  10.391 -0.1734  0.0568 -0.1563
   67loPI   GL2 1062  16.748  12.486  10.320 -0.1723  0.1457 -0.2861
   67loPI   C1A 1063  16.440  12.371   9.912 -0.0412 -0.0963 -0.1140
   67loPI   C2A 1064  16.372  12.455   9.470 -0.1372  0.1954 -0.3174
   67loPI   C3A 1065  16.418  12.468   8.972  0.0317  0.1055 -0.3842
   67loPI   C4A 1066  16.426  12.518   8.485  0.1317 -0.2449  0.0427
   67loPI   C5A 1067  16.145  12.348   8.217  0.1150  0.0215  0.1341
   67loPI   C6A 1068  15.797  12.457   8.023  0.0541 -0.1278 -0.0699
   67loPI   C1B 1069  16.951  12.597   9.973 -0.2771 -0.1629  0.1321
   67loPI   C2B 1070  16.917  12.662   9.557  0.1411 -0.0508  0.2771
   67loPI   C3B 1071  16.934  12.625   9.203 -0.0814  0.1367 -0.1939
   67loPI   C4B 1072  16.916  12.517   8.734 -0.1495 -0.0785 -0.0140
   68loPI    C1 1073  15.684  11.379  10.999  0.0118 -0.0903  0.3801
   68loPI    C2 1074  15.998  11.132  10.972 -0.1281 -0.2312 -0.0357
   68loPI    C3 1075  15.811  11.180  11.323  0.3529 -0.1442  0.2175
   68loPI   PO4 1076  15.663  11.539  10.788  0.0395 -0.0368  0.2954
   68loPI   GL1 1077  15.456  11.563  10.387 -0.1353  0.0560  0.0055
   68loPI   GL2 1078  15.773  11.676  10.295  0.0994  0.0909  0.0520
   68loPI   C1A 1079  15.258  11.536  10.036 -0.2007  0.2521  0.0411
   68loPI   C2A 1080  15.375  11.676   9.555  0.0701 -0.0038 -0.1340
   68loPI   C3A 1081  15.359  11.629   9.177 -0.0376  0.2444 -0.0302
   68loPI   C4A 1082  15.448  11.698   8.705  0.1502  0.0307  0.1420
   68loPI   C5A 1083  15.131  11.882   8.446 -0.1913 -0.1803 -0.1063
   68loPI   C6A 1084  14.694  12.023   8.165 -0.1327  0.0343 -0.0100
   68loPI   C1B 1085  15.819  11.712   9.802  0.0676 -0.0121  0.3009
   68loPI   C2B 1086  15.932  11.820   9.374  0.2449  0.1391  0.0318
   68loPI   C3B 1087  15.808  11.859   9.026 -0.2427  0.0139 -0.0915
   68loPI   C4B 1088  15.897  11.812   8.596  0.4905 -0.0949  0.1833
   69loPI    C1 1089  10.586  10.796  10.978 -0.2989  0.0961  0.3581
   69loPI    C2 1090  10.915  10.575  11.033 -0.1146  0.1912 -0.2803
   69loPI    C3 1091  10.649  10.616  11.330  0.1883 -0.3095  0.0760
   69loPI   PO4 1092  10.714  10.925  10.697  0.0052  0.0872  0.0350
   69loPI   GL1 1093  10.817  10.849  10.231 -0.1989 -0.1968  0.2865
   69loPI   GL2 1094  10.785  10.630   9.984 -0.0786  0.2041 -0.3818
   69loPI   C1A 1095  11.108  11.058   9.951  0.1201 -0.3079 -0.1736
   69loPI   C2A 1096  11.109  11.142   9.525 -0.1524  0.1961  0.3415
   69loPI   C3A 1097  11.052  11.163   9.080 -0.0241  0.1234 -0.0898
   69loPI   C4A 1098  11.052  11.047   8.672 -0.1285 -0.0473 -0.0449
   69loPI   C5A 1099  10.965  11.227   8.295  0.1792  0.3678 -0.1499
   69loPI   C6A 1100  11.049  11.169   7.821  0.0984 -0.0539 -0.0407
   69loPI   C1B 1101  11.020  10.631   9.546  0.2386  0.3979  0.4299
   69loPI   C2B 1102  10.950  10.573   9.092  0.0297 -0.1113 -0.2099
   69loPI   C3B 1103  11.027  10.546   8.601  0.0344 -0.2767  0.0467
   69loPI   C4B 1104  10.934  10.763   8.193 -0.0048 -0.0558 -0.0017
   70loPI    C1 1105  14.987  11.174  11.215  0.0473  0.1736 -0.0888
   70loPI    C2 1106  15.287  11.432  11.273  0.1799 -0.0148  0.0767
   70loPI    C3 1107  15.044  11.336  11.576 -0.0386  0.1221 -0.0517
   70loPI   PO4 1108  14.865  11.225  11.096  0.0612 -0.2153  0.2190
   70loPI   GL1 1109  14.807  11.118  10.679 -0.0710 -0.1897 -0.2735
   70loPI   GL2 1110  14.665  11.423  10.666  0.3933  0.0974 -0.0528
   70loPI   C1A 1111  14.952  11.124  10.305  0.0058 -0.1923 -0.1449
   70loPI   C2A 1112  14.877  11.099   9.898  0.1252 -0.0579  0.0178
   70loPI   C3A 1113  14.701  11.003   9.556 -0.1379  0.2594 -0.4188
   70loPI   C4A 1114  14.689  10.945   9.132  0.2161  0.1642 -0.1057
   70loPI   C5A 1115  14.668  11.120   8.637  0.0308 -0.1420  0.0891
   70loPI   C6A 1116  14.490  11.003   8.254  0.1390 -0.0987 -0.2098
   70loPI   C1B 1117  14.783  11.576  10.275  0.0951  0.0500  0.0457
   70loPI   C2B 1118  14.744  11.545   9.842  0.1566  0.1356  0.2076
   70loPI   C3B 1119  14.879  11.498   9.488 -0.0095 -0.0271 -0.0086
   70loPI   C4B 1120  14.893  11.421   9.064  0.0421 -0.1217 -0.3661
   71loPI    C1 1121  18.142   0.325  10.564 -0.0612  0.0281 -0.1107
   71loPI    C2 1122  17.840   0.410  10.811 -0.0197 -0.0672 -0.0259
   71loPI    C3 1123  18.134   0.675  10.757  0.1298 -0.1685  0.2666
   71loPI   PO4 1124  18.071   0.213  10.263  0.0415  0.1861 -0.0186
   71loPI   GL1 1125  18.289   0.398   9.915 -0.1214  0.0508  0.3766
   71loPI   GL2 1126  18.171   0.198   9.634  0.0874 -0.1114  0.1974
   71loPI   C1A 1127  18.635   0.455   9.522  0.1303 -0.0034 -0.0265
   71loPI   C2A 1128  18.665   0.485   8.928  0.2081  0.3440  0.1337
   71loPI   C3A 1129  18.636   0.543   8.497 -0.0296 -0.0189 -0.3412
   71loPI   C4A 1130  18.602   0.572   8.189 -0.2098 -0.1704 -0.1690
   71loPI   C5A 1131  18.481   0.994   7.971 -0.1980  0.0544  0.1463
   71loPI   C6A 1132  18.397   1.376   7.857 -0.2211 -0.1427 -0.1001
   71loPI   C1B 1133  18.221   0.361   9.168 -0.2014  0.1316 -0.3881
   71loPI   C2B 1134  18.242   0.254   8.762  0.2867 -0.3372 -0.0119
   71loPI   C3B 1135  18.351   0.152   8.310  0.0249 -0.1165 -0.0254
   71loPI   C4B 1136  18.514  -0.007   7.922 -0.1551 -0.1723 -0.1224
   72loPI    C1 1137   1.538   0.607  10.609 -0.0201  0.1135 -0.1208
   72loPI    C2 1138   1.240   0.623  10.874  0.0216 -0.0473 -0.0630
   72loPI    C3 1139   1.513   0.914  10.863  0.1625 -0.1641  0.2418
   72loPI   PO4 1140   1.585   0.361  10.583  0.1535 -0.1108  0.1111
   72loPI   GL1 1141   1.530   0.011  10.234  0.1151  0.1104 -0.0289
   72loPI   GL2 1142   1.261   0.109  10.090 -0.1257 -0.2971 -0.1085
   72loPI   C1A 1143   1.531  -0.100   9.782 -0.1676 -0.4612 -0.3027
   72loPI   C2A 1144   1.622  -0.192   9.377 -0.1602 -0.2115 -0.1126
   72loPI   C3A 1145   1.655  -0.047   9.021 -0.4576  0.1153 -0.2438
   72loPI   C4A 1146   1.600   0.042   8.610  0.0830 -0.1286 -0.0615
   72loPI   C5A 1147   1.479   0.115   8.227  0.2054  0.0934  0.1282
   72loPI   C6A 1148   1.657   0.397   7.970  0.0170  0.1233  0.0074
   72loPI   C1B 1149   1.150   0.179   9.701 -0.1291  0.1416  0.1655
   72loPI   C2B 1150   1.260   0.188   9.307  0.2197  0.1270 -0.0282
   72loPI   C3B 1151   1.153   0.321   8.915 -0.2488  0.1025 -0.1284
   72loPI   C4B 1152   1.130   0.466   8.475 -0.2257 -0.2483  0.1385
   73loPI    C1 1153  17.440   1.371  10.755 -0.1179  0.2512  0.0593
   73loPI    C2 1154  17.753   1.482  10.978 -0.0903 -0.0623  0.1811
   73loPI    C3 1155  17.445   1.289  11.147 -0.1648 -0.1158 -0.0133
   73loPI   PO4 1156  17.546   1.370  10.501 -0.2290 -0.1356 -0.1927
   73loPI   GL1 1157  17.534   1.588  10.218  0.1916  0.2292 -0.1072
   73loPI   GL2 1158  17.177   1.580  10.180  0.0066  0.1235  0.0192
   73loPI   C1A 1159  17.806   1.416   9.808 -0.1482 -0.1850  0.1953
   73loPI   C2A 1160  17.790   1.237   9.305  0.0083  0.0147 -0.0346
   73loPI   C3A 1161  17.857   1.003   8.879 -0.0953  0.0245 -0.1050
   73loPI   C4A 1162  17.690   1.040   8.455  0.1085 -0.0272 -0.0752
   73loPI   C5A 1163  17.491   1.036   8.130 -0.3805  0.2766 -0.1824
   73loPI   C6A 1164  17.338   1.135   7.793 -0.1970  0.2094 -0.3242
   73loPI   C1B 1165  17.304   1.764   9.831  0.0544  0.0824  0.0583
   73loPI   C2B 1166  17.578   1.717   9.431 -0.0202 -0.0175 -0.2232
   73loPI   C3B 1167  17.555   1.628   9.026  0.3225 -0.0042  0.3703
   73loPI   C4B 1168  17.767   1.518   8.626 -0.1109  0.3263  0.6171
   74loPI    C1 1169   5.488  14.927  10.716 -0.0644 -0.1401  0.1260
   74loPI    C2 1170   5.516  14.681  11.030 -0.4114 -0.1507  0.1523
   74loPI    C3 1171   5.372  15.051  11.078 -0.1579 -0.0382  0.0618
   74loPI   PO4 1172   5.708  14.863  10.557  0.0721  0.1365 -0.3036
   74loPI   GL1 1173   5.594  14.619  10.150 -0.4758 -0.2538  0.2110
   74loPI   GL2 1174   5.634  14.923  10.064  0.0922 -0.0407  0.0630
   74loPI   C1A 1175   5.738  14.580   9.714  0.0357 -0.0435 -0.0930
   74loPI   C2A 1176   5.667  14.218   9.435  0.1083  0.1695  0.2347
   74loPI   C3A 1177   5.574  14.147   9.041 -0.1415 -0.0736 -0.3899
   74loPI   C4A 1178   5.686  14.114   8.653  0.1286 -0.1517  0.0912
   74loPI   C5A 1179   5.717  14.289   8.235 -0.0160  0.1199  0.2235
   74loPI   C6A 1180   5.529  14.568   7.846  0.1797  0.1510  0.3998
   74loPI   C1B 1181   5.307  15.098   9.902  0.1534 -0.1531  0.2291
   74loPI   C2B 1182   4.968  15.311   9.576  0.0576 -0.0537  0.1421
   74loPI   C3B 1183   4.928  15.365   9.135 -0.0579 -0.3501  0.0090
   74loPI   C4B 1184   5.052  15.272   8.688 -0.0751 -0.2210 -0.0595
   75loPI    C1 1185  11.270   5.000  10.880  0.0748 -0.0992 -0.0590
   75loPI    C2 1186  11.265   5.327  11.112  0.1861 -0.1054 -0.0475
   75loPI    C3 1187  11.086   4.991  11.235  0.0183 -0.0308 -0.0864
   75loPI   PO4 1188  11.535   4.960  10.745  0.2099  0.0978 -0.1570
   75loPI   GL1 1189  11.666   4.828  10.360  0.0807 -0.1684 -0.3297
   75loPI   GL2 1190  11.554   5.181  10.256 -0.2065 -0.2127  0.0348
   75loPI   C1A 1191  11.602   4.607   9.940  0.2651  0.0508 -0.2970
   75loPI   C2A 1192  11.672   4.762   9.501 -0.1535  0.1052 -0.0712
   75loPI   C3A 1193  11.693   4.767   9.035 -0.1415  0.4231  0.2661
   75loPI   C4A 1194  11.693   4.745   8.621 -0.2319 -0.3444 -0.0213
   75loPI   C5A 1195  11.898   4.851   8.222 -0.2746  0.3425 -0.2331
   75loPI   C6A 1196  12.144   5.166   8.004 -0.1438  0.0904  0.0827
   75loPI   C1B 1197  11.453   5.126   9.810 -0.2865  0.1405  0.0399
   75loPI   C2B 1198  11.333   5.222   9.351 -0.1509  0.0391  0.0403
   75loPI   C3B 1199  11.347   5.249   8.964 -0.0636 -0.3089 -0.0587
   75loPI   C4B 1200  11.316   5.156   8.632  0.1387  0.2435  0.0751
   76loPI    C1 1201  15.769   0.264  10.861  0.3559  0.1143  0.2712
   76loPI    C2 1202  15.889   0.637  10.943  0.0981  0.1917  0.3065
   76loPI    C3 1203  15.619   0.457  11.178  0.1635  0.0107  0.2451
   76loPI   PO4 1204  15.703   0.324  10.590  0.1394 -0.2164  0.5156
   76loPI   GL1 1205  15.809   0.384  10.129 -0.0528  0.0204 -0.2048
   76loPI   GL2 1206  16.048   0.149   9.958 -0.0215 -0.0593  0.0491
   76loPI   C1A 1207  15.594   0.729   9.863  0.2513 -0.1989  0.1832
   76loPI   C2A 1208  15.543   0.730   9.463 -0.2349 -0.1436 -0.2076
   76loPI   C3A 1209  15.446   0.459   9.185  0.2323  0.2022  0.1464
   76loPI   C4A 1210  15.222   0.394   8.816  0.1399  0.2927 -0.4440
   76loPI   C5A 1211  15.241   0.127   8.369  0.0670  0.0068 -0.0237
   76loPI   C6A 1212  15.431  -0.084   8.029 -0.1681  0.1158 -0.1666
   76loPI   C1B 1213  16.296   0.154   9.526  0.2192 -0.0665 -0.2244
   76loPI   C2B 1214  16.284   0.345   9.066 -0.0861  0.0290  0.1548
   76loPI   C3B 1215  16.272   0.489   8.618  0.4190  0.2224 -0.4248
   76loPI   C4B 1216  16.102   0.608   8.254 -0.3531  0.4245  0.2165
   77loPI    C1 1217   7.702  18.269  10.771  0.0511 -0.2408  0.2253
   77loPI    C2 1218   7.557  17.897  10.789 -0.4243 -0.0621  0.2546
   77loPI    C3 1219   7.517  18.142  11.102 -0.2263  0.0563  0.1894
   77loPI   PO4 1220   7.607  18.324  10.543 -0.2346  0.0129 -0.0002
   77loPI   GL1 1221   7.770  18.311  10.147  0.2373  0.2732  0.2651
   77loPI   GL2 1222   8.012  18.130  10.121  0.0626 -0.3708 -0.1098
   77loPI   C1A 1223   7.585  18.358   9.729  0.2849 -0.0144 -0.2752
   77loPI   C2A 1224   7.477  18.410   9.386 -0.1376  0.4004 -0.3002
   77loPI   C3A 1225   7.466  18.472   8.922  0.2430  0.4997 -0.0363
   77loPI   C4A 1226   7.526  18.441   8.529 -0.2006  0.1600  0.0328
   77loPI   C5A 1227   7.674  18.261   8.181  0.1708  0.1991 -0.2108
   77loPI   C6A 1228   7.734  17.888   8.045  0.1137 -0.1919  0.2392
   77loPI   C1B 1229   7.958  17.969   9.760 -0.3450 -0.0878 -0.2720
   77loPI   C2B 1230   7.883  18.043   9.409  0.0427 -0.0682  0.0698
   77loPI   C3B 1231   7.901  18.098   8.931 -0.1095  0.1592 -0.0415
   77loPI   C4B 1232   7.982  18.084   8.510 -0.1101  0.0063  0.1213
   78loPI    C1 1233  18.086  16.622  10.637  0.1734 -0.0289 -0.0364
   78loPI    C2 1234  18.044  16.535  11.025  0.1448  0.1323 -0.0024
   78loPI    C3 1235  18.409  16.584  10.869  0.1592 -0.0001 -0.0117
   78loPI   PO4 1236  17.877  16.861  10.680 -0.0809 -0.0592  0.1356
   78loPI   GL1 1237  17.726  16.920  10.385 -0.2116  0.0681  0.0753
   78loPI   GL2 1238  17.489  17.022  10.246  0.3341  0.1206 -0.1245
   78loPI   C1A 1239  17.725  16.686  10.027 -0.0220 -0.1124 -0.0010
   78loPI   C2A 1240  17.747  16.653   9.608 -0.1201  0.0439  0.2352
   78loPI   C3A 1241  17.711  16.603   9.140 -0.1123 -0.3473 -0.2045
   78loPI   C4A 1242  17.742  16.597   8.687 -0.3538 -0.0529  0.0426
   78loPI   C5A 1243  17.508  16.727   8.221 -0.1504 -0.0245 -0.1113
   78loPI   C6A 1244  17.324  16.924   7.856 -0.2074  0.0735  0.0599
   78loPI   C1B 1245  17.394  17.010   9.777  0.1787  0.3575  0.2104
   78loPI   C2B 1246  17.299  16.945   9.408  0.0695  0.0307 -0.0300
   78loPI   C3B 1247  17.285  17.004   9.038  0.2275 -0.0227 -0.1104
   78loPI   C4B 1248  17.313  17.000   8.612 -0.1552 -0.0635  0.3191
   79loPI    C1 1249   9.821  10.795  10.486 -0.2538  0.3900  0.0471
   79loPI    C2 1250  10.115  10.914  10.730 -0.1479  0.1718  0.0283
   79loPI    C3 1251   9.806  10.707  10.876  0.0349 -0.1696 -0.0578
   79loPI   PO4 1252   9.871  10.682  10.288  0.1101  0.0123 -0.1093
   79loPI   GL1 1253   9.560  10.679  10.064 -0.0356 -0.0051  0.3652
   79loPI   GL2 1254   9.393  10.906  10.232  0.0136 -0.1155 -0.0382
   79loPI   C1A 1255   9.618  10.645   9.546 -0.1427 -0.1743  0.2616
   79loPI   C2A 1256   9.622  10.727   9.076 -0.1266 -0.2807 -0.0269
   79loPI   C3A 1257   9.511  10.796   8.652  0.3030  0.1327 -0.1076
   79loPI   C4A 1258   9.278  10.664   8.289  0.2526  0.0086 -0.1576
   79loPI   C5A 1259   9.098  10.495   7.934  0.1081  0.0664  0.1501
   79loPI   C6A 1260   8.814  10.131   7.921  0.0210 -0.1204 -0.0649
   79loPI   C1B 1261   9.202  11.023   9.790 -0.1430 -0.0796 -0.0082
   79loPI   C2B 1262   9.214  10.989   9.333  0.1233  0.0408  0.0451
   79loPI   C3B 1263   9.121  11.065   8.870  0.0699 -0.1043 -0.1256
   79loPI   C4B 1264   9.080  11.082   8.417 -0.0615  0.0500  0.2009
   80loPI    C1 1265   7.525  12.265  11.153 -0.0566  0.1115  0.0347
   80loPI    C2 1266   7.827  12.356  11.399  0.0617 -0.2161  0.0161
   80loPI    C3 1267   7.450  12.363  11.534  0.1250 -0.3877  0.2077
   80loPI   PO4 1268   7.677  12.327  10.910 -0.3451  0.1195  0.0000
   80loPI   GL1 1269   7.522  12.398  10.551  0.0612 -0.3723 -0.0879
   80loPI   GL2 1270   7.349  12.596  10.453  0.0513 -0.0872 -0.0967
   80loPI   C1A 1271   7.767  12.446  10.159  0.1723  0.2055  0.5079
   80loPI   C2A 1272   7.727  12.525   9.757 -0.2364 -0.0017 -0.3107
   80loPI   C3A 1273   7.795  12.563   9.348  0.1858 -0.2724  0.2085
   80loPI   C4A 1274   7.647  12.540   8.966  0.2809 -0.0004  0.1050
   80loPI   C5A 1275   7.486  12.517   8.557 -0.0438  0.0734 -0.0526
   80loPI   C6A 1276   7.389  12.258   8.217  0.1891  0.0483  0.0347
   80loPI   C1B 1277   7.430  12.804  10.126 -0.1009  0.0184 -0.3477
   80loPI   C2B 1278   7.398  12.871   9.594  0.0115  0.1787 -0.3743
   80loPI   C3B 1279   7.362  12.907   9.250 -0.1108 -0.1990  0.0937
   80loPI   C4B 1280   7.155  12.891   8.847  0.0148 -0.1756  0.0669
   81loPI    C1 1281   8.823   3.884  10.706  0.1599 -0.1352  0.0152
   81loPI    C2 1282   8.757   3.729  10.343  0.1117  0.0631 -0.0623
   81loPI    C3 1283   8.791   3.488  10.661 -0.2697 -0.0889 -0.1318
   81loPI   PO4 1284   8.665   4.088  10.701 -0.0085 -0.0218 -0.0347
   81loPI   GL1 1285   8.468   4.263  10.338 -0.0534 -0.2995 -0.0542
   81loPI   GL2 1286   8.593   4.112  10.076  0.0502 -0.2027  0.0724
   81loPI   C1A 1287   8.206   4.337   9.852  0.1131 -0.0885  0.1655
   81loPI   C2A 1288   8.264   4.301   9.379 -0.1003  0.0280  0.1568
   81loPI   C3A 1289   8.156   4.264   8.925 -0.1658  0.0150 -0.0798
   81loPI   C4A 1290   8.216   4.269   8.537  0.3448 -0.0189 -0.0463
   81loPI   C5A 1291   8.397   4.159   8.076  0.3281 -0.0138 -0.1635
   81loPI   C6A 1292   8.667   4.429   7.916 -0.0187 -0.1250  0.0047
   81loPI   C1B 1293   8.725   4.368   9.703  0.0316 -0.0566  0.0219
   81loPI   C2B 1294   8.842   4.427   9.282 -0.1061 -0.0175  0.0063
   81loPI   C3B 1295   8.655   4.241   8.857  0.0233  0.0450 -0.3837
   81loPI   C4B 1296   8.729   4.271   8.414  0.0006 -0.0397 -0.1969
   82loPI    C1 1297   2.507   0.749  10.903 -0.0089 -0.1157 -0.1890
   82loPI    C2 1298   2.457   0.994  11.215 -0.0676 -0.0752 -0.2298
   82loPI    C3 1299   2.567   0.614  11.274  0.0432 -0.0342 -0.1674
   82loPI   PO4 1300   2.481   0.944  10.702  0.1676  0.1081 -0.0895
   82loPI   GL1 1301   2.247   0.894  10.352  0.3940 -0.0263  0.3365
   82loPI   GL2 1302   1.997   0.622  10.316  0.1522  0.2728  0.1330
   82loPI   C1A 1303   2.291   1.108   9.962 -0.0195  0.1947 -0.3471
   82loPI   C2A 1304   2.350   1.120   9.580 -0.4070 -0.1699  0.0079
   82loPI   C3A 1305   2.219   1.135   9.222  0.0859  0.1351 -0.1872
   82loPI   C4A 1306   2.223   1.266   8.729 -0.1858  0.1066  0.0205
   82loPI   C5A 1307   2.514   1.311   8.330  0.0731 -0.0950  0.1852
   82loPI   C6A 1308   2.557   1.379   7.794  0.1347 -0.0240  0.1751
   82loPI   C1B 1309   2.123   0.593   9.956 -0.2665 -0.0785  0.1644
   82loPI   C2B 1310   2.211   0.564   9.557  0.1334 -0.0962 -0.1333
   82loPI   C3B 1311   2.166   0.647   9.143 -0.1023 -0.1691  0.1895
   82loPI   C4B 1312   2.214   0.730   8.647 -0.2745 -0.0618  0.3095
   83loPI    C1 1313   3.469   8.730  10.843  0.1773 -0.0947  0.0792
   83loPI    C2 1314   3.124   8.530  10.805 -0.0289  0.2984 -0.2015
   83loPI    C3 1315   3.232   8.678  11.161 -0.0432 -0.0048 -0.0676
   83loPI   PO4 1316   3.487   8.927  10.655  0.0839  0.0056 -0.1502
   83loPI   GL1 1317   3.559   8.709  10.224 -0.2865  0.3575 -0.0177
   83loPI   GL2 1318   3.178   8.753  10.293  0.0763  0.0138 -0.2053
   83loPI   C1A 1319   3.375   8.355   9.993  0.3923  0.1486 -0.0052
   83loPI   C2A 1320   3.304   8.432   9.459 -0.1963 -0.2443 -0.0222
   83loPI   C3A 1321   3.169   8.470   9.059  0.0164  0.1088 -0.2056
   83loPI   C4A 1322   2.958   8.414   8.758 -0.2060 -0.1841 -0.0401
   83loPI   C5A 1323   2.962   8.710   8.395 -0.0474 -0.1015 -0.1535
   83loPI   C6A 1324   3.011   8.633   8.014 -0.1023  0.1060 -0.0245
   83loPI   C1B 1325   2.957   8.881  10.003 -0.1657  0.0537  0.0571
   83loPI   C2B 1326   3.045   8.906   9.645 -0.2351 -0.0371  0.2261
   83loPI   C3B 1327   3.050   8.921   9.269  0.0485 -0.0055  0.0116
   83loPI   C4B 1328   3.037   8.938   8.798  0.1090 -0.0187 -0.4458
   84loPI    C1 1329   6.896   7.066  10.810  0.1317 -0.0909  0.0258
   84loPI    C2 1330   6.505   7.124  10.871  0.1408  0.1288 -0.1144
   84loPI    C3 1331   6.734   7.426  10.742  0.3679  0.0159  0.0193
   84loPI   PO4 1332   6.939   6.808  10.748 -0.0561 -0.0539  0.1048
   84loPI   GL1 1333   6.997   6.666  10.399  0.0592  0.2116 -0.1710
   84loPI   GL2 1334   6.755   6.427  10.370  0.1745  0.1371 -0.0819
   84loPI   C1A 1335   7.004   6.645   9.918  0.1404 -0.0883 -0.0440
   84loPI   C2A 1336   7.114   6.661   9.494  0.1211  0.1169 -0.2958
   84loPI   C3A 1337   7.123   6.586   9.113  0.2463  0.0206 -0.0755
   84loPI   C4A 1338   7.044   6.486   8.716 -0.2946  0.0253 -0.0474
   84loPI   C5A 1339   6.789   6.432   8.371  0.2106 -0.1736  0.2624
   84loPI   C6A 1340   6.510   6.214   8.105  0.0211  0.0855 -0.2608
   84loPI   C1B 1341   6.735   6.228   9.968  0.0540 -0.0656  0.0253
   84loPI   C2B 1342   6.787   6.215   9.557  0.1280  0.1995 -0.2669
   84loPI   C3B 1343   6.845   6.131   9.170 -0.3182  0.1162 -0.1229
   84loPI   C4B 1344   6.769   6.050   8.790 -0.1017  0.2474  0.0982
   85loPI    C1 1345  13.466  17.978  11.013 -0.1390 -0.5401  0.3004
   85loPI    C2 1346  13.512  18.267  11.285 -0.0160 -0.0991 -0.1721
   85loPI    C3 1347  13.191  18.028  11.298 -0.1588  0.1046  0.1821
   85loPI   PO4 1348  13.711  17.879  10.997  0.0741  0.2904  0.2020
   85loPI   GL1 1349  13.807  17.747  10.515  0.0635  0.0641 -0.1326
   85loPI   GL2 1350  13.503  17.554  10.599 -0.1160  0.1108  0.0336
   85loPI   C1A 1351  13.920  17.762  10.183  0.0648 -0.0133  0.1408
   85loPI   C2A 1352  13.966  17.686   9.853  0.0426 -0.1828 -0.3973
   85loPI   C3A 1353  13.849  17.560   9.447 -0.1265  0.0855 -0.1234
   85loPI   C4A 1354  13.648  17.117   9.360 -0.2273 -0.0191 -0.0745
   85loPI   C5A 1355  13.910  16.845   9.156  0.0013 -0.0182 -0.1350
   85loPI   C6A 1356  14.140  16.875   8.820 -0.0202  0.0684 -0.1677
   85loPI   C1B 1357  13.510  17.539  10.182 -0.0949  0.1561  0.0008
   85loPI   C2B 1358  13.442  17.531   9.751 -0.1714 -0.0481 -0.0246
   85loPI   C3B 1359  13.353  17.612   9.349 -0.0695 -0.0131  0.0373
   85loPI   C4B 1360  13.509  17.507   8.922  0.4575 -0.0186 -0.1601
   86loPI    C1 1361   5.254  17.158  10.707 -0.0374  0.1092 -0.0326
   86loPI    C2 1362   5.063  16.811  10.652 -0.1333  0.1454  0.0688
   86loPI    C3 1363   5.299  16.861  10.971  0.1331  0.0633 -0.1123
   86loPI   PO4 1364   5.428  17.241  10.467 -0.1025 -0.0047  0.1855
   86loPI   GL1 1365   5.299  17.379  10.052 -0.3099 -0.0964 -0.1422
   86loPI   GL2 1366   5.020  17.568  10.026 -0.0658  0.0236 -0.0779
   86loPI   C1A 1367   5.559  17.676   9.727  0.0750  0.2430  0.3529
   86loPI   C2A 1368   5.563  17.605   9.277 -0.0507 -0.1585  0.2903
   86loPI   C3A 1369   5.551  17.589   8.835  0.0576  0.1382  0.1934
   86loPI   C4A 1370   5.576  17.584   8.424 -0.1971 -0.4708 -0.0584
   86loPI   C5A 1371   5.461  17.496   8.003  0.1766 -0.3639  0.0588
   86loPI   C6A 1372   5.176  17.266   7.775 -0.0048 -0.0058  0.0513
   86loPI   C1B 1373   5.094  17.466   9.598  0.2170  0.1130  0.0184
   86loPI   C2B 1374   5.093  17.428   9.163 -0.0563  0.1648 -0.2889
   86loPI   C3B 1375   5.141  17.257   8.849 -0.3905  0.1045 -0.0138
   86loPI   C4B 1376   5.147  17.276   8.343  0.1011 -0.1455  0.0195
   87loPI    C1 1377  14.415   5.651  11.011 -0.0893 -0.0286  0.1546
   87loPI    C2 1378  14.795   5.742  11.099 -0.0622 -0.0538  0.0648
   87loPI    C3 1379  14.501   5.850  11.348 -0.0074  0.0673  0.0779
   87loPI   PO4 1380  14.431   5.738  10.771 -0.0176 -0.2330 -0.2931
   87loPI   GL1 1381  14.387   5.918  10.351  0.2143  0.0102 -0.1075
   87loPI   GL2 1382  14.540   6.167  10.364  0.2330  0.0224  0.3414
   87loPI   C1A 1383  14.066   6.147  10.266  0.2443  0.1372 -0.2210
   87loPI   C2A 1384  13.675   6.241  10.190 -0.0540  0.0095  0.8148
   87loPI   C3A 1385  13.576   6.121   9.714 -0.0793 -0.2298 -0.2013
   87loPI   C4A 1386  13.500   6.116   9.396  0.3262 -0.2556 -0.0134
   87loPI   C5A 1387  13.486   6.253   8.939  0.3503  0.1717 -0.0751
   87loPI   C6A 1388  13.494   6.143   8.502  0.0711  0.0057 -0.0114
   87loPI   C1B 1389  14.468   6.350   9.908  0.0602  0.0754  0.0425
   87loPI   C2B 1390  14.462   6.306   9.412  0.4029  0.0978  0.3051
   87loPI   C3B 1391  14.397   6.356   8.913  0.0149  0.2065  0.1375
   87loPI   C4B 1392  14.273   6.287   8.493 -0.1162 -0.2726  0.3814
   88loPI    C1 1393  -0.179   8.432  11.383 -0.0829 -0.0736 -0.1126
   88loPI    C2 1394   0.100   8.278  11.625 -0.0455  0.1529 -0.0092
   88loPI    C3 1395   0.132   8.656  11.498 -0.3060  0.1821  0.0053
   88loPI   PO4 1396  -0.207   8.258  11.185  0.1043 -0.0383 -0.0287
   88loPI   GL1 1397  -0.179   8.063  10.867  0.2016 -0.3813 -0.4238
   88loPI   GL2 1398  -0.105   7.848  10.618  0.0165  0.3605  0.1534
   88loPI   C1A 1399  -0.528   8.105  10.564 -0.1223  0.0531  0.1224
   88loPI   C2A 1400  -0.531   8.290  10.214 -0.2745  0.2952 -0.0089
   88loPI   C3A 1401  -0.554   8.353   9.707 -0.1656  0.1989 -0.0126
   88loPI   C4A 1402  -0.549   8.374   9.227 -0.0178 -0.2538  0.1851
   88loPI   C5A 1403  -0.417   8.569   8.838  0.3040 -0.0440  0.1609
   88loPI   C6A 1404  -0.330   8.647   8.395 -0.2316 -0.2625  0.5536
   88loPI   C1B 1405  -0.064   8.137  10.296 -0.1358  0.0312  0.0063
   88loPI   C2B 1406  -0.066   8.142   9.921  0.2321  0.2165 -0.1901
   88loPI   C3B 1407  -0.119   8.111   9.411  0.0385 -0.0740  0.2738
   88loPI   C4B 1408  -0.027   8.224   9.047 -0.1118  0.1637  0.1223
   89loPI    C1 1409   0.117   6.353  10.841  0.0680  0.0462 -0.2187
   89loPI    C2 1410   0.472   6.408  11.017 -0.1378 -0.0541  0.2458
   89loPI    C3 1411   0.328   6.683  10.765  0.2309  0.0228  0.1133
   89loPI   PO4 1412   0.078   6.206  10.795 -0.2351 -0.1000  0.1595
   89loPI   GL1 1413   0.024   6.100  10.408  0.0331 -0.0285  0.1852
   89loPI   GL2 1414   0.195   6.397  10.328 -0.1810  0.2705  0.4341
   89loPI   C1A 1415  -0.283   6.150  10.068  0.0099  0.4293  0.1274
   89loPI   C2A 1416  -0.551   5.984   9.748 -0.6957 -0.0734 -0.1827
   89loPI   C3A 1417  -0.640   5.999   9.385 -0.1172  0.1722  0.1355
   89loPI   C4A 1418  -0.690   6.001   8.914  0.3436 -0.2315 -0.0995
   89loPI   C5A 1419  -0.736   6.033   8.472  0.1789 -0.2738  0.1287
   89loPI   C6A 1420  -0.690   5.853   8.080  0.1308 -0.2004  0.1667
   89loPI   C1B 1421   0.093   6.628   9.918 -0.0668 -0.1501 -0.2016
   89loPI   C2B 1422   0.095   6.652   9.431  0.3415 -0.0801  0.1725
   89loPI   C3B 1423   0.195   6.727   9.027  0.0371 -0.0892  0.0885
   89loPI   C4B 1424   0.227   6.795   8.614 -0.0590 -0.1026 -0.0559
   90loPI    C1 1425  11.447  11.838  11.025  0.1795 -0.0165  0.1030
   90loPI    C2 1426  11.171  11.669  11.259  0.0388  0.1044  0.0257
   90loPI    C3 1427  11.181  12.067  11.217  0.2450  0.1030  0.0528
   90loPI   PO4 1428  11.441  11.706  10.841  0.1646 -0.2310  0.0510
   90loPI   GL1 1429  11.534  11.866  10.425  0.0476 -0.0667 -0.0468
   90loPI   GL2 1430  11.404  11.633  10.213 -0.0962  0.3068  0.0521
   90loPI   C1A 1431  11.856  12.291  10.195 -0.1197 -0.2127  0.2990
   90loPI   C2A 1432  11.898  12.367   9.729  0.3012 -0.1809  0.0846
   90loPI   C3A 1433  11.868  12.393   9.205  0.1338  0.1229 -0.2559
   90loPI   C4A 1434  11.857  12.413   8.765 -0.0922  0.0370  0.0410
   90loPI   C5A 1435  11.701  12.233   8.379  0.0220 -0.2372  0.1887
   90loPI   C6A 1436  11.363  12.139   8.274 -0.0799  0.2294 -0.1149
   90loPI   C1B 1437  11.188  11.584   9.824  0.0293  0.2151  0.2779
   90loPI   C2B 1438  11.208  11.733   9.389  0.2329  0.1265  0.0098
   90loPI   C3B 1439  11.241  11.701   8.954  0.0031  0.0749 -0.0379
   90loPI   C4B 1440  11.082  11.807   8.481 -0.2698 -0.4435  0.2859
   91loPI    C1 1441  15.804  13.931  11.047 -0.2451  0.1063 -0.0671
   91loPI    C2 1442  16.018  13.741  11.327 -0.0169  0.1784 -0.1901
   91loPI    C3 1443  15.731  13.999  11.434 -0.0249  0.1012 -0.0235
   91loPI   PO4 1444  15.742  13.703  10.859 -0.1723  0.1728 -0.0402
   91loPI   GL1 1445  15.703  13.654  10.522 -0.1305 -0.1534 -0.0653
   91loPI   GL2 1446  16.017  13.500  10.448  0.2254  0.0938 -0.0375
   91loPI   C1A 1447  15.726  13.698  10.076  0.1216 -0.0201  0.1607
   91loPI   C2A 1448  15.677  13.676   9.543  0.1393 -0.1125 -0.0312
   91loPI   C3A 1449  15.705  13.706   9.139  0.4541  0.1010 -0.1887
   91loPI   C4A 1450  15.704  13.590   8.703  0.1209 -0.1272  0.1547
   91loPI   C5A 1451  15.792  13.363   8.397  0.0969 -0.1395  0.0522
   91loPI   C6A 1452  15.680  12.966   8.113 -0.1950  0.1882  0.0632
   91loPI   C1B 1453  16.021  13.265  10.050 -0.1827  0.1725 -0.0892
   91loPI   C2B 1454  16.035  13.284   9.706  0.2425 -0.1024  0.0108
   91loPI   C3B 1455  16.093  13.311   9.303 -0.0028 -0.0921 -0.0842
   91loPI   C4B 1456  16.198  13.242   8.920 -0.1412 -0.0796 -0.1734
   92loPI    C1 1457   5.601  16.766  10.637 -0.0813 -0.1601 -0.0282
   92loPI    C2 1458   5.963  16.606  10.695 -0.0224 -0.0527 -0.0971
   92loPI    C3 1459   5.651  16.480  10.912  0.0675 -0.1051  0.0025
   92loPI   PO4 1460   5.540  16.740  10.419  0.2787 -0.0305  0.2145
   92loPI   GL1 1461   5.726  16.571  10.085 -0.1903 -0.0147  0.1511
   92loPI   GL2 1462   6.043  16.580  10.144  0.0459 -0.0266  0.3362
   92loPI   C1A 1463   5.494  16.657   9.681 -0.2166  0.1736  0.0803
   92loPI   C2A 1464   5.450  16.555   9.201  0.0904  0.0087  0.0955
   92loPI   C3A 1465   5.506  16.533   8.756  0.2370  0.0149  0.0872
   92loPI   C4A 1466   5.441  16.560   8.351 -0.0858  0.1403 -0.1442
   92loPI   C5A 1467   5.524  16.522   7.949  0.0500 -0.0943  0.0174
   92loPI   C6A 1468   5.516  16.450   7.524  0.0604  0.1238 -0.0136
   92loPI   C1B 1469   5.993  16.796   9.723 -0.1404  0.0266  0.0772
   92loPI   C2B 1470   5.854  16.771   9.299  0.1945  0.2625  0.1066
   92loPI   C3B 1471   5.973  16.811   8.818 -0.1489 -0.1507  0.0872
   92loPI   C4B 1472   5.957  16.805   8.425 -0.2837 -0.3246 -0.3171
   93loPI    C1 1473  10.221   4.979  10.755 -0.1064  0.0001 -0.0721
   93loPI    C2 1474  10.032   5.324  10.683  0.0602  0.1522  0.1997
   93loPI    C3 1475  10.342   5.315  10.936  0.0826 -0.1913  0.1651
   93loPI   PO4 1476  10.273   4.893  10.535  0.3430 -0.1694 -0.2735
   93loPI   GL1 1477  10.062   4.947  10.255  0.2045  0.0461 -0.3011
   93loPI   GL2 1478  10.313   5.120  10.014  0.0522 -0.0066  0.0253
   93loPI   C1A 1479  10.051   4.771   9.794 -0.1104  0.0518 -0.0038
   93loPI   C2A 1480  10.124   4.751   9.333  0.0062 -0.1188  0.0053
   93loPI   C3A 1481  10.073   4.794   8.848 -0.2160  0.2464 -0.1418
   93loPI   C4A 1482   9.941   4.697   8.388 -0.2063 -0.2343 -0.1443
   93loPI   C5A 1483   9.949   4.660   7.913  0.0526 -0.0213  0.0176
   93loPI   C6A 1484  10.234   4.751   7.625 -0.0157 -0.0171  0.2641
   93loPI   C1B 1485  10.359   5.180   9.542 -0.1314  0.0292  0.1831
   93loPI   C2B 1486  10.384   5.176   9.049 -0.0431 -0.1240 -0.1615
   93loPI   C3B 1487  10.282   5.147   8.566 -0.2032 -0.0447 -0.2108
   93loPI   C4B 1488  10.358   4.962   8.135 -0.0934  0.1235 -0.1349
   94loPI    C1 1489   6.249  18.040  10.628  0.0428  0.0307  0.0874
   94loPI    C2 1490   6.086  18.321  10.862 -0.0496 -0.0432  0.1121
   94loPI    C3 1491   6.352  18.064  11.014  0.1089  0.0923  0.0662
   94loPI   PO4 1492   6.049  18.032  10.442  0.0549 -0.1391 -0.1632
   94loPI   GL1 1493   6.032  17.861  10.035  0.3319  0.3739 -0.0395
   94loPI   GL2 1494   6.303  17.663   9.880 -0.0869  0.2849  0.1873
   94loPI   C1A 1495   5.993  17.874   9.561  0.0733  0.0016  0.0171
   94loPI   C2A 1496   5.989  17.820   9.173 -0.1294 -0.2063  0.0836
   94loPI   C3A 1497   6.040  17.880   8.724 -0.2670 -0.0554 -0.0417
   94loPI   C4A 1498   5.946  17.918   8.306 -0.1380 -0.2320  0.1967
   94loPI   C5A 1499   5.846  17.754   7.925  0.0975  0.0887 -0.2012
   94loPI   C6A 1500   5.829  17.883   7.529 -0.2614 -0.0042 -0.0006
   94loPI   C1B 1501   6.459  17.518   9.522 -0.0637 -0.1261 -0.1769
   94loPI   C2B 1502   6.431  17.547   9.142  0.1543  0.2295  0.0575
   94loPI   C3B 1503   6.435  17.540   8.659 -0.0013 -0.3816 -0.0771
   94loPI   C4B 1504   6.469  17.697   8.186 -0.1893  0.2912  0.0948
   95loPI    C1 1505  11.784   3.151  10.711  0.1129 -0.0227  0.0247
   95loPI    C2 1506  11.835   3.345  11.057 -0.0396 -0.1916  0.1434
   95loPI    C3 1507  12.022   3.472  10.727  0.0585  0.0068  0.2737
   95loPI   PO4 1508  11.548   3.196  10.552  0.1798  0.5308 -0.0085
   95loPI   GL1 1509  11.415   3.076  10.296  0.0287 -0.0934 -0.1142
   95loPI   GL2 1510  11.105   3.085  10.150 -0.1476 -0.0383 -0.2191
   95loPI   C1A 1511  11.643   3.091   9.926 -0.0529 -0.0689 -0.0243
   95loPI   C2A 1512  11.672   3.134   9.460  0.0594 -0.4415 -0.2289
   95loPI   C3A 1513  11.527   3.042   9.107  0.1298  0.1789  0.0676
   95loPI   C4A 1514  11.541   3.037   8.570 -0.0634  0.0264 -0.3576
   95loPI   C5A 1515  11.542   2.948   8.176 -0.1063  0.2122  0.3089
   95loPI   C6A 1516  11.402   3.026   7.797 -0.2580 -0.0535  0.1040
   95loPI   C1B 1517  10.924   3.412   9.815  0.0160  0.0048  0.1634
   95loPI   C2B 1518  10.768   3.513   9.375 -0.0374 -0.0851 -0.3483
   95loPI   C3B 1519  10.710   3.807   9.017 -0.1028  0.3272  0.0368
   95loPI   C4B 1520  10.516   3.886   8.585 -0.1594 -0.1911  0.1723
   96loPI    C1 1521   0.836  12.527  11.193  0.0599  0.0678  0.0568
   96loPI    C2 1522   0.921  12.904  11.298  0.1302  0.0174  0.1826
   96loPI    C3 1523   0.643  12.698  11.499 -0.0782  0.0808 -0.0368
   96loPI   PO4 1524   0.801  12.515  10.945 -0.2947 -0.0175 -0.0910
   96loPI   GL1 1525   0.812  12.687  10.414 -0.0915  0.1438 -0.1740
   96loPI   GL2 1526   0.538  12.713  10.530  0.2284  0.0185  0.0684
   96loPI   C1A 1527   0.911  12.801   9.933 -0.2491  0.0540 -0.1141
   96loPI   C2A 1528   0.861  12.831   9.482  0.2804 -0.1307 -0.0862
   96loPI   C3A 1529   0.832  12.834   8.989 -0.1204 -0.2068 -0.0525
   96loPI   C4A 1530   1.024  12.822   8.454 -0.1404  0.0839  0.0544
   96loPI   C5A 1531   0.968  12.879   8.037 -0.4839  0.1700 -0.0960
   96loPI   C6A 1532   0.532  13.071   7.816 -0.0902  0.3167  0.1542
   96loPI   C1B 1533   0.432  12.587  10.079 -0.2977 -0.0720 -0.1251
   96loPI   C2B 1534   0.390  12.663   9.623 -0.0774 -0.0347  0.1596
   96loPI   C3B 1535   0.346  12.744   9.195 -0.4580  0.3097 -0.0774
   96loPI   C4B 1536   0.317  12.725   8.790  0.0430  0.0162  0.0541
   97loPI    C1 1537  14.546  10.653  11.459  0.0956  0.1581 -0.1776
   97loPI    C2 1538  14.679  10.940  11.704  0.1100  0.0204 -0.0228
   97loPI    C3 1539  14.413  10.671  11.836  0.0428  0.0049 -0.1882
   97loPI   PO4 1540  14.592  10.808  11.205  0.2522  0.0065  0.0758
   97loPI   GL1 1541  14.445  10.726  10.688  0.0095  0.2736  0.1491
   97loPI   GL2 1542  14.308  10.455  10.538 -0.0637  0.0929  0.2434
   97loPI   C1A 1543  14.490  10.834  10.277  0.0068 -0.2676 -0.0417
   97loPI   C2A 1544  14.277  10.735   9.825  0.0924  0.1310 -0.2359
   97loPI   C3A 1545  14.270  10.786   9.314  0.1226  0.1253 -0.0292
   97loPI   C4A 1546  14.255  10.887   8.864  0.0082  0.1189  0.2969
   97loPI   C5A 1547  14.188  10.656   8.394  0.5324  0.1137 -0.3233
   97loPI   C6A 1548  14.097  10.610   7.988 -0.1264 -0.0871  0.2201
   97loPI   C1B 1549  14.379  10.321  10.118 -0.0655  0.4097 -0.3006
   97loPI   C2B 1550  14.308  10.196   9.725  0.2133 -0.0987 -0.0155
   97loPI   C3B 1551  14.353  10.281   9.257  0.1012  0.0395 -0.2132
   97loPI   C4B 1552  14.098  10.391   8.854  0.0094  0.3613 -0.0844
   98loPI    C1 1553   5.033   9.258  10.849 -0.1079 -0.2115  0.2892
   98loPI    C2 1554   5.236   9.599  10.801  0.0571 -0.3656 -0.1574
   98loPI    C3 1555   5.134   9.477  11.168  0.0179  0.1469  0.0097
   98loPI   PO4 1556   5.209   8.992  10.681  0.2478  0.2808  0.0935
   98loPI   GL1 1557   5.370   8.916  10.314 -0.1474 -0.2101 -0.2780
   98loPI   GL2 1558   5.265   9.342  10.300 -0.1271 -0.1760  0.1146
   98loPI   C1A 1559   5.190   8.584  10.082 -0.1068 -0.0272  0.0918
   98loPI   C2A 1560   5.120   8.671   9.688  0.0793 -0.5040 -0.0227
   98loPI   C3A 1561   5.163   8.678   9.347  0.1903 -0.1031  0.0449
   98loPI   C4A 1562   5.266   8.690   8.956  0.1251 -0.1110 -0.1220
   98loPI   C5A 1563   5.129   8.857   8.577  0.0394  0.0763 -0.0895
   98loPI   C6A 1564   5.335   8.797   8.073  0.1302 -0.1499 -0.1975
   98loPI   C1B 1565   5.293   9.383   9.828  0.0585 -0.0361 -0.1458
   98loPI   C2B 1566   5.217   9.505   9.445 -0.0006 -0.0247  0.1346
   98loPI   C3B 1567   5.393   9.590   9.008  0.1992  0.3880  0.0179
   98loPI   C4B 1568   5.473   9.495   8.603  0.1452  0.1995 -0.0503
   99loPI    C1 1569  12.774   1.963  10.974  0.0781  0.0171 -0.1130
   99loPI    C2 1570  13.010   1.650  11.056  0.0608  0.0474  0.0552
   99loPI    C3 1571  12.738   1.772  11.323  0.1576  0.2885  0.0466
   99loPI   PO4 1572  12.641   1.966  10.749  0.1546  0.2354  0.1738
   99loPI   GL1 1573  12.618   2.013  10.250  0.1707 -0.0324  0.0050
   99loPI   GL2 1574  12.670   2.294  10.365  0.1856 -0.0342  0.0495
   99loPI   C1A 1575  12.448   1.865   9.835 -0.2579  0.3362 -0.1666
   99loPI   C2A 1576  12.328   1.759   9.393 -0.0750  0.1075 -0.0899
   99loPI   C3A 1577  12.037   1.669   8.989 -0.1585 -0.0893  0.3255
   99loPI   C4A 1578  12.087   1.770   8.563  0.2532  0.1025 -0.3206
   99loPI   C5A 1579  11.914   1.922   8.162 -0.4112 -0.3708  0.2497
   99loPI   C6A 1580  11.540   2.020   8.085 -0.0412 -0.0716  0.2108
   99loPI   C1B 1581  12.861   2.481   9.944  0.1667  0.2867  0.0472
   99loPI   C2B 1582  12.578   2.639   9.609 -0.1616  0.0472  0.1113
   99loPI   C3B 1583  12.556   2.472   9.195  0.2322  0.0415  0.3074
   99loPI   C4B 1584  12.252   2.372   8.837  0.2451 -0.1642 -0.0674
  100loPI    C1 1585   3.521  10.508  10.463 -0.1471 -0.2774  0.0093
  100loPI    C2 1586   3.240  10.614  10.728  0.0258 -0.0529  0.1065
  100loPI    C3 1587   3.344  10.230  10.690 -0.0129 -0.0890  0.3522
  100loPI   PO4 1588   3.371  10.649  10.264  0.0143 -0.0588 -0.0156
  100loPI   GL1 1589   3.143  10.914   9.922 -0.0306 -0.1669  0.1719
  100loPI   GL2 1590   2.892  10.856   9.791  0.0561  0.0208  0.0982
  100loPI   C1A 1591   3.311  10.811   9.583  0.0412  0.0274 -0.1807
  100loPI   C2A 1592   3.300  10.796   9.127 -0.5121  0.0330  0.0082
  100loPI   C3A 1593   3.398  10.928   8.634 -0.1165  0.0734 -0.1604
  100loPI   C4A 1594   3.637  11.040   8.275 -0.0164 -0.1950 -0.1417
  100loPI   C5A 1595   3.739  11.339   7.923  0.2710 -0.0274 -0.1103
  100loPI   C6A 1596   3.557  11.683   7.844 -0.0679 -0.3433 -0.1442
  100loPI   C1B 1597   2.826  10.886   9.320  0.0765  0.1645  0.1447
  100loPI   C2B 1598   2.740  10.750   8.924  0.0943  0.0757  0.4451
  100loPI   C3B 1599   2.347  10.575   8.853 -0.0381 -0.0763  0.2851
  100loPI   C4B 1600   1.940  10.406   8.678 -0.2392  0.1792 -0.0776
  101loPI    C1 1601  13.059   9.095  10.978  0.0642  0.1628 -0.0217
  101loPI    C2 1602  13.319   9.394  11.038  0.0338  0.1508  0.1775
  101loPI    C3 1603  13.062   9.291  11.327 -0.0827  0.0547  0.0413
  101loPI   PO4 1604  13.021   9.069  10.727 -0.1800 -0.1026 -0.0686
  101loPI   GL1 1605  13.308   8.933  10.477  0.1024  0.0026 -0.0109
  101loPI   GL2 1606  13.073   8.782  10.374  0.1820  0.2212  0.2113
  101loPI   C1A 1607  13.623   8.657  10.268 -0.1248  0.1099 -0.3390
  101loPI   C2A 1608  13.641   8.571   9.873 -0.1552 -0.0799 -0.1724
  101loPI   C3A 1609  13.707   8.499   9.474  0.0499  0.0329  0.0471
  101loPI   C4A 1610  13.792   8.604   8.987  0.3139  0.0849 -0.4133
  101loPI   C5A 1611  13.760   8.624   8.609  0.1462 -0.1642 -0.1021
  101loPI   C6A 1612  13.831   8.804   8.186  0.1472 -0.0007 -0.1300
  101loPI   C1B 1613  13.167   8.790  10.008  0.2090 -0.0958  0.2176
  101loPI   C2B 1614  13.219   8.753   9.597 -0.2001  0.0937  0.0251
  101loPI   C3B 1615  13.247   8.743   9.110  0.2686  0.0771 -0.2943
  101loPI   C4B 1616  13.367   9.027   8.822  0.2628  0.1358  0.1916
  102loPI    C1 1617  11.978  17.874  11.049 -0.0226 -0.1741  0.0084
  102loPI    C2 1618  12.348  17.743  11.127  0.0180 -0.1824 -0.1927
  102loPI    C3 1619  12.032  17.527  11.240  0.0743 -0.1829 -0.0341
  102loPI   PO4 1620  11.955  17.907  10.740  0.1410 -0.2944 -0.0671
  102loPI   GL1 1621  11.943  17.688  10.377 -0.1296 -0.1819  0.0669
  102loPI   GL2 1622  11.557  17.815  10.411 -0.0023  0.4164  0.2691
  102loPI   C1A 1623  11.885  17.793   9.961  0.2144  0.2653  0.0654
  102loPI   C2A 1624  11.834  17.614   9.537  0.1133  0.4765 -0.1045
  102loPI   C3A 1625  11.587  17.432   9.165  0.3057  0.2355  0.3121
  102loPI   C4A 1626  11.414  17.377   8.768 -0.1574 -0.3888 -0.1961
  102loPI   C5A 1627  11.020  17.215   8.517 -0.1880 -0.0864  0.1033
  102loPI   C6A 1628  10.893  16.897   8.171  0.0544 -0.0600 -0.0026
  102loPI   C1B 1629  11.415  17.870  10.003  0.2462  0.0068  0.2447
  102loPI   C2B 1630  11.352  17.683   9.581  0.1284  0.2125 -0.0570
  102loPI   C3B 1631  11.150  17.394   9.282  0.1633  0.4268 -0.1854
  102loPI   C4B 1632  10.988  17.247   8.972 -0.2189  0.1615 -0.0990
  103loPI    C1 1633   6.311  16.180  10.637  0.0190 -0.1583 -0.0152
  103loPI    C2 1634   6.166  15.851  10.813 -0.1776 -0.0133  0.0977
  103loPI    C3 1635   6.114  16.209  10.984 -0.2483  0.1142 -0.1847
  103loPI   PO4 1636   6.182  16.155  10.405  0.0281 -0.1939  0.0407
  103loPI   GL1 1637   6.424  16.259  10.030  0.2088 -0.1382 -0.0173
  103loPI   GL2 1638   6.708  16.214  10.126 -0.1143 -0.6826  0.3012
  103loPI   C1A 1639   6.360  16.318   9.632  0.2197  0.0764 -0.1487
  103loPI   C2A 1640   6.285  16.543   9.304  0.0012 -0.1010 -0.3349
  103loPI   C3A 1641   6.383  16.491   8.846  0.1343 -0.0947 -0.0902
  103loPI   C4A 1642   6.369  16.436   8.430 -0.0200 -0.1198 -0.1409
  103loPI   C5A 1643   6.371  16.510   8.086 -0.2848  0.3540 -0.0645
  103loPI   C6A 1644   6.569  16.604   7.707  0.2673  0.2808  0.2700
  103loPI   C1B 1645   6.761  16.082   9.582 -0.2463 -0.1243  0.4647
  103loPI   C2B 1646   6.699  16.203   9.074  0.0943  0.3038 -0.1294
  103loPI   C3B 1647   6.761  16.157   8.654  0.0838 -0.1525  0.0366
  103loPI   C4B 1648   6.789  16.115   8.235 -0.0703 -0.0645  0.1096
  104loPI    C1 1649   6.637   4.516  10.883 -0.0472  0.2273  0.1462
  104loPI    C2 1650   6.754   4.233  11.140 -0.2375  0.0857  0.0785
  104loPI    C3 1651   6.954   4.579  11.120  0.0061 -0.0486  0.1507
  104loPI   PO4 1652   6.571   4.417  10.607  0.3563 -0.1570 -0.1136
  104loPI   GL1 1653   6.437   4.164  10.307 -0.0566  0.2375 -0.1673
  104loPI   GL2 1654   6.407   3.836  10.357 -0.1058 -0.0962 -0.2390
  104loPI   C1A 1655   6.331   4.087   9.902 -0.0591  0.0773 -0.1569
  104loPI   C2A 1656   6.286   3.994   9.482 -0.1432  0.1699 -0.0051
  104loPI   C3A 1657   6.280   3.904   8.985  0.0395 -0.1215 -0.2255
  104loPI   C4A 1658   6.231   3.938   8.530 -0.1600  0.0181 -0.2150
  104loPI   C5A 1659   6.330   3.773   8.126 -0.0044  0.1087  0.2318
  104loPI   C6A 1660   6.435   3.568   7.642 -0.3122  0.2851 -0.1724
  104loPI   C1B 1661   6.544   3.681   9.977  0.2871  0.2450 -0.1492
  104loPI   C2B 1662   6.573   3.553   9.493  0.3557  0.0750  0.1852
  104loPI   C3B 1663   6.599   3.587   9.078 -0.1250  0.0003 -0.2310
  104loPI   C4B 1664   6.416   3.398   8.686 -0.1187  0.0718 -0.0637
  105loPI    C1 1665  16.599  16.200  10.805  0.2225  0.0543 -0.0380
  105loPI    C2 1666  16.549  15.908  11.073  0.1897  0.0420 -0.0575
  105loPI    C3 1667  16.529  16.290  11.188 -0.0888  0.0393 -0.0889
  105loPI   PO4 1668  16.672  16.077  10.613  0.1425  0.1037  0.3747
  105loPI   GL1 1669  17.086  16.170  10.385 -0.1820  0.2318 -0.4137
  105loPI   GL2 1670  16.799  16.288  10.238 -0.4823 -0.1873  0.1890
  105loPI   C1A 1671  17.118  15.982  10.000  0.2047  0.1187  0.0120
  105loPI   C2A 1672  17.091  16.027   9.592  0.0262 -0.3922  0.0930
  105loPI   C3A 1673  17.034  15.951   9.139 -0.0854 -0.3179 -0.0501
  105loPI   C4A 1674  17.085  16.034   8.749  0.0058  0.0647  0.1277
  105loPI   C5A 1675  17.106  15.895   8.363 -0.0699 -0.3575  0.0539
  105loPI   C6A 1676  17.068  15.669   8.000  0.2779 -0.1713 -0.0505
  105loPI   C1B 1677  16.702  16.293   9.784 -0.3503  0.0607 -0.0396
  105loPI   C2B 1678  16.641  16.253   9.272 -0.2900 -0.1022  0.1585
  105loPI   C3B 1679  16.708  16.314   8.899 -0.1626 -0.2113  0.5035
  105loPI   C4B 1680  16.652  16.410   8.516  0.1411 -0.1658 -0.0280
  106loPI    C1 1681   2.637   7.157  11.209  0.1936 -0.0031  0.0055
  106loPI    C2 1682   2.700   6.961  11.551 -0.1463  0.1166  0.1414
  106loPI    C3 1683   2.649   7.358  11.554 -0.0298  0.1345 -0.0639
  106loPI   PO4 1684   2.842   6.996  11.061 -0.0057  0.2488  0.2119
  106loPI   GL1 1685   2.949   6.987  10.545 -0.1418  0.2862  0.1019
  106loPI   GL2 1686   3.014   6.617  10.384  0.1342 -0.1732  0.1017
  106loPI   C1A 1687   3.284   7.027  10.259  0.1606  0.1036 -0.1478
  106loPI   C2A 1688   3.392   6.986   9.885  0.1170 -0.1183  0.1953
  106loPI   C3A 1689   3.460   7.060   9.504 -0.1023 -0.1182 -0.0980
  106loPI   C4A 1690   3.579   7.053   9.093  0.2869 -0.0035  0.2186
  106loPI   C5A 1691   3.625   7.023   8.643 -0.1390  0.0345  0.2103
  106loPI   C6A 1692   3.485   7.081   8.156  0.3090  0.2432 -0.2333
  106loPI   C1B 1693   3.002   6.651   9.977  0.3212  0.0104  0.0658
  106loPI   C2B 1694   3.113   6.658   9.551  0.0204 -0.0425 -0.0304
  106loPI   C3B 1695   3.168   6.630   9.105  0.1838 -0.1510  0.3166
  106loPI   C4B 1696   3.149   6.589   8.687  0.3784 -0.3201 -0.3187
  107loPI    C1 1697  17.345   5.015  11.080 -0.1144 -0.1494 -0.1929
  107loPI    C2 1698  17.116   4.753  11.276  0.0579 -0.1020  0.0781
  107loPI    C3 1699  17.503   4.673  11.215  0.0393 -0.0488 -0.1142
  107loPI   PO4 1700  17.180   5.137  10.902 -0.0381 -0.2796  0.0172
  107loPI   GL1 1701  17.269   5.190  10.430 -0.3599  0.1617 -0.1627
  107loPI   GL2 1702  17.142   4.883  10.364  0.1735  0.0023 -0.1555
  107loPI   C1A 1703  17.397   5.212   9.956 -0.1784  0.0788  0.0913
  107loPI   C2A 1704  17.384   5.231   9.518 -0.1127  0.1263  0.0544
  107loPI   C3A 1705  17.390   5.134   9.074 -0.1832 -0.0356  0.2045
  107loPI   C4A 1706  17.361   5.215   8.680 -0.1410  0.1007 -0.0509
  107loPI   C5A 1707  17.417   5.149   8.278 -0.0949  0.0132  0.0769
  107loPI   C6A 1708  17.543   4.920   7.929  0.0274 -0.1796  0.0856
  107loPI   C1B 1709  16.982   4.880   9.957  0.0945  0.0015 -0.1213
  107loPI   C2B 1710  17.017   4.869   9.569 -0.3034 -0.0494  0.3694
  107loPI   C3B 1711  16.995   4.824   9.034  0.1818 -0.1178  0.0860
  107loPI   C4B 1712  16.977   4.896   8.531 -0.1137 -0.1248 -0.3498
  108loPI    C1 1713   4.820  12.028  10.474 -0.0684 -0.0950  0.2883
  108loPI    C2 1714   5.136  11.883  10.277 -0.1906  0.0210  0.0026
  108loPI    C3 1715   5.190  12.114  10.598  0.0192  0.1722 -0.1388
  108loPI   PO4 1716   4.662  12.017  10.319  0.0245 -0.3360 -0.2165
  108loPI   GL1 1717   4.691  11.745   9.985 -0.0594  0.1850  0.1651
  108loPI   GL2 1718   4.895  11.988   9.815  0.0426  0.0255 -0.1023
  108loPI   C1A 1719   4.396  11.806   9.642  0.0108  0.3332 -0.1456
  108loPI   C2A 1720   4.340  11.743   9.212 -0.2134  0.0581  0.1885
  108loPI   C3A 1721   4.214  11.659   8.896 -0.0306  0.1081 -0.0062
  108loPI   C4A 1722   3.802  11.695   8.699 -0.0587 -0.0342  0.1562
  108loPI   C5A 1723   3.684  11.715   8.353  0.2316  0.2120  0.1968
  108loPI   C6A 1724   3.459  12.016   8.268  0.0888  0.0585  0.2561
  108loPI   C1B 1725   4.709  12.089   9.449  0.0375 -0.2022  0.0228
  108loPI   C2B 1726   4.449  12.212   9.126  0.2322  0.0502  0.0888
  108loPI   C3B 1727   4.281  12.336   8.689 -0.2704  0.0094  0.0735
  108loPI   C4B 1728   4.380  12.213   8.294  0.0644 -0.0399  0.0277
  109loPI    C1 1729   4.392   8.438  10.766 -0.0933 -0.2014  0.0036
  109loPI    C2 1730   4.660   8.725  10.843 -0.2791 -0.0211 -0.0110
  109loPI    C3 1731   4.357   8.661  11.096 -0.1744 -0.2846  0.0517
  109loPI   PO4 1732   4.366   8.432  10.553 -0.0605 -0.1588  0.1168
  109loPI   GL1 1733   4.522   8.357  10.242 -0.0775  0.3763 -0.3370
  109loPI   GL2 1734   4.396   8.076  10.160  0.1399  0.0612  0.1030
  109loPI   C1A 1735   4.622   8.539   9.856  0.0073 -0.1383 -0.1928
  109loPI   C2A 1736   4.676   8.685   9.411  0.1582 -0.0969  0.2720
  109loPI   C3A 1737   4.695   8.776   8.957  0.0057  0.1456  0.0817
  109loPI   C4A 1738   4.411   8.808   8.569  0.1241  0.1384  0.1366
  109loPI   C5A 1739   3.980   8.740   8.357  0.1419 -0.0734  0.0600
  109loPI   C6A 1740   3.795   9.039   8.096 -0.2764  0.1369 -0.1455
  109loPI   C1B 1741   4.420   8.081   9.786 -0.1006  0.3396 -0.0346
  109loPI   C2B 1742   4.323   8.313   9.422 -0.2833  0.0335  0.0268
  109loPI   C3B 1743   4.433   8.324   8.998 -0.3880 -0.1410  0.0193
  109loPI   C4B 1744   4.329   8.310   8.584 -0.2058 -0.1240  0.2793
  110loPI    C1 1745  15.171   9.548  11.163  0.1038  0.0126  0.0310
  110loPI    C2 1746  14.807   9.592  11.324  0.0550 -0.0128 -0.0718
  110loPI    C3 1747  15.129   9.728  11.518  0.0029 -0.0987  0.0764
  110loPI   PO4 1748  15.110   9.467  10.908 -0.1952 -0.0585  0.1211
  110loPI   GL1 1749  14.985   9.572  10.496  0.3208  0.0897  0.2273
  110loPI   GL2 1750  14.845   9.182  10.480  0.0017  0.0505  0.0360
  110loPI   C1A 1751  14.921   9.596  10.053  0.1936  0.0103  0.2547
  110loPI   C2A 1752  14.913   9.564   9.574  0.0659  0.1412 -0.1819
  110loPI   C3A 1753  14.956   9.497   9.131  0.2988 -0.0715 -0.2236
  110loPI   C4A 1754  15.268   9.296   8.831  0.1226 -0.1045 -0.2966
  110loPI   C5A 1755  15.621   8.913   8.707  0.0850  0.0734  0.2174
  110loPI   C6A 1756  16.001   8.852   8.833  0.2620  0.0875 -0.1275
  110loPI   C1B 1757  14.989   9.114  10.126  0.0661  0.1878  0.1714
  110loPI   C2B 1758  14.997   9.011   9.736 -0.1261 -0.1044  0.2095
  110loPI   C3B 1759  15.041   9.000   9.355  0.2113 -0.0254 -0.0213
  110loPI   C4B 1760  15.150   8.825   8.925 -0.1026 -0.0664 -0.0088
  111loPI    C1 1761  10.638  11.687  10.613  0.1738 -0.3393  0.0966
  111loPI    C2 1762  11.023  11.748  10.525  0.1394 -0.2673 -0.0060
  111loPI    C3 1763  10.881  11.852  10.884  0.1265  0.0800 -0.1078
  111loPI   PO4 1764  10.565  11.408  10.498  0.0325 -0.1613 -0.0046
  111loPI   GL1 1765  10.553  11.214  10.016 -0.1631 -0.0288 -0.0200
  111loPI   GL2 1766  10.697  11.545   9.991  0.0188  0.0831 -0.0783
  111loPI   C1A 1767  10.623  11.008   9.682  0.1353  0.2857  0.1068
  111loPI   C2A 1768  10.588  11.017   9.234 -0.0628 -0.1511 -0.0807
  111loPI   C3A 1769  10.635  11.003   8.932  0.3678  0.0319  0.3188
  111loPI   C4A 1770  10.434  10.875   8.517  0.1362  0.1029 -0.1180
  111loPI   C5A 1771  10.422  11.013   8.175  0.1147 -0.0493  0.0512
  111loPI   C6A 1772  10.566  11.275   7.764 -0.0380  0.0453  0.3779
  111loPI   C1B 1773  10.697  11.513   9.591 -0.2656  0.1216  0.2018
  111loPI   C2B 1774  10.678  11.487   9.131  0.1012 -0.5088 -0.0419
  111loPI   C3B 1775  10.713  11.484   8.650  0.0453  0.0730  0.0772
  111loPI   C4B 1776  10.439  11.487   8.295  0.1683  0.0500  0.0132
  112loPI    C1 1777  13.836  11.139  11.184  0.0903  0.1825  0.2026
  112loPI    C2 1778  13.968  10.781  11.066 -0.1466  0.0872  0.2224
  112loPI    C3 1779  14.097  10.938  11.410  0.1521  0.1363  0.0912
  112loPI   PO4 1780  13.797  11.228  10.901  0.0912 -0.0974 -0.1722
  112loPI   GL1 1781  14.062  11.022  10.596 -0.1633 -0.2698  0.0837
  112loPI   GL2 1782  13.892  10.786  10.573  0.2288  0.3820 -0.2178
  112loPI   C1A 1783  14.047  11.031  10.135  0.0306 -0.0484  0.0635
  112loPI   C2A 1784  13.918  11.077   9.655 -0.1303 -0.0633  0.1904
  112loPI   C3A 1785  13.784  10.989   9.298 -0.0463  0.0639 -0.0374
  112loPI   C4A 1786  13.825  11.144   8.976 -0.0276  0.1382  0.0305
  112loPI   C5A 1787  13.871  11.022   8.480 -0.0663 -0.3600  0.1459
  112loPI   C6A 1788  13.765  11.114   8.053  0.0437  0.1039  0.2539
  112loPI   C1B 1789  13.921  10.491  10.202  0.0604 -0.1602  0.0398
  112loPI   C2B 1790  13.848  10.508   9.694  0.0191  0.0912  0.0227
  112loPI   C3B 1791  13.711  10.493   9.339 -0.2060  0.1774 -0.0257
  112loPI   C4B 1792  13.648  10.702   8.904  0.0291  0.1964 -0.0506
  113loPI    C1 1793   2.990  10.273  10.256 -0.1549 -0.1269 -0.1852
  113loPI    C2 1794   2.666  10.045  10.306 -0.1005 -0.2380 -0.3313
  113loPI    C3 1795   3.018   9.927  10.454 -0.1688 -0.0080  0.0281
  113loPI   PO4 1796   3.090  10.306   9.936 -0.2236  0.4491  0.0966
  113loPI   GL1 1797   2.899   9.907   9.794  0.0577  0.2479 -0.2160
  113loPI   GL2 1798   3.225   9.744   9.898 -0.1663 -0.1952  0.0752
  113loPI   C1A 1799   2.874   9.821   9.376  0.0168 -0.3382 -0.0416
  113loPI   C2A 1800   3.091   9.844   9.050 -0.0737  0.1071  0.0303
  113loPI   C3A 1801   2.973   9.913   8.583  0.1420 -0.0986 -0.0386
  113loPI   C4A 1802   3.135  10.116   8.248  0.1540  0.3885 -0.2885
  113loPI   C5A 1803   3.047  10.300   7.913 -0.0774 -0.1458  0.1112
  113loPI   C6A 1804   2.655  10.505   7.771  0.0822 -0.0631 -0.0256
  113loPI   C1B 1805   3.437   9.921   9.543 -0.2461 -0.1991 -0.0476
  113loPI   C2B 1806   3.620   9.760   9.169 -0.0698  0.1758 -0.1873
  113loPI   C3B 1807   3.770   9.516   8.812  0.0440 -0.2059 -0.1253
  113loPI   C4B 1808   3.684   9.271   8.554  0.3030 -0.0712  0.1128
  114loPI    C1 1809  12.988   8.384  11.253  0.0234  0.1617  0.1172
  114loPI    C2 1810  13.377   8.448  11.319 -0.0007  0.3172  0.1135
  114loPI    C3 1811  13.146   8.307  11.613  0.1304 -0.1288  0.0108
  114loPI   PO4 1812  13.002   8.233  10.963 -0.1242  0.1371 -0.2759
  114loPI   GL1 1813  12.941   8.095  10.501  0.1934  0.1598  0.1578
  114loPI   GL2 1814  13.191   8.297  10.466 -0.1870 -0.1878 -0.1586
  114loPI   C1A 1815  12.880   8.002  10.031  0.1025 -0.3273  0.0641
  114loPI   C2A 1816  12.903   7.865   9.625 -0.0443 -0.2493  0.1482
  114loPI   C3A 1817  12.897   8.015   9.170  0.1232 -0.1218 -0.1597
  114loPI   C4A 1818  12.934   8.087   8.720  0.1032  0.2903 -0.0136
  114loPI   C5A 1819  12.889   8.354   8.295 -0.1892 -0.1458 -0.0090
  114loPI   C6A 1820  13.098   8.616   7.970  0.2636 -0.3253  0.0510
  114loPI   C1B 1821  13.210   8.300   9.947  0.0129  0.2191  0.1290
  114loPI   C2B 1822  13.254   8.178   9.511 -0.0337 -0.0911 -0.2289
  114loPI   C3B 1823  13.382   8.274   9.062  0.2860  0.0190  0.2036
  114loPI   C4B 1824  13.396   8.340   8.593  0.2087  0.0099 -0.3233
  115loPI    C1 1825   9.323   3.729  10.831 -0.2936 -0.0297 -0.0325
  115loPI    C2 1826   9.069   3.747  11.140 -0.0587 -0.0083  0.1629
  115loPI    C3 1827   9.372   3.485  11.145  0.1495  0.2272  0.1080
  115loPI   PO4 1828   9.242   3.655  10.582 -0.0089  0.0071  0.1809
  115loPI   GL1 1829   9.253   3.686  10.222  0.1000 -0.3232 -0.1126
  115loPI   GL2 1830   9.468   3.482   9.993  0.0371 -0.1908 -0.1801
  115loPI   C1A 1831   9.032   3.887   9.929  0.1301  0.1888 -0.2950
  115loPI   C2A 1832   8.932   3.942   9.512  0.1705 -0.3278  0.1733
  115loPI   C3A 1833   9.038   3.845   9.064 -0.0197 -0.3849  0.0818
  115loPI   C4A 1834   8.952   3.831   8.559  0.1988  0.0116 -0.0111
  115loPI   C5A 1835   9.086   3.603   8.198  0.0272  0.0178 -0.3645
  115loPI   C6A 1836   9.090   3.442   7.742  0.1624 -0.0259  0.0925
  115loPI   C1B 1837   9.644   3.517   9.558 -0.0669  0.0801  0.0855
  115loPI   C2B 1838   9.791   3.437   9.108 -0.1250  0.3280 -0.0532
  115loPI   C3B 1839   9.827   3.398   8.749  0.3095  0.3030 -0.2995
  115loPI   C4B 1840  10.057   3.173   8.368  0.0150 -0.0663  0.0442
  116loPI    C1 1841   3.468   7.046  11.211  0.0193  0.0466  0.0863
  116loPI    C2 1842   3.155   7.138  11.443 -0.0950 -0.0536 -0.0261
  116loPI    C3 1843   3.418   7.422  11.340 -0.0367 -0.0105  0.2332
  116loPI   PO4 1844   3.330   6.854  10.949  0.0103 -0.0584 -0.3245
  116loPI   GL1 1845   3.459   6.622  10.549 -0.0701 -0.2234  0.3973
  116loPI   GL2 1846   3.762   6.832  10.676  0.1526 -0.0395 -0.2893
  116loPI   C1A 1847   3.518   6.465  10.142  0.0798 -0.0115 -0.2421
  116loPI   C2A 1848   3.650   6.535   9.772  0.1870  0.0991  0.1169
  116loPI   C3A 1849   3.625   6.594   9.325 -0.1124  0.1130  0.0552
  116loPI   C4A 1850   3.698   6.612   8.918 -0.0991 -0.1865 -0.1323
  116loPI   C5A 1851   3.845   6.495   8.460 -0.1409  0.0501 -0.1231
  116loPI   C6A 1852   4.001   6.465   7.978  0.1015  0.0001 -0.0347
  116loPI   C1B 1853   3.767   6.899  10.229 -0.0041 -0.1784  0.0411
  116loPI   C2B 1854   3.890   7.017   9.792 -0.3199  0.0576  0.3083
  116loPI   C3B 1855   3.987   6.944   9.324 -0.3762 -0.0542 -0.2557
  116loPI   C4B 1856   4.103   6.985   8.877 -0.3591  0.0249 -0.1441
  117loPI    C1 1857  15.235   3.329  10.666  0.0143  0.1742  0.0581
  117loPI    C2 1858  15.460   3.022  10.543  0.0387  0.2587 -0.1103
  117loPI    C3 1859  15.315   3.027  10.916 -0.1116 -0.0444 -0.1616
  117loPI   PO4 1860  15.361   3.640  10.586  0.3024  0.3075 -0.0004
  117loPI   GL1 1861  15.354   3.694  10.193 -0.2138 -0.0513  0.0193
  117loPI   GL2 1862  15.488   3.998  10.297  0.2477  0.0115  0.0866
  117loPI   C1A 1863  15.413   3.597   9.776 -0.0347 -0.1883  0.1189
  117loPI   C2A 1864  15.437   3.549   9.328 -0.0919  0.1030  0.1239
  117loPI   C3A 1865  15.381   3.426   8.893 -0.0488 -0.0279  0.1050
  117loPI   C4A 1866  15.270   3.514   8.568  0.1619 -0.1301 -0.2280
  117loPI   C5A 1867  15.560   3.576   8.219  0.0798  0.2547 -0.1647
  117loPI   C6A 1868  15.529   3.798   7.850 -0.3844 -0.0186 -0.1916
  117loPI   C1B 1869  15.719   3.942   9.960  0.0193 -0.0054  0.1441
  117loPI   C2B 1870  15.832   3.870   9.562  0.3173 -0.0890  0.3833
  117loPI   C3B 1871  15.818   3.804   9.124 -0.2193  0.1526 -0.0982
  117loPI   C4B 1872  15.727   3.744   8.686 -0.1267 -0.2814  0.3417
  118loPI    C1 1873  15.653   0.906  10.531 -0.5809  0.2998  0.0386
  118loPI    C2 1874  15.637   1.020  10.914 -0.0941 -0.1424  0.2025
  118loPI    C3 1875  15.435   0.697  10.793  0.0263 -0.2035  0.1639
  118loPI   PO4 1876  15.562   1.095  10.366 -0.0783  0.0155  0.1298
  118loPI   GL1 1877  15.674   1.295   9.999 -0.3175 -0.0117  0.0296
  118loPI   GL2 1878  15.421   1.542  10.102 -0.0269  0.1160 -0.0243
  118loPI   C1A 1879  15.428   1.200   9.721  0.4296  0.0790 -0.3221
  118loPI   C2A 1880  15.384   1.339   9.383  0.3182 -0.2322 -0.1409
  118loPI   C3A 1881  15.424   1.495   8.960 -0.1751 -0.3566 -0.0866
  118loPI   C4A 1882  15.414   1.735   8.554  0.0349  0.1414 -0.0863
  118loPI   C5A 1883  15.489   2.073   8.371  0.1264 -0.1415  0.1176
  118loPI   C6A 1884  15.169   2.448   8.376 -0.1182 -0.4107 -0.0529
  118loPI   C1B 1885  15.185   1.716   9.762 -0.0380 -0.3254 -0.0530
  118loPI   C2B 1886  15.145   1.764   9.260  0.0397  0.2186  0.0880
  118loPI   C3B 1887  14.960   1.852   8.841  0.1843 -0.0661  0.0777
  118loPI   C4B 1888  14.946   1.880   8.461 -0.2486 -0.0575  0.2068
  119loPI    C1 1889   9.254  12.565  11.198 -0.1136 -0.0904 -0.0605
  119loPI    C2 1890   9.372  12.253  11.418 -0.1348 -0.1546 -0.1399
  119loPI    C3 1891   9.055  12.469  11.531 -0.0677 -0.1087 -0.0385
  119loPI   PO4 1892   9.236  12.486  10.961 -0.0130 -0.1808  0.1540
  119loPI   GL1 1893   9.017  12.579  10.623 -0.0370  0.0648 -0.1549
  119loPI   GL2 1894   8.809  12.828  10.446  0.0689  0.2912  0.0335
  119loPI   C1A 1895   9.113  12.496  10.189  0.3971  0.0752 -0.1070
  119loPI   C2A 1896   9.079  12.465   9.786 -0.1856  0.2026 -0.1375
  119loPI   C3A 1897   9.097  12.450   9.337  0.3438  0.2497 -0.1010
  119loPI   C4A 1898   8.961  12.438   8.841  0.2607  0.0133 -0.0850
  119loPI   C5A 1899   8.883  12.464   8.494  0.2651 -0.0307  0.3881
  119loPI   C6A 1900   8.811  12.844   8.152 -0.1641 -0.1527 -0.2173
  119loPI   C1B 1901   8.648  12.782   9.992 -0.1498 -0.1271  0.2174
  119loPI   C2B 1902   8.759  12.772   9.589 -0.0135  0.3974  0.3485
  119loPI   C3B 1903   8.712  12.796   9.113 -0.6011 -0.2139 -0.0631
  119loPI   C4B 1904   8.635  12.930   8.684 -0.0909  0.0359 -0.0463
  120loPI    C1 1905   7.247  16.369  10.661  0.1440  0.0071 -0.2461
  120loPI    C2 1906   6.855  16.297  10.629  0.0466  0.3751  0.0424
  120loPI    C3 1907   7.106  16.000  10.724 -0.1579  0.1358 -0.1497
  120loPI   PO4 1908   7.222  16.563  10.454 -0.1118  0.3582 -0.2644
  120loPI   GL1 1909   7.507  16.814  10.295  0.2658 -0.0601 -0.0232
  120loPI   GL2 1910   7.597  16.504  10.174 -0.1733  0.2783  0.0127
  120loPI   C1A 1911   7.719  16.999   9.951 -0.0826  0.2208 -0.3197
  120loPI   C2A 1912   7.749  16.971   9.513  0.1475  0.3142  0.1866
  120loPI   C3A 1913   7.729  17.097   9.108 -0.0722 -0.0403 -0.1972
  120loPI   C4A 1914   7.686  17.123   8.656 -0.0441  0.1159  0.5280
  120loPI   C5A 1915   7.674  17.067   8.230 -0.0079  0.1031 -0.2025
  120loPI   C6A 1916   8.027  16.811   8.056  0.1905 -0.2554  0.1271
  120loPI   C1B 1917   7.584  16.542   9.688 -0.2955  0.0038  0.4497
  120loPI   C2B 1918   7.718  16.556   9.189  0.1122  0.1792  0.0029
  120loPI   C3B 1919   7.672  16.609   8.903 -0.0279 -0.3993  0.0909
  120loPI   C4B 1920   7.652  16.606   8.479  0.0143 -0.1437  0.0218
  121loPI    C1 1921   0.442  18.113  10.746 -0.1610 -0.0228 -0.0889
  121loPI    C2 1922   0.189  18.412  10.829 -0.2656 -0.1532  0.0683
  121loPI    C3 1923   0.185  18.079  11.052  0.0893 -0.1307  0.1131
  121loPI   PO4 1924   0.480  18.134  10.532 -0.0594  0.1538  0.1322
  121loPI   GL1 1925   0.842  18.166  10.256 -0.0224 -0.0521  0.3598
  121loPI   GL2 1926   0.691  18.401  10.066  0.0615 -0.0328  0.0563
  121loPI   C1A 1927   1.097  18.038   9.866 -0.1038  0.1949 -0.1589
  121loPI   C2A 1928   1.123  18.050   9.407 -0.0854  0.0011 -0.0496
  121loPI   C3A 1929   1.156  18.075   8.989 -0.1452  0.0124  0.0534
  121loPI   C4A 1930   1.046  18.238   8.617 -0.0058  0.0491 -0.1220
  121loPI   C5A 1931   1.109  18.008   8.255 -0.0596 -0.2399  0.0812
  121loPI   C6A 1932   1.360  17.809   8.052 -0.2298 -0.0736 -0.2439
  121loPI   C1B 1933   0.696  18.400   9.566  0.3172 -0.0675 -0.0144
  121loPI   C2B 1934   0.687  18.463   9.114 -0.3081  0.0421 -0.1721
  121loPI   C3B 1935   0.692  18.535   8.684 -0.1459 -0.0709 -0.1726
  121loPI   C4B 1936   0.593  18.518   8.282 -0.0627 -0.1826 -0.1591
  122loPI    C1 1937  10.182  14.447  10.922  0.2349  0.0939 -0.0131
  122loPI    C2 1938   9.989  14.338  10.589  0.0995 -0.0886  0.1227
  122loPI    C3 1939   9.796  14.539  10.876  0.2221  0.0892  0.0827
  122loPI   PO4 1940  10.398  14.547  10.738  0.1581  0.2036 -0.1609
  122loPI   GL1 1941  10.190  14.777  10.460  0.1027  0.2177 -0.1090
  122loPI   GL2 1942  10.458  14.870  10.302  0.1076  0.0659 -0.0471
  122loPI   C1A 1943  10.121  14.555  10.127  0.2082  0.1691 -0.3579
  122loPI   C2A 1944  10.063  14.581   9.729  0.0534  0.0833  0.0165
  122loPI   C3A 1945   9.993  14.569   9.241  0.1968 -0.2581 -0.0639
  122loPI   C4A 1946  10.072  14.614   8.817 -0.0191 -0.1812 -0.2717
  122loPI   C5A 1947   9.997  14.593   8.405  0.4245 -0.3109 -0.0859
  122loPI   C6A 1948   9.564  14.667   8.244  0.0110  0.1753 -0.0249
  122loPI   C1B 1949  10.571  14.695   9.938 -0.0002 -0.3021 -0.1404
  122loPI   C2B 1950  10.478  14.663   9.473  0.0120 -0.1502  0.0210
  122loPI   C3B 1951  10.508  14.664   9.055 -0.0274 -0.1876  0.0377
  122loPI   C4B 1952  10.516  14.774   8.635  0.0616  0.0144 -0.0370
  123loPI    C1 1953   2.014  10.239  10.870  0.0337  0.0333  0.0470
  123loPI    C2 1954   2.125  10.157  11.246 -0.3412 -0.0628  0.1405
  123loPI    C3 1955   2.206  10.515  11.087  0.1469 -0.1487  0.1812
  123loPI   PO4 1956   1.743  10.188  10.808 -0.1354 -0.1570 -0.1697
  123loPI   GL1 1957   1.718  10.095  10.414  0.1263 -0.0946  0.0350
  123loPI   GL2 1958   1.888  10.395  10.337 -0.1168  0.2178  0.2014
  123loPI   C1A 1959   1.578  10.139   9.996  0.1392 -0.3722 -0.3040
  123loPI   C2A 1960   1.510  10.036   9.666  0.0080  0.2079 -0.0963
  123loPI   C3A 1961   1.508  10.158   9.197 -0.3591  0.0027 -0.0796
  123loPI   C4A 1962   1.427  10.174   8.761 -0.0589 -0.0476  0.1507
  123loPI   C5A 1963   1.532  10.136   8.363  0.2313  0.2106  0.2778
  123loPI   C6A 1964   1.753   9.965   8.013  0.1133  0.3096 -0.2186
  123loPI   C1B 1965   2.012  10.419   9.894 -0.1208  0.1914  0.2047
  123loPI   C2B 1966   1.933  10.319   9.562 -0.1684 -0.1000  0.2993
  123loPI   C3B 1967   1.977  10.516   9.180 -0.0698  0.0577 -0.1389
  123loPI   C4B 1968   1.948  10.938   8.888  0.0574 -0.0888  0.1412
  124loPI    C1 1969   4.858   9.984  10.875 -0.1212  0.1534 -0.0581
  124loPI    C2 1970   5.132  10.031  10.588  0.0348 -0.0938  0.0471
  124loPI    C3 1971   5.236  10.070  10.972 -0.0554 -0.2833  0.0916
  124loPI   PO4 1972   4.739   9.704  10.699 -0.3158 -0.3525 -0.0286
  124loPI   GL1 1973   4.791   9.823  10.284 -0.1402 -0.1043  0.1327
  124loPI   GL2 1974   4.850  10.109  10.126 -0.1175 -0.1477  0.0231
  124loPI   C1A 1975   4.870   9.680   9.876 -0.0526  0.0120 -0.4423
  124loPI   C2A 1976   4.760   9.798   9.467  0.1755 -0.0102 -0.2866
  124loPI   C3A 1977   4.725   9.667   9.000 -0.3036  0.0941  0.0007
  124loPI   C4A 1978   4.768   9.847   8.620  0.0419 -0.2036 -0.0595
  124loPI   C5A 1979   4.781  10.275   8.463  0.1910 -0.0996  0.1952
  124loPI   C6A 1980   5.038  10.590   8.202  0.4190  0.0820  0.1426
  124loPI   C1B 1981   4.982  10.322   9.864  0.1213  0.1334 -0.3097
  124loPI   C2B 1982   4.907  10.384   9.410 -0.1598 -0.3787  0.4238
  124loPI   C3B 1983   4.936  10.373   8.949  0.1080 -0.2350 -0.2415
  124loPI   C4B 1984   5.170  10.548   8.667 -0.0713 -0.0463 -0.0016
  125loPI    C1 1985  13.931  13.556  11.300  0.0474  0.0399 -0.3108
  125loPI    C2 1986  14.290  13.714  11.378  0.0885 -0.1311 -0.1472
  125loPI    C3 1987  14.102  13.498  11.657 -0.2368  0.1319 -0.1561
  125loPI   PO4 1988  13.831  13.578  11.016 -0.1141  0.1266  0.1175
  125loPI   GL1 1989  13.832  13.454  10.627 -0.0296  0.0598 -0.0058
  125loPI   GL2 1990  13.987  13.105  10.544  0.1534  0.2808 -0.1762
  125loPI   C1A 1991  13.935  13.351  10.105  0.1088 -0.0021  0.0446
  125loPI   C2A 1992  13.882  13.569   9.748 -0.0617  0.1274 -0.1454
  125loPI   C3A 1993  13.851  13.538   9.306 -0.2467  0.1155  0.1823
  125loPI   C4A 1994  13.993  13.508   8.913  0.3021  0.2588  0.1020
  125loPI   C5A 1995  13.993  13.486   8.540  0.1070 -0.2016 -0.1522
  125loPI   C6A 1996  13.847  13.537   8.147  0.0886 -0.0115  0.1761
  125loPI   C1B 1997  14.131  12.824  10.179 -0.0149 -0.0382 -0.3754
  125loPI   C2B 1998  14.164  12.630   9.837  0.1060  0.1345 -0.0074
  125loPI   C3B 1999  14.158  12.658   9.410 -0.0320 -0.2081 -0.0532
  125loPI   C4B 2000  14.070  12.633   8.892  0.3020  0.1074  0.0089
  126loPI    C1 2001   8.071   5.625  10.842  0.1257  0.1090  0.1057
  126loPI    C2 2002   8.412   5.425  10.906 -0.0480 -0.1979  0.0941
  126loPI    C3 2003   8.124   5.423  11.183 -0.1275 -0.1199  0.0129
  126loPI   PO4 2004   7.983   5.587  10.580 -0.2262 -0.0470 -0.1824
  126loPI   GL1 2005   7.931   5.421  10.202  0.0800  0.3634 -0.1795
  126loPI   GL2 2006   8.234   5.193  10.270  0.0552 -0.2045  0.0535
  126loPI   C1A 2007   7.716   5.244   9.764  0.2170 -0.1898  0.1981
  126loPI   C2A 2008   7.762   5.209   9.287  0.0571 -0.1390 -0.2473
  126loPI   C3A 2009   7.733   5.139   8.857 -0.0500 -0.1858 -0.2220
  126loPI   C4A 2010   7.665   5.192   8.401  0.3718 -0.2767  0.2026
  126loPI   C5A 2011   7.998   5.037   8.047 -0.0677  0.2554  0.0204
  126loPI   C6A 2012   8.182   4.984   7.571  0.2656  0.1937 -0.1007
  126loPI   C1B 2013   8.222   5.100   9.827 -0.3293  0.1175 -0.1626
  126loPI   C2B 2014   8.296   5.268   9.354 -0.0549  0.0545 -0.0024
  126loPI   C3B 2015   8.406   5.201   8.969  0.3810  0.3726  0.2090
  126loPI   C4B 2016   8.258   5.166   8.508 -0.2378  0.1413 -0.1840
  127loPI    C1 2017   7.525   9.073  11.039  0.2215  0.2119 -0.1824
  127loPI    C2 2018   7.913   9.133  11.112  0.2422 -0.0920 -0.0246
  127loPI    C3 2019   7.779   8.764  11.041 -0.0032  0.0246 -0.1810
  127loPI   PO4 2020   7.488   9.295  10.785  0.1321  0.1385 -0.1285
  127loPI   GL1 2021   7.471   9.187  10.306 -0.0403 -0.1643 -0.2893
  127loPI   GL2 2022   7.465   9.439  10.031  0.0756 -0.1016  0.0457
  127loPI   C1A 2023   7.489   8.935   9.891  0.0878  0.0387 -0.1453
  127loPI   C2A 2024   7.485   8.821   9.420 -0.3303  0.0637 -0.2890
  127loPI   C3A 2025   7.745   8.787   9.116 -0.2380  0.2984  0.1000
  127loPI   C4A 2026   7.919   8.803   8.729 -0.1754 -0.1442  0.1149
  127loPI   C5A 2027   8.347   8.759   8.550 -0.1665  0.0604 -0.0515
  127loPI   C6A 2028   8.822   8.735   8.565  0.2161  0.1212 -0.0235
  127loPI   C1B 2029   7.589   9.363   9.514  0.0780  0.0491 -0.1517
  127loPI   C2B 2030   7.902   9.162   9.486  0.3528 -0.2932  0.0759
  127loPI   C3B 2031   8.240   8.891   9.374  0.1538 -0.0206 -0.1113
  127loPI   C4B 2032   8.707   8.944   9.485  0.1398  0.0324  0.3385
  128loPI    C1 2033  11.123   8.554  10.686  0.0592 -0.1011  0.0247
  128loPI    C2 2034  10.981   8.583  11.059  0.1087  0.0449  0.0331
  128loPI    C3 2035  10.926   8.247  10.849 -0.0663  0.0238  0.1107
  128loPI   PO4 2036  11.132   8.806  10.569  0.0116  0.0205  0.0853
  128loPI   GL1 2037  11.292   8.946  10.131 -0.2522  0.5784  0.1340
  128loPI   GL2 2038  11.569   8.848   9.968  0.2221  0.0733  0.1883
  128loPI   C1A 2039  11.139   9.259   9.822 -0.2351 -0.1798  0.0524
  128loPI   C2A 2040  11.028   9.295   9.355 -0.1850 -0.0186  0.0549
  128loPI   C3A 2041  11.143   9.600   9.078 -0.0733  0.2077 -0.2583
  128loPI   C4A 2042  11.218   9.691   8.615 -0.2403 -0.2170 -0.0820
  128loPI   C5A 2043  11.064   9.619   8.216 -0.2263  0.0120 -0.0472
  128loPI   C6A 2044  11.361   9.487   7.959  0.2358 -0.1894 -0.0102
  128loPI   C1B 2045  11.811   8.720   9.736 -0.1388  0.2648  0.1582
  128loPI   C2B 2046  11.875   8.933   9.299 -0.0952  0.3146 -0.1822
  128loPI   C3B 2047  11.952   9.113   8.953  0.1930  0.2048  0.3063
  128loPI   C4B 2048  11.986   9.339   8.521 -0.0878  0.0825 -0.1657
  129loPI    C1 2049   0.967  18.031  10.856  0.0746  0.2537  0.0458
  129loPI    C2 2050   1.279  17.813  10.977 -0.1022 -0.0786 -0.0841
  129loPI    C3 2051   1.103  18.067  11.230  0.0851 -0.1101  0.0803
  129loPI   PO4 2052   0.813  17.840  10.701  0.0344  0.1379 -0.0023
  129loPI   GL1 2053   0.710  17.636  10.265  0.1567  0.2254  0.0327
  129loPI   GL2 2054   0.448  17.830  10.111  0.3871  0.2438  0.4983
  129loPI   C1A 2055   1.009  17.547   9.893  0.0416 -0.0620 -0.0367
  129loPI   C2A 2056   1.009  17.477   9.453  0.1444 -0.0001 -0.1574
  129loPI   C3A 2057   1.074  17.562   9.034  0.0268  0.0216 -0.0786
  129loPI   C4A 2058   0.975  17.665   8.605 -0.1223 -0.1814 -0.2579
  129loPI   C5A 2059   0.907  17.484   8.195  0.0739  0.0053 -0.0534
  129loPI   C6A 2060   0.676  17.531   7.805  0.1921  0.4644  0.1990
  129loPI   C1B 2061   0.646  17.827   9.656  0.1454  0.3242  0.0296
  129loPI   C2B 2062   0.706  17.880   9.218  0.1600 -0.1280 -0.1929
  129loPI   C3B 2063   0.680  17.978   8.852  0.0385  0.0900 -0.0985
  129loPI   C4B 2064   0.620  18.024   8.421  0.1412 -0.1475  0.0973
  130loPI    C1 2065  16.768   6.062  11.142  0.1014  0.3220 -0.0025
  130loPI    C2 2066  16.805   5.739  11.376  0.1013  0.2629 -0.0835
  130loPI    C3 2067  16.496   5.988  11.426  0.0731  0.2221 -0.0550
  130loPI   PO4 2068  16.818   5.961  10.941  0.1904  0.1168  0.1483
  130loPI   GL1 2069  16.717   6.062  10.537 -0.1228 -0.1935  0.0049
  130loPI   GL2 2070  16.541   6.321  10.530  0.1512  0.2102  0.0721
  130loPI   C1A 2071  16.786   5.916  10.211  0.0378 -0.0090 -0.0363
  130loPI   C2A 2072  16.876   5.803   9.809 -0.1789 -0.1556 -0.0352
  130loPI   C3A 2073  16.797   5.839   9.428  0.0168  0.2335  0.0691
  130loPI   C4A 2074  16.847   5.814   9.005 -0.1960  0.0568  0.1690
  130loPI   C5A 2075  16.873   5.913   8.591 -0.1526  0.1652 -0.0635
  130loPI   C6A 2076  17.136   6.005   8.277  0.0789 -0.0378  0.0910
  130loPI   C1B 2077  16.736   6.356  10.030  0.2320  0.2243 -0.1316
  130loPI   C2B 2078  16.817   6.290   9.589  0.0178  0.0470  0.1352
  130loPI   C3B 2079  16.710   6.342   9.202 -0.0660 -0.3652  0.1039
  130loPI   C4B 2080  16.774   6.471   8.723 -0.1265  0.0760  0.1393
  131loPI    C1 2081   0.359   0.756  10.684 -0.0132  0.0222 -0.0615
  131loPI    C2 2082   0.527   0.931  11.002  0.0671  0.0791 -0.1348
  131loPI    C3 2083   0.756   0.791  10.705 -0.0150  0.1659 -0.2399
  131loPI   PO4 2084   0.131   0.919  10.510 -0.0012 -0.2004  0.2911
  131loPI   GL1 2085   0.183   0.766  10.164 -0.0117 -0.0153  0.4045
  131loPI   GL2 2086   0.064   1.036  10.061 -0.1009  0.2506 -0.1279
  131loPI   C1A 2087   0.398   0.842   9.779 -0.0398 -0.0347 -0.2509
  131loPI   C2A 2088   0.356   0.936   9.349 -0.0331  0.1006 -0.0609
  131loPI   C3A 2089   0.376   1.036   8.872  0.1741  0.0614  0.2665
  131loPI   C4A 2090   0.264   1.100   8.454  0.3334 -0.2133  0.3529
  131loPI   C5A 2091   0.564   1.169   8.131 -0.0522 -0.0617  0.0277
  131loPI   C6A 2092   0.835   1.361   8.248  0.1407  0.1152  0.3283
  131loPI   C1B 2093  -0.113   1.118   9.720 -0.0064 -0.0074  0.2918
  131loPI   C2B 2094  -0.085   1.109   9.235 -0.3834  0.0788 -0.2521
  131loPI   C3B 2095  -0.111   1.282   8.836 -0.3911 -0.0490  0.0919
  131loPI   C4B 2096  -0.216   1.216   8.432 -0.1440  0.2315  0.3249
  132loPI    C1 2097   0.742   9.784  11.353  0.1078 -0.2309 -0.3852
  132loPI    C2 2098   0.812  10.173  11.288 -0.1783 -0.0875  0.1056
  132loPI    C3 2099   1.084   9.950  11.479 -0.0454 -0.1150 -0.1120
  132loPI   PO4 2100   0.567   9.792  11.135 -0.2660 -0.0731 -0.0116
  132loPI   GL1 2101   0.695   9.803  10.727 -0.3933  0.3086 -0.2799
  132loPI   GL2 2102   0.941   9.747  10.555  0.0367  0.0931  0.0886
  132loPI   C1A 2103   0.652   9.925  10.210  0.0226  0.0565  0.1990
  132loPI   C2A 2104   0.719   9.864   9.793  0.1424 -0.0278 -0.0977
  132loPI   C3A 2105   0.533   9.926   9.262 -0.0976 -0.0697 -0.0796
  132loPI   C4A 2106   0.617   9.947   8.887 -0.1903 -0.0559  0.0213
  132loPI   C5A 2107   0.791   9.942   8.621 -0.1947  0.3310 -0.1889
  132loPI   C6A 2108   0.952  10.122   8.322 -0.0794 -0.3374  0.2395
  132loPI   C1B 2109   1.165   9.783  10.163 -0.1957  0.0955 -0.0903
  132loPI   C2B 2110   1.192   9.614   9.677 -0.1038 -0.3117  0.0234
  132loPI   C3B 2111   1.301   9.659   9.210 -0.1211 -0.1174 -0.2145
  132loPI   C4B 2112   1.316   9.720   8.784  0.0602 -0.0349 -0.1023
  133loPI    C1 2113  14.938   0.634  10.690  0.0167  0.1811  0.0739
  133loPI    C2 2114  14.637   0.521  10.928  0.0724 -0.1664 -0.0148
  133loPI    C3 2115  14.969   0.679  11.087 -0.0975  0.0888  0.0937
  133loPI   PO4 2116  14.885   0.536  10.414 -0.1280 -0.2529 -0.0449
  133loPI   GL1 2117  14.818   0.641  10.070 -0.2234  0.1593  0.4454
  133loPI   GL2 2118  14.761   0.223   9.957 -0.0471  0.0013 -0.1213
  133loPI   C1A 2119  15.078   0.747   9.737 -0.2113  0.1000  0.0062
  133loPI   C2A 2120  15.125   0.898   9.322  0.2076  0.0381  0.2195
  133loPI   C3A 2121  15.195   0.964   8.927  0.0162  0.2154  0.0464
  133loPI   C4A 2122  15.363   0.830   8.590 -0.1197  0.4210 -0.2110
  133loPI   C5A 2123  15.626   0.849   8.261 -0.1850  0.0618 -0.0974
  133loPI   C6A 2124  15.508   1.067   7.947 -0.0326  0.0772  0.1060
  133loPI   C1B 2125  14.875   0.296   9.570 -0.0158  0.2685  0.1012
  133loPI   C2B 2126  14.841   0.285   9.189 -0.2680 -0.1271  0.2465
  133loPI   C3B 2127  14.732   0.320   8.810 -0.0899 -0.0662  0.0038
  133loPI   C4B 2128  14.362   0.406   8.441 -0.1186 -0.2443 -0.1134
  134loPI    C1 2129   8.975   4.486  10.772  0.1260  0.0923  0.1258
  134loPI    C2 2130   9.338   4.503  10.604  0.0680 -0.3328 -0.0566
  134loPI    C3 2131   9.270   4.252  10.908 -0.0672 -0.2342 -0.0041
  134loPI   PO4 2132   8.858   4.529  10.502  0.0976  0.1206  0.1325
  134loPI   GL1 2133   9.026   4.517  10.103 -0.0122 -0.0524  0.1073
  134loPI   GL2 2134   9.231   4.324  10.000 -0.1139 -0.0221  0.0940
  134loPI   C1A 2135   9.041   4.797   9.817  0.1131  0.2336  0.0783
  134loPI   C2A 2136   9.049   4.877   9.365  0.3427 -0.0663 -0.0083
  134loPI   C3A 2137   9.028   4.851   8.960  0.3689  0.3054  0.0389
  134loPI   C4A 2138   8.973   4.670   8.659  0.0107  0.2854  0.2460
  134loPI   C5A 2139   8.969   4.679   8.228  0.4423  0.0110  0.2782
  134loPI   C6A 2140   9.178   4.441   7.851  0.0304  0.0789 -0.0420
  134loPI   C1B 2141   9.243   4.395   9.578 -0.0448 -0.2066 -0.2713
  134loPI   C2B 2142   9.280   4.430   9.020 -0.1287  0.0061 -0.4072
  134loPI   C3B 2143   9.261   4.215   8.653 -0.2403 -0.0541  0.2268
  134loPI   C4B 2144   9.168   4.138   8.250  0.3493  0.2202  0.0104
  135loPI    C1 2145   8.222   2.117  10.344 -0.0195 -0.0268 -0.0239
  135loPI    C2 2146   8.254   2.069  10.740  0.0285 -0.1874 -0.0463
  135loPI    C3 2147   8.054   1.800  10.521  0.1654 -0.2012 -0.1559
  135loPI   PO4 2148   8.076   2.282  10.254 -0.0897 -0.1159  0.0123
  135loPI   GL1 2149   7.916   2.460   9.815 -0.1605  0.1039 -0.0828
  135loPI   GL2 2150   7.645   2.367   9.900 -0.0452 -0.0646  0.3317
  135loPI   C1A 2151   8.058   2.518   9.355 -0.1388  0.0825  0.0526
  135loPI   C2A 2152   8.053   2.499   8.874 -0.1786  0.2391 -0.0688
  135loPI   C3A 2153   7.910   2.538   8.393  0.2040  0.2105 -0.1315
  135loPI   C4A 2154   7.830   2.344   8.001  0.1928  0.1050  0.4005
  135loPI   C5A 2155   7.904   1.998   7.917  0.0601  0.1170  0.2895
  135loPI   C6A 2156   8.063   1.636   7.820  0.2548 -0.0069 -0.2299
  135loPI   C1B 2157   7.547   2.419   9.433 -0.1557 -0.2186 -0.0195
  135loPI   C2B 2158   7.503   2.541   9.057 -0.0349  0.1667 -0.1182
  135loPI   C3B 2159   7.456   2.601   8.627  0.1206 -0.1237  0.1107
  135loPI   C4B 2160   7.373   2.609   8.128  0.0119 -0.2233 -0.0315
  136loPI    C1 2161   5.684  10.858  10.648 -0.2813 -0.0593 -0.1037
  136loPI    C2 2162   5.607  10.778  10.264 -0.0990 -0.0927 -0.1345
  136loPI    C3 2163   5.325  10.944  10.494 -0.2165 -0.0927 -0.2765
  136loPI   PO4 2164   6.012  10.882  10.506  0.1237  0.0477 -0.1217
  136loPI   GL1 2165   6.200  10.990  10.089 -0.1378 -0.2631 -0.0055
  136loPI   GL2 2166   5.900  11.039   9.920  0.0773 -0.3436  0.3509
  136loPI   C1A 2167   6.453  11.080   9.730 -0.0545  0.0555 -0.2438
  136loPI   C2A 2168   6.516  11.167   9.333 -0.1596  0.2347 -0.0018
  136loPI   C3A 2169   6.513  11.107   8.803 -0.0712  0.4335  0.2485
  136loPI   C4A 2170   6.679  11.238   8.485 -0.0992 -0.0426  0.0072
  136loPI   C5A 2171   6.954  11.377   8.291  0.0145 -0.1254 -0.1750
  136loPI   C6A 2172   7.001  11.384   7.762  0.0009  0.0344  0.2127
  136loPI   C1B 2173   5.694  11.392   9.626  0.0802  0.1831 -0.3395
  136loPI   C2B 2174   5.612  11.368   9.183  0.0080 -0.2593 -0.1448
  136loPI   C3B 2175   5.270  11.486   8.836  0.4017  0.0622 -0.0758
  136loPI   C4B 2176   5.229  11.483   8.401 -0.0712 -0.0326 -0.1642
  137loPI    C1 2177   8.671  11.072  10.915  0.0405 -0.0750  0.1089
  137loPI    C2 2178   8.328  11.019  11.113  0.0605 -0.3487  0.0746
  137loPI    C3 2179   8.678  10.984  11.305  0.0723  0.3960  0.2208
  137loPI   PO4 2180   8.579  11.194  10.712  0.1521  0.2363 -0.4096
  137loPI   GL1 2181   8.172  11.190  10.413 -0.0078  0.2652 -0.0615
  137loPI   GL2 2182   7.827  11.327  10.455 -0.0054 -0.3469  0.1161
  137loPI   C1A 2183   8.353  11.262   9.942  0.1925 -0.0097 -0.0641
  137loPI   C2A 2184   8.410  11.250   9.450  0.0837 -0.1234 -0.1016
  137loPI   C3A 2185   8.345  11.237   8.956  0.5227 -0.1354  0.1927
  137loPI   C4A 2186   8.235  11.134   8.518  0.3726 -0.1062 -0.4579
  137loPI   C5A 2187   8.428  11.062   8.160 -0.3843  0.1208  0.0530
  137loPI   C6A 2188   8.599  11.475   8.106  0.0679  0.0108  0.1413
  137loPI   C1B 2189   7.468  11.461  10.170 -0.0898 -0.2690 -0.2741
  137loPI   C2B 2190   7.489  11.474   9.758  0.0938 -0.2176  0.1764
  137loPI   C3B 2191   7.539  11.447   9.401 -0.1933 -0.0786  0.2479
  137loPI   C4B 2192   7.442  11.487   9.007  0.0785  0.1075  0.2042
  138loPI    C1 2193   9.097   7.494  11.067 -0.0108  0.1021 -0.0361
  138loPI    C2 2194   9.379   7.210  11.055 -0.1739 -0.0515 -0.3849
  138loPI    C3 2195   9.319   7.419  11.391 -0.0473 -0.4241 -0.1245
  138loPI   PO4 2196   9.145   7.637  10.758 -0.2740  0.2010  0.1325
  138loPI   GL1 2197   9.367   7.789  10.446  0.5754 -0.0041  0.1791
  138loPI   GL2 2198   9.074   7.704  10.256  0.2320 -0.0880  0.0356
  138loPI   C1A 2199   9.491   7.426  10.134 -0.1743  0.1744 -0.0163
  138loPI   C2A 2200   9.593   7.430   9.692  0.2401  0.3068  0.1062
  138loPI   C3A 2201   9.583   7.467   9.231  0.1229  0.0486 -0.3865
  138loPI   C4A 2202   9.512   7.369   8.883 -0.0058  0.0059  0.1615
  138loPI   C5A 2203   9.489   7.462   8.463 -0.3668  0.1270  0.1759
  138loPI   C6A 2204   9.363   7.330   7.988 -0.3104  0.4255  0.0932
  138loPI   C1B 2205   8.977   7.398  10.024 -0.1000 -0.0612 -0.1007
  138loPI   C2B 2206   8.864   7.147   9.681  0.1579  0.0656 -0.0721
  138loPI   C3B 2207   8.863   7.011   9.275 -0.0729 -0.0761  0.0685
  138loPI   C4B 2208   8.810   6.980   8.783 -0.1465  0.0049  0.0619
  139loPI    C1 2209  14.295   3.452  10.718  0.1024 -0.0695  0.2581
  139loPI    C2 2210  14.512   3.778  10.637 -0.2822  0.1145 -0.0695
  139loPI    C3 2211  14.417   3.690  11.015  0.0370  0.2383  0.0430
  139loPI   PO4 2212  14.021   3.441  10.581 -0.0615  0.0605  0.0847
  139loPI   GL1 2213  13.816   3.510  10.218 -0.0608  0.1759  0.3535
  139loPI   GL2 2214  13.539   3.668  10.173  0.2561 -0.3119  0.1563
  139loPI   C1A 2215  13.797   3.565   9.708 -0.3244  0.1481 -0.2003
  139loPI   C2A 2216  13.582   3.502   9.301 -0.0836  0.0981  0.1750
  139loPI   C3A 2217  13.576   3.617   8.841 -0.1544  0.1973 -0.0796
  139loPI   C4A 2218  13.734   3.610   8.362  0.0459  0.2127  0.3866
  139loPI   C5A 2219  13.675   3.921   8.020  0.0756 -0.0857 -0.1408
  139loPI   C6A 2220  13.732   4.200   7.780 -0.5001  0.0753  0.0978
  139loPI   C1B 2221  13.381   3.810   9.713  0.1572 -0.1440  0.0664
  139loPI   C2B 2222  13.226   3.910   9.259 -0.0379  0.0705 -0.4466
  139loPI   C3B 2223  13.156   4.066   8.788  0.2056  0.1668  0.0046
  139loPI   C4B 2224  13.382   3.952   8.436  0.0974 -0.0541  0.2795
  140loPI    C1 2225  17.532  14.411  11.203  0.0878 -0.0199  0.0607
  140loPI    C2 2226  17.402  14.623  11.516 -0.1167  0.0308 -0.0566
  140loPI    C3 2227  17.225  14.277  11.423  0.1819 -0.1681  0.1028
  140loPI   PO4 2228  17.495  14.518  10.963  0.3388 -0.0670  0.1481
  140loPI   GL1 2229  17.472  14.622  10.486  0.1932  0.2428  0.1107
  140loPI   GL2 2230  17.822  14.468  10.567 -0.1125  0.2169 -0.2062
  140loPI   C1A 2231  17.588  14.351  10.094 -0.0092 -0.4557  0.0766
  140loPI   C2A 2232  17.618  14.213   9.628 -0.1614  0.4437  0.0665
  140loPI   C3A 2233  17.620  14.186   9.144  0.2788 -0.0110 -0.0088
  140loPI   C4A 2234  17.681  14.305   8.772 -0.2077 -0.1072  0.0841
  140loPI   C5A 2235  17.988  14.510   8.517 -0.2198 -0.0603  0.0036
  140loPI   C6A 2236  18.127  14.818   8.341  0.0746  0.2026  0.0248
  140loPI   C1B 2237  18.055  14.395  10.248 -0.0108  0.0886 -0.1195
  140loPI   C2B 2238  18.144  14.439   9.815  0.0944  0.1056 -0.2439
  140loPI   C3B 2239  18.176  14.393   9.459  0.3245 -0.2145 -0.1587
  140loPI   C4B 2240  18.181  14.496   9.013 -0.1761 -0.1278 -0.1251
  141loPI    C1 2241   6.185  12.166  10.745 -0.1911  0.1146  0.0782
  141loPI    C2 2242   6.285  12.193  11.131 -0.0594 -0.0672  0.0580
  141loPI    C3 2243   5.944  12.012  11.026 -0.1765  0.1276  0.0978
  141loPI   PO4 2244   6.250  12.346  10.633 -0.0075 -0.1073  0.0067
  141loPI   GL1 2245   6.180  12.522  10.229 -0.1926 -0.1404  0.4301
  141loPI   GL2 2246   5.874  12.503  10.162 -0.1966 -0.1956 -0.0546
  141loPI   C1A 2247   6.392  12.513   9.882  0.1021  0.1261 -0.0073
  141loPI   C2A 2248   6.344  12.592   9.427 -0.1720  0.1131 -0.1366
  141loPI   C3A 2249   6.354  12.456   9.033  0.1052 -0.1537 -0.0631
  141loPI   C4A 2250   6.195  12.481   8.627 -0.1320 -0.0369  0.5456
  141loPI   C5A 2251   6.324  12.480   8.210 -0.1571  0.2762  0.1266
  141loPI   C6A 2252   6.601  12.628   7.763  0.0638  0.1671  0.0865
  141loPI   C1B 2253   5.923  12.417   9.713  0.1989  0.2401 -0.0212
  141loPI   C2B 2254   5.933  12.303   9.318 -0.0053 -0.2683 -0.2156
  141loPI   C3B 2255   5.806  12.281   8.858  0.1848  0.4097  0.2564
  141loPI   C4B 2256   5.726  12.246   8.419 -0.1377 -0.1117 -0.0806
  142loPI    C1 2257  14.801  13.234  11.021  0.0385 -0.1950 -0.4056
  142loPI    C2 2258  14.691  12.992  11.319 -0.2187 -0.0233 -0.3581
  142loPI    C3 2259  14.755  13.381  11.390 -0.0023 -0.0369 -0.4726
  142loPI   PO4 2260  14.996  13.165  10.897 -0.2095 -0.0157 -0.1272
  142loPI   GL1 2261  15.135  12.934  10.575  0.0567 -0.0271  0.1036
  142loPI   GL2 2262  14.916  12.643  10.443 -0.1758  0.2586  0.1877
  142loPI   C1A 2263  15.022  13.076  10.169  0.2866 -0.0881  0.0088
  142loPI   C2A 2264  15.131  12.992   9.775 -0.0346  0.1438  0.1437
  142loPI   C3A 2265  15.144  12.983   9.321 -0.0141  0.3296  0.1214
  142loPI   C4A 2266  15.116  12.937   8.871 -0.0740  0.2213 -0.1297
  142loPI   C5A 2267  15.133  12.897   8.365 -0.0502 -0.0961 -0.2528
  142loPI   C6A 2268  15.070  12.823   7.915 -0.0199 -0.1491 -0.0947
  142loPI   C1B 2269  15.074  12.517  10.022  0.0518 -0.0362 -0.0761
  142loPI   C2B 2270  15.040  12.525   9.548  0.2094 -0.0801  0.1720
  142loPI   C3B 2271  15.006  12.443   9.105  0.1484  0.1405 -0.0653
  142loPI   C4B 2272  15.058  12.404   8.656 -0.0947  0.3662 -0.2568
  143loPI    C1 2273  17.550   4.207  10.712 -0.1576  0.3080 -0.0266
  143loPI    C2 2274  17.184   4.054  10.760  0.1211 -0.3178  0.2077
  143loPI    C3 2275  17.390   4.184  11.078  0.1610 -0.1000  0.0947
  143loPI   PO4 2276  17.562   4.369  10.499  0.2725  0.0490 -0.3196
  143loPI   GL1 2277  17.527   4.554  10.173 -0.0336  0.0814  0.2474
  143loPI   GL2 2278  17.678   4.851  10.177  0.0190 -0.3606 -0.4402
  143loPI   C1A 2279  17.457   4.716   9.724  0.0390 -0.0717  0.0628
  143loPI   C2A 2280  17.451   4.713   9.313  0.2356 -0.1543 -0.1691
  143loPI   C3A 2281  17.435   4.660   8.895  0.2223  0.1608 -0.1895
  143loPI   C4A 2282  17.477   4.701   8.473 -0.1865  0.1304 -0.2189
  143loPI   C5A 2283  17.143   4.594   8.146  0.1810 -0.0419 -0.0601
  143loPI   C6A 2284  16.900   4.565   7.758 -0.4262 -0.0748 -0.2469
  143loPI   C1B 2285  17.796   5.017   9.705  0.3242 -0.0272 -0.0242
  143loPI   C2B 2286  17.831   4.997   9.269 -0.2213  0.1784  0.0782
  143loPI   C3B 2287  17.850   5.012   8.838  0.0434  0.1355 -0.2572
  143loPI   C4B 2288  17.866   5.092   8.421  0.0080  0.2805 -0.1603
  144loPI    C1 2289  10.541   0.493  10.822 -0.0121  0.1655 -0.1558
  144loPI    C2 2290  10.371   0.260  11.098 -0.0351  0.3728  0.0075
  144loPI    C3 2291  10.221   0.623  11.023 -0.0895  0.2799 -0.3501
  144loPI   PO4 2292  10.659   0.308  10.697  0.2698 -0.1590  0.2095
  144loPI   GL1 2293  10.669   0.314  10.240  0.3523  0.1216 -0.0117
  144loPI   GL2 2294  11.038   0.348  10.279 -0.0885 -0.0914 -0.0801
  144loPI   C1A 2295  10.780   0.110   9.823  0.2204  0.0579  0.0151
  144loPI   C2A 2296  10.743  -0.045   9.484 -0.3391 -0.2465  0.1045
  144loPI   C3A 2297  10.640  -0.165   9.038  0.0969 -0.1450 -0.1040
  144loPI   C4A 2298  10.832  -0.354   8.607 -0.0683 -0.1636 -0.3442
  144loPI   C5A 2299  11.214  -0.408   8.456 -0.1979  0.3079 -0.1963
  144loPI   C6A 2300  11.613  -0.286   8.348  0.1537 -0.0590 -0.1513
  144loPI   C1B 2301  11.250   0.049   9.944 -0.0341  0.0265  0.0411
  144loPI   C2B 2302  11.257   0.023   9.422  0.2249  0.0221  0.0375
  144loPI   C3B 2303  11.120  -0.042   8.967 -0.0970  0.0344  0.0881
  144loPI   C4B 2304  10.860   0.190   8.725 -0.3546  0.0252  0.0903
  145loPI    C1 2305  14.504   6.689  11.096  0.2012 -0.4470 -0.0623
  145loPI    C2 2306  14.860   6.812  10.961  0.0692  0.1653  0.1148
  145loPI    C3 2307  14.816   6.710  11.345  0.0766 -0.0236  0.0667
  145loPI   PO4 2308  14.374   6.759  10.801 -0.1917 -0.2080  0.2125
  145loPI   GL1 2309  14.343   6.672  10.432  0.1460 -0.1641 -0.0100
  145loPI   GL2 2310  14.702   6.955  10.457 -0.0349 -0.3829  0.0308
  145loPI   C1A 2311  14.388   6.838   9.997  0.1090 -0.1212  0.1565
  145loPI   C2A 2312  14.298   6.789   9.550 -0.0449  0.1763 -0.1693
  145loPI   C3A 2313  14.333   6.770   9.187 -0.0453  0.1419 -0.0220
  145loPI   C4A 2314  14.347   6.822   8.763 -0.0897 -0.0017 -0.0951
  145loPI   C5A 2315  14.286   6.791   8.293  0.1757  0.1905 -0.1863
  145loPI   C6A 2316  14.099   6.807   7.986 -0.0167 -0.0961  0.2237
  145loPI   C1B 2317  14.772   7.197  10.102  0.2835  0.0028  0.2591
  145loPI   C2B 2318  14.681   7.179   9.611  0.0814  0.1309  0.0968
  145loPI   C3B 2319  14.712   7.084   9.137  0.0436  0.2642  0.1301
  145loPI   C4B 2320  14.705   7.225   8.746  0.1215  0.1702 -0.1311
  146loPI    C1 2321   9.364   5.746  10.878  0.2933  0.2644 -0.0654
  146loPI    C2 2322   9.269   5.499  10.578  0.1420  0.1543  0.0710
  146loPI    C3 2323   9.556   5.398  10.837  0.1109  0.1419  0.1007
  146loPI   PO4 2324   9.371   5.925  10.801  0.0949  0.1122  0.0266
  146loPI   GL1 2325   9.432   6.028  10.365  0.1420 -0.0320 -0.3207
  146loPI   GL2 2326   9.607   6.393  10.401  0.0430  0.0502  0.5137
  146loPI   C1A 2327   9.323   6.101   9.952 -0.0745  0.1786  0.2890
  146loPI   C2A 2328   9.230   6.185   9.475 -0.2751 -0.3032  0.1373
  146loPI   C3A 2329   9.309   6.046   9.035  0.0566  0.0107  0.2713
  146loPI   C4A 2330   9.276   6.009   8.640  0.0611 -0.3625  0.4609
  146loPI   C5A 2331   9.254   6.018   8.206  0.0918  0.0621 -0.2851
  146loPI   C6A 2332   9.501   6.002   7.821  0.0014 -0.0730  0.1032
  146loPI   C1B 2333   9.610   6.511   9.996  0.2641 -0.0705 -0.0917
  146loPI   C2B 2334   9.624   6.601   9.588  0.1338  0.3107  0.2972
  146loPI   C3B 2335   9.598   6.542   9.192 -0.3670 -0.2587  0.2610
  146loPI   C4B 2336   9.549   6.444   8.759 -0.1758  0.1193 -0.2198
  147loPI    C1 2337   8.328  14.898  10.885 -0.1108 -0.1870  0.0651
  147loPI    C2 2338   8.340  15.048  11.256  0.1107 -0.0691  0.0120
  147loPI    C3 2339   8.361  14.653  11.199 -0.2045 -0.1069  0.1381
  147loPI   PO4 2340   8.534  15.098  10.787 -0.1263 -0.3347 -0.1663
  147loPI   GL1 2341   8.740  15.046  10.414  0.0535  0.0959 -0.1351
  147loPI   GL2 2342   9.098  14.862  10.404  0.0352 -0.1430  0.0701
  147loPI   C1A 2343   8.847  15.012   9.983  0.1133 -0.1933 -0.2759
  147loPI   C2A 2344   8.683  14.636   9.654 -0.4222 -0.1505  0.1246
  147loPI   C3A 2345   8.662  14.589   9.233 -0.0554  0.1990  0.1750
  147loPI   C4A 2346   8.414  14.571   8.869 -0.2569  0.3933  0.1653
  147loPI   C5A 2347   8.232  14.733   8.488  0.1068 -0.0606 -0.1804
  147loPI   C6A 2348   8.144  14.723   8.007  0.3553 -0.0005 -0.1374
  147loPI   C1B 2349   9.213  14.695  10.022  0.1603 -0.0147 -0.0348
  147loPI   C2B 2350   9.207  14.743   9.587 -0.0513  0.0022 -0.0920
  147loPI   C3B 2351   8.838  15.054   9.419  0.1775 -0.1979 -0.1082
  147loPI   C4B 2352   8.569  15.396   9.631 -0.0248  0.1924 -0.2621
  148loPI    C1 2353   6.423   8.845  11.161  0.1860  0.2052  0.0327
  148loPI    C2 2354   6.518   8.951  11.535 -0.2966 -0.0644  0.2417
  148loPI    C3 2355   6.511   8.565  11.433 -0.0073  0.0143 -0.0978
  148loPI   PO4 2356   6.543   9.009  11.015 -0.2737  0.0150  0.1298
  148loPI   GL1 2357   6.562   9.067  10.526 -0.0594 -0.0780  0.0439
  148loPI   GL2 2358   6.579   9.484  10.402  0.2586  0.1997 -0.3566
  148loPI   C1A 2359   6.479   9.041  10.064  0.3133  0.1523 -0.1226
  148loPI   C2A 2360   6.571   9.050   9.611 -0.0337 -0.0671 -0.2241
  148loPI   C3A 2361   6.589   8.910   9.227 -0.0657  0.0030  0.0841
  148loPI   C4A 2362   6.651   8.932   8.859  0.1872 -0.1989  0.0040
  148loPI   C5A 2363   6.841   8.982   8.467 -0.1598  0.2523  0.0559
  148loPI   C6A 2364   7.019   9.095   8.120  0.1757  0.0280  0.2040
  148loPI   C1B 2365   6.755   9.494   9.985  0.0501  0.1940 -0.0048
  148loPI   C2B 2366   6.614   9.791   9.662 -0.1078 -0.0402  0.2799
  148loPI   C3B 2367   6.719   9.802   9.204 -0.1312 -0.1984 -0.1027
  148loPI   C4B 2368   6.722   9.740   8.787  0.4248 -0.0591 -0.3150
  149loPI    C1 2369   4.126  11.192  10.468 -0.2178 -0.0436  0.2673
  149loPI    C2 2370   3.839  11.470  10.440 -0.0276  0.1311 -0.0019
  149loPI    C3 2371   4.128  11.508  10.713 -0.0043  0.1966 -0.0354
  149loPI   PO4 2372   4.266  11.158  10.283 -0.0790 -0.0022  0.1055
  149loPI   GL1 2373   4.443  11.052   9.919  0.0320  0.2583  0.1218
  149loPI   GL2 2374   4.485  11.318   9.740  0.0791 -0.0856  0.1021
  149loPI   C1A 2375   4.309  10.965   9.491  0.0493  0.2227 -0.0921
  149loPI   C2A 2376   4.205  11.112   9.036  0.0210 -0.0366  0.0937
  149loPI   C3A 2377   4.251  11.180   8.525 -0.2095 -0.1385 -0.0576
  149loPI   C4A 2378   4.079  11.149   8.181 -0.1229  0.3056  0.1054
  149loPI   C5A 2379   4.013  10.837   7.862  0.1192 -0.0834  0.1322
  149loPI   C6A 2380   3.997  10.409   7.832 -0.2010  0.0548  0.0551
  149loPI   C1B 2381   4.658  11.387   9.417  0.4250 -0.1709  0.0840
  149loPI   C2B 2382   4.716  11.335   8.967  0.3848 -0.0516  0.0384
  149loPI   C3B 2383   4.738  11.450   8.438  0.0072 -0.2145 -0.1045
  149loPI   C4B 2384   4.557  11.763   8.042 -0.3081  0.1231 -0.0672
  150loPI    C1 2385   3.092  12.828  10.693  0.2226 -0.1035 -0.1279
  150loPI    C2 2386   3.053  13.182  10.511  0.0883 -0.0422  0.0179
  150loPI    C3 2387   3.189  13.165  10.886  0.1278 -0.1485 -0.0010
  150loPI   PO4 2388   3.197  12.712  10.489  0.1888 -0.1173 -0.1302
  150loPI   GL1 2389   3.010  12.713  10.159  0.3684  0.0993  0.0373
  150loPI   GL2 2390   2.686  12.656  10.052  0.2401  0.0260  0.0361
  150loPI   C1A 2391   3.236  12.732   9.760  0.0329  0.0568  0.1714
  150loPI   C2A 2392   3.202  12.755   9.404 -0.3615  0.0442 -0.0036
  150loPI   C3A 2393   3.088  12.734   9.089 -0.1691  0.0051 -0.1578
  150loPI   C4A 2394   3.010  12.499   8.703 -0.1428  0.2504 -0.3161
  150loPI   C5A 2395   2.905  12.309   8.285 -0.1747 -0.0498  0.1242
  150loPI   C6A 2396   3.075  12.057   7.970 -0.0013 -0.1125  0.1923
  150loPI   C1B 2397   2.730  12.494   9.649 -0.0536  0.0233  0.3611
  150loPI   C2B 2398   2.649  12.146   9.445  0.2598 -0.0918  0.0210
  150loPI   C3B 2399   2.354  11.875   9.220  0.1380 -0.2667  0.1936
  150loPI   C4B 2400   2.111  11.917   8.858  0.2221  0.1698  0.0342
  151loPI    C1 2401  11.661  14.254  10.666 -0.0512 -0.0531  0.1451
  151loPI    C2 2402  11.616  14.075  11.021  0.2482 -0.1901  0.1167
  151loPI    C3 2403  11.894  14.359  10.974  0.0749 -0.0314  0.0430
  151loPI   PO4 2404  11.548  14.082  10.513 -0.1700 -0.1014 -0.2009
  151loPI   GL1 2405  11.746  13.786  10.293 -0.0840  0.0805 -0.1228
  151loPI   GL2 2406  11.752  13.477  10.373  0.1903  0.1346 -0.0656
  151loPI   C1A 2407  11.705  13.734   9.812  0.1211 -0.0354  0.1327
  151loPI   C2A 2408  11.667  13.746   9.359 -0.2330 -0.0530 -0.2169
  151loPI   C3A 2409  11.692  13.671   8.887  0.1125 -0.1750  0.3487
  151loPI   C4A 2410  11.711  13.708   8.446 -0.0197  0.0675 -0.0609
  151loPI   C5A 2411  11.751  14.004   8.155  0.0163  0.1267 -0.2015
  151loPI   C6A 2412  11.749  14.073   7.759 -0.0138 -0.0674 -0.1484
  151loPI   C1B 2413  11.899  13.302  10.020 -0.3091  0.1634 -0.0101
  151loPI   C2B 2414  12.082  13.370   9.573  0.0094  0.3645 -0.1036
  151loPI   C3B 2415  12.100  13.411   9.104  0.3132 -0.2140 -0.1422
  151loPI   C4B 2416  12.061  13.423   8.705  0.0975 -0.2808 -0.1455
  152loPI    C1 2417   1.617  18.114  10.724 -0.0522  0.0155  0.0014
  152loPI    C2 2418   1.694  18.009  11.103 -0.1873 -0.1177 -0.0071
  152loPI    C3 2419   1.560  18.377  11.019 -0.2939 -0.1339  0.0904
  152loPI   PO4 2420   1.854  17.932  10.598  0.0125 -0.0778  0.1338
  152loPI   GL1 2421   1.959  18.104  10.165  0.2485  0.1394 -0.1102
  152loPI   GL2 2422   2.013  17.800  10.091  0.0345  0.0331 -0.1612
  152loPI   C1A 2423   2.003  18.444   9.891  0.1368  0.1068  0.3121
  152loPI   C2A 2424   2.131  18.403   9.432  0.0418 -0.0105  0.1353
  152loPI   C3A 2425   2.076  18.471   9.100  0.3419  0.0430 -0.0655
  152loPI   C4A 2426   2.099  18.493   8.715  0.1813  0.1676  0.0791
  152loPI   C5A 2427   2.126  18.698   8.238 -0.0755 -0.0658 -0.1824
  152loPI   C6A 2428   2.508  18.687   7.952 -0.0965  0.5560 -0.0151
  152loPI   C1B 2429   1.983  17.880   9.580 -0.1747  0.0434 -0.3129
  152loPI   C2B 2430   2.051  17.915   9.130 -0.3631  0.1129  0.0760
  152loPI   C3B 2431   2.032  17.974   8.584  0.2893 -0.1528 -0.4091
  152loPI   C4B 2432   1.898  17.988   8.128 -0.1263 -0.1380 -0.1464
  153loPI    C1 2433  18.246  18.020  10.488 -0.0885  0.0565 -0.0037
  153loPI    C2 2434  17.859  18.105  10.431 -0.0402  0.1348 -0.2232
  153loPI    C3 2435  18.040  18.218  10.769 -0.1746  0.2189 -0.1786
  153loPI   PO4 2436  18.347  18.087  10.269 -0.0598 -0.2161  0.1013
  153loPI   GL1 2437  18.401  17.948   9.812  0.0246  0.1274 -0.0930
  153loPI   GL2 2438  18.575  18.237   9.879  0.1822 -0.2100 -0.0227
  153loPI   C1A 2439  18.501  17.728   9.480 -0.1845  0.1358  0.0344
  153loPI   C2A 2440  18.471  17.714   9.050 -0.0819 -0.3179  0.0004
  153loPI   C3A 2441  18.118  17.633   8.805 -0.3891 -0.1261  0.2769
  153loPI   C4A 2442  17.865  17.664   8.526  0.1445 -0.0457 -0.0648
  153loPI   C5A 2443  17.489  17.850   8.527 -0.1538  0.2119  0.0063
  153loPI   C6A 2444  17.133  18.151   8.585 -0.1402  0.2000 -0.0557
  153loPI   C1B 2445  18.588  18.191   9.414 -0.4881 -0.0092 -0.2507
  153loPI   C2B 2446  18.563  18.246   9.001  0.2402  0.2365 -0.0219
  153loPI   C3B 2447  18.487  18.018   8.601  0.1013 -0.0672  0.2002
  153loPI   C4B 2448  18.218  17.925   8.252  0.0151  0.2037 -0.0903
  154loPI    C1 2449   0.072  11.888  11.131  0.0706  0.1166  0.0941
  154loPI    C2 2450   0.190  11.753  11.488  0.1428  0.1240  0.0732
  154loPI    C3 2451  -0.179  11.672  11.356  0.3326 -0.4510 -0.1391
  154loPI   PO4 2452   0.256  11.835  10.937  0.0581  0.2139  0.2863
  154loPI   GL1 2453   0.224  11.705  10.497  0.0427  0.1305 -0.1190
  154loPI   GL2 2454   0.082  11.388  10.451 -0.0992 -0.2116  0.1292
  154loPI   C1A 2455   0.426  11.833  10.067  0.0804  0.2129 -0.3840
  154loPI   C2A 2456   0.682  11.874   9.721 -0.0798 -0.1945 -0.1201
  154loPI   C3A 2457   0.692  11.891   9.297  0.1302 -0.0125  0.0340
  154loPI   C4A 2458   0.775  11.900   8.868  0.3170  0.1549 -0.3714
  154loPI   C5A 2459   0.660  11.448   8.662 -0.0333 -0.0329 -0.0832
  154loPI   C6A 2460   0.264  11.347   8.604  0.1893 -0.2667  0.0876
  154loPI   C1B 2461   0.027  11.032  10.288  0.3931  0.3260  0.0093
  154loPI   C2B 2462   0.056  11.014   9.943 -0.0457 -0.0051 -0.2042
  154loPI   C3B 2463   0.083  11.125   9.511  0.3590  0.0319  0.0139
  154loPI   C4B 2464   0.075  11.274   9.130  0.1814  0.0864  0.2343
  155loPI    C1 2465   7.536   5.523  11.074 -0.0663  0.1842  0.0455
  155loPI    C2 2466   7.281   5.373  11.344 -0.1033 -0.0471 -0.1150
  155loPI    C3 2467   7.669   5.408  11.433 -0.1068 -0.1711 -0.0492
  155loPI   PO4 2468   7.534   5.363  10.870 -0.2990  0.1815  0.2523
  155loPI   GL1 2469   7.419   5.306  10.388 -0.0862 -0.0073 -0.2740
  155loPI   GL2 2470   7.421   5.610  10.462  0.1549 -0.1332  0.0833
  155loPI   C1A 2471   7.161   5.385   9.986  0.0079  0.0705  0.1331
  155loPI   C2A 2472   7.177   5.194   9.539  0.2896 -0.0958  0.0737
  155loPI   C3A 2473   7.218   5.199   9.141  0.0236  0.1780  0.1138
  155loPI   C4A 2474   7.219   5.180   8.737  0.1896 -0.0264  0.0298
  155loPI   C5A 2475   7.100   5.221   8.352 -0.1853  0.1526  0.1217
  155loPI   C6A 2476   7.054   5.303   7.990  0.1832 -0.1726  0.1213
  155loPI   C1B 2477   7.464   5.733  10.032  0.0248 -0.1017  0.2216
  155loPI   C2B 2478   7.522   5.767   9.662 -0.0762  0.0436 -0.1353
  155loPI   C3B 2479   7.496   5.636   9.260  0.1094  0.2986 -0.1100
  155loPI   C4B 2480   7.541   5.580   8.805 -0.3099 -0.0152 -0.0172
  156loPI    C1 2481  16.982  14.459  10.939 -0.1039 -0.1097 -0.5979
  156loPI    C2 2482  17.156  14.101  10.904  0.1242 -0.0680 -0.0053
  156loPI    C3 2483  16.823  14.142  11.123  0.1923  0.1085  0.0671
  156loPI   PO4 2484  16.960  14.546  10.568 -0.1245  0.0053  0.1477
  156loPI   GL1 2485  16.521  14.766  10.432 -0.0010  0.0629 -0.2948
  156loPI   GL2 2486  16.586  15.054  10.439 -0.3094 -0.1825  0.2338
  156loPI   C1A 2487  16.411  14.863   9.935  0.4228  0.2208  0.2050
  156loPI   C2A 2488  16.355  14.838   9.473 -0.2654 -0.0705  0.3687
  156loPI   C3A 2489  16.335  14.783   8.972  0.1667 -0.0193  0.1153
  156loPI   C4A 2490  16.331  14.804   8.543 -0.0565 -0.1162 -0.2304
  156loPI   C5A 2491  16.550  14.767   8.212  0.1158 -0.0040 -0.1632
  156loPI   C6A 2492  16.681  14.410   7.976  0.0156  0.2360 -0.1671
  156loPI   C1B 2493  16.468  15.294  10.065  0.1189 -0.0827  0.0149
  156loPI   C2B 2494  16.531  15.331   9.748 -0.2283 -0.1433  0.3690
  156loPI   C3B 2495  16.558  15.319   9.331  0.3207 -0.0826  0.0100
  156loPI   C4B 2496  16.488  15.317   8.931  0.1945 -0.2781 -0.1800
  157loPI    C1 2497  14.111  17.347  11.009  0.1614  0.0183  0.0222
  157loPI    C2 2498  14.215  17.731  11.046  0.2081  0.0031  0.0497
  157loPI    C3 2499  14.030  17.545  11.347 -0.0354  0.0720 -0.0546
  157loPI   PO4 2500  13.978  17.321  10.755  0.0869  0.0015 -0.3008
  157loPI   GL1 2501  13.885  17.223  10.412 -0.2261  0.0838  0.1463
  157loPI   GL2 2502  13.534  17.097  10.584  0.1340  0.1018  0.3084
  157loPI   C1A 2503  13.826  17.194   9.928 -0.0323  0.0365 -0.0473
  157loPI   C2A 2504  13.960  16.840   9.699 -0.0615  0.1026  0.1009
  157loPI   C3A 2505  14.295  16.659   9.627 -0.0132  0.0567 -0.1212
  157loPI   C4A 2506  14.407  16.605   9.274  0.2513  0.0949  0.4037
  157loPI   C5A 2507  14.516  16.524   8.853  0.0776 -0.1253  0.0564
  157loPI   C6A 2508  14.682  16.726   8.487  0.0265 -0.2130  0.1307
  157loPI   C1B 2509  13.443  16.925  10.096 -0.0458  0.0371 -0.2743
  157loPI   C2B 2510  13.512  16.740   9.795 -0.0424 -0.0707  0.2428
  157loPI   C3B 2511  13.532  16.613   9.343  0.2979 -0.2628  0.0417
  157loPI   C4B 2512  13.567  16.180   9.110  0.0160 -0.1840 -0.1177
  158loPI    C1 2513  16.051  16.328  10.778 -0.0780  0.1596 -0.0701
  158loPI    C2 2514  16.040  16.215  11.162 -0.2002  0.0118 -0.1163
  158loPI    C3 2515  15.836  16.538  11.043  0.0273  0.1958 -0.0129
  158loPI   PO4 2516  16.089  16.098  10.647 -0.1114  0.0511  0.3261
  158loPI   GL1 2517  16.279  15.970  10.335  0.1535  0.0465 -0.2109
  158loPI   GL2 2518  16.176  15.655  10.157  0.0690  0.2674 -0.3266
  158loPI   C1A 2519  16.263  16.080   9.874  0.0954  0.1535 -0.1898
  158loPI   C2A 2520  16.261  16.079   9.455 -0.2103 -0.2896 -0.0362
  158loPI   C3A 2521  16.192  16.203   9.109 -0.0500 -0.3631 -0.0809
  158loPI   C4A 2522  16.179  16.253   8.722  0.0736  0.0303  0.1415
  158loPI   C5A 2523  16.273  16.107   8.310  0.1236  0.2706 -0.2057
  158loPI   C6A 2524  16.025  15.850   7.967  0.0440  0.2593 -0.2637
  158loPI   C1B 2525  16.072  15.648   9.867  0.0059  0.3166 -0.0376
  158loPI   C2B 2526  16.133  15.611   9.465 -0.0185  0.2008 -0.0486
  158loPI   C3B 2527  16.091  15.605   9.032 -0.1681  0.3279  0.0723
  158loPI   C4B 2528  16.090  15.663   8.606 -0.2711  0.0943  0.2420
  159loPI    C1 2529   4.203   6.519  10.837 -0.0752  0.0692 -0.0360
  159loPI    C2 2530   4.311   6.456  11.218 -0.1265  0.2631  0.0117
  159loPI    C3 2531   4.404   6.188  10.936 -0.2054  0.0537  0.1831
  159loPI   PO4 2532   4.252   6.757  10.799 -0.1880 -0.1023  0.0268
  159loPI   GL1 2533   4.253   6.936  10.486 -0.1342 -0.0301 -0.1879
  159loPI   GL2 2534   4.402   7.040  10.292  0.0051 -0.1587 -0.0266
  159loPI   C1A 2535   4.096   6.553  10.083 -0.2916 -0.1765 -0.0698
  159loPI   C2A 2536   4.188   6.557   9.639  0.4949  0.0113 -0.1357
  159loPI   C3A 2537   4.245   6.556   9.151  0.0230  0.4360  0.0755
  159loPI   C4A 2538   4.243   6.579   8.728 -0.2145  0.0068  0.0089
  159loPI   C5A 2539   4.416   6.479   8.290 -0.2093 -0.0318 -0.1297
  159loPI   C6A 2540   4.400   6.245   7.919  0.1940  0.4314 -0.1183
  159loPI   C1B 2541   4.405   7.003   9.868 -0.0771 -0.0164 -0.1105
  159loPI   C2B 2542   4.493   6.917   9.417 -0.2700 -0.0995  0.0460
  159loPI   C3B 2543   4.564   6.951   9.043 -0.0916 -0.0488 -0.1544
  159loPI   C4B 2544   4.588   6.955   8.600  0.1012 -0.0609 -0.0785
  160loPI    C1 2545   5.224   2.612  10.751  0.1061 -0.0388 -0.0590
  160loPI    C2 2546   4.872   2.523  10.919  0.0516  0.0461 -0.1276
  160loPI    C3 2547   5.201   2.551  11.146 -0.0022  0.0555 -0.0502
  160loPI   PO4 2548   5.172   2.546  10.487 -0.2668  0.0910 -0.0996
  160loPI   GL1 2549   5.272   2.706  10.109 -0.1671 -0.0245  0.1270
  160loPI   GL2 2550   5.565   2.637  10.147  0.1255  0.0324 -0.0426
  160loPI   C1A 2551   5.339   2.434   9.789  0.0260  0.1484  0.0551
  160loPI   C2A 2552   5.096   2.229   9.430 -0.0242 -0.1779 -0.0385
  160loPI   C3A 2553   5.016   1.920   9.120 -0.1215  0.0209  0.1500
  160loPI   C4A 2554   4.921   1.856   8.695  0.2483 -0.0522 -0.3391
  160loPI   C5A 2555   4.850   1.776   8.218 -0.1677  0.3614  0.1441
  160loPI   C6A 2556   4.658   1.839   7.748 -0.0115  0.1273 -0.1233
  160loPI   C1B 2557   5.601   2.807   9.698 -0.1364 -0.2396  0.1117
  160loPI   C2B 2558   5.380   2.734   9.269  0.2945  0.0877 -0.1078
  160loPI   C3B 2559   5.409   2.716   8.866  0.0540  0.2123 -0.0964
  160loPI   C4B 2560   5.293   2.841   8.493  0.1797  0.1719  0.0563
  161loPI    C1 2561  17.697   0.816  10.992  0.0781  0.0178 -0.0073
  161loPI    C2 2562  17.455   0.604  11.228  0.0878 -0.1472 -0.1437
  161loPI    C3 2563  17.705   0.871  11.388 -0.1762  0.0194 -0.0005
  161loPI   PO4 2564  17.631   0.843  10.517  0.0925 -0.0236 -0.3301
  161loPI   GL1 2565  17.469   0.823  10.085 -0.1380 -0.3409 -0.0610
  161loPI   GL2 2566  17.323   1.167   9.962  0.0847 -0.1470  0.2345
  161loPI   C1A 2567  17.714   0.883   9.659 -0.1453  0.0960 -0.0359
  161loPI   C2A 2568  17.951   0.720   9.272  0.3053  0.1651 -0.2597
  161loPI   C3A 2569  18.286   0.776   8.879  0.1324 -0.0142 -0.1196
  161loPI   C4A 2570  18.150   0.648   8.400  0.1219  0.0706 -0.0782
  161loPI   C5A 2571  17.974   0.859   7.999 -0.2594 -0.0750 -0.0099
  161loPI   C6A 2572  17.825   1.062   7.632  0.2839 -0.5132  0.3183
  161loPI   C1B 2573  17.371   1.261   9.501  0.1967 -0.1483 -0.2360
  161loPI   C2B 2574  17.130   1.462   9.196  0.1082  0.2562  0.0117
  161loPI   C3B 2575  16.965   1.693   8.985 -0.0663  0.1281  0.1917
  161loPI   C4B 2576  17.222   1.791   8.587  0.0837 -0.1806 -0.0797
  162loPI    C1 2577   3.749  14.622  11.094  0.0465  0.1304  0.3787
  162loPI    C2 2578   3.849  14.249  11.197  0.0483  0.0722  0.1719
  162loPI    C3 2579   3.678  14.492  11.465  0.2726  0.0051  0.3801
  162loPI   PO4 2580   3.799  14.555  10.841  0.0821  0.1989  0.1393
  162loPI   GL1 2581   3.834  14.542  10.349  0.2530  0.0727 -0.2739
  162loPI   GL2 2582   3.903  14.276  10.334 -0.2839  0.4210 -0.1078
  162loPI   C1A 2583   3.955  14.454   9.837  0.1479 -0.0058  0.0255
  162loPI   C2A 2584   3.939  14.468   9.376 -0.0214 -0.0662  0.2634
  162loPI   C3A 2585   3.890  14.450   8.947 -0.0469 -0.3202 -0.1052
  162loPI   C4A 2586   4.011  14.394   8.544 -0.1703 -0.0654  0.1537
  162loPI   C5A 2587   3.991  14.239   8.153 -0.1390 -0.1429  0.0981
  162loPI   C6A 2588   3.624  14.017   7.832 -0.4173  0.1112  0.2104
  162loPI   C1B 2589   3.922  13.932   9.938  0.0559  0.0641 -0.1907
  162loPI   C2B 2590   3.885  13.958   9.528  0.0976 -0.1076  0.1840
  162loPI   C3B 2591   3.829  13.899   9.070  0.1072  0.1002  0.2325
  162loPI   C4B 2592   3.914  13.859   8.591 -0.1769  0.0189 -0.1132
  163loPI    C1 2593  15.249   6.430  11.272  0.0035 -0.2940  0.0209
  163loPI    C2 2594  15.376   6.704  11.534 -0.1595 -0.0372 -0.1636
  163loPI    C3 2595  15.511   6.328  11.557 -0.0209  0.0283  0.1635
  163loPI   PO4 2596  15.269   6.573  11.056 -0.0715 -0.3223  0.2396
  163loPI   GL1 2597  15.365   6.735  10.617 -0.1977  0.0583 -0.1428
  163loPI   GL2 2598  15.679   6.896  10.767  0.0769  0.1090 -0.1607
  163loPI   C1A 2599  15.290   6.950  10.175  0.0725 -0.0698 -0.4007
  163loPI   C2A 2600  15.250   6.972   9.729 -0.1065  0.2486 -0.0454
  163loPI   C3A 2601  15.248   6.875   9.300  0.0390  0.0200 -0.0098
  163loPI   C4A 2602  15.132   6.969   8.890  0.2100 -0.1632  0.2442
  163loPI   C5A 2603  15.232   6.774   8.498  0.1991  0.0588  0.0820
  163loPI   C6A 2604  15.101   6.584   7.998 -0.2196 -0.0188  0.1675
  163loPI   C1B 2605  15.812   6.831  10.342  0.1295  0.2628  0.0651
  163loPI   C2B 2606  15.712   6.733   9.897 -0.0138 -0.3395  0.0476
  163loPI   C3B 2607  15.751   6.712   9.493 -0.1961  0.0606  0.0696
  163loPI   C4B 2608  15.681   6.740   9.044  0.2898 -0.0857  0.0411
  164loPI    C1 2609   5.173  13.388  10.577 -0.1656  0.0450 -0.3797
  164loPI    C2 2610   5.173  13.004  10.464  0.0412  0.0175 -0.2903
  164loPI    C3 2611   5.388  13.119  10.781 -0.0933  0.1918 -0.2611
  164loPI   PO4 2612   5.271  13.558  10.393  0.0418  0.0229  0.0261
  164loPI   GL1 2613   5.239  13.795  10.035 -0.2986  0.0819  0.0353
  164loPI   GL2 2614   5.379  14.111  10.057 -0.2040  0.0157 -0.0850
  164loPI   C1A 2615   5.224  13.515   9.704 -0.1938 -0.1185 -0.1214
  164loPI   C2A 2616   5.142  13.449   9.321 -0.2321 -0.0856 -0.1640
  164loPI   C3A 2617   5.100  13.563   8.880 -0.0876  0.0450 -0.2016
  164loPI   C4A 2618   5.149  13.411   8.486 -0.1641  0.0682  0.1997
  164loPI   C5A 2619   5.075  13.175   8.063 -0.2212 -0.0973  0.1326
  164loPI   C6A 2620   4.861  12.909   7.714 -0.3164  0.0403 -0.0708
  164loPI   C1B 2621   5.210  14.002   9.610 -0.1330  0.1052  0.0389
  164loPI   C2B 2622   5.125  13.953   9.141 -0.0330  0.2120 -0.1262
  164loPI   C3B 2623   5.258  13.969   8.634  0.2033 -0.3961 -0.0622
  164loPI   C4B 2624   5.308  14.011   8.182  0.0197  0.0649  0.2370
  165loPI    C1 2625  13.691   7.601  11.431 -0.1660  0.2175  0.2314
  165loPI    C2 2626  13.467   7.273  11.481  0.0959  0.0035  0.0312
  165loPI    C3 2627  13.718   7.389  11.770  0.1234 -0.0675  0.0360
  165loPI   PO4 2628  13.666   7.593  11.152  0.0836  0.0620 -0.1160
  165loPI   GL1 2629  13.690   7.360  10.885  0.1535  0.0844  0.0774
  165loPI   GL2 2630  13.478   7.134  10.943 -0.1264 -0.0620  0.0041
  165loPI   C1A 2631  13.762   7.501  10.449  0.1672  0.1879  0.0917
  165loPI   C2A 2632  13.801   7.631  10.016 -0.0530  0.0376 -0.1774
  165loPI   C3A 2633  13.858   7.647   9.544 -0.4293  0.0648 -0.0973
  165loPI   C4A 2634  13.819   7.519   9.178  0.1667  0.0266 -0.0813
  165loPI   C5A 2635  13.754   7.484   8.736  0.1014  0.0517 -0.3501
  165loPI   C6A 2636  13.441   7.227   8.679  0.2388 -0.1924  0.1834
  165loPI   C1B 2637  13.434   7.098  10.545 -0.1928 -0.2105 -0.1833
  165loPI   C2B 2638  13.443   7.306  10.130 -0.0191  0.2251  0.5636
  165loPI   C3B 2639  13.535   7.281   9.637 -0.2408  0.1574 -0.2135
  165loPI   C4B 2640  13.428   7.271   9.178 -0.2687  0.0850 -0.2083
  166loPI    C1 2641   9.774  11.247  10.884 -0.1926 -0.2928 -0.1209
  166loPI    C2 2642   9.458  11.377  11.093  0.0302  0.0569  0.0078
  166loPI    C3 2643   9.676  11.071  11.230 -0.1277 -0.0495  0.0240
  166loPI   PO4 2644   9.602  11.220  10.651 -0.0236  0.1248 -0.1278
  166loPI   GL1 2645   9.544  11.392  10.231  0.2331 -0.1031  0.0320
  166loPI   GL2 2646   9.301  11.463  10.131 -0.2173 -0.3431 -0.0720
  166loPI   C1A 2647   9.793  11.631   9.877  0.2649  0.0043  0.0575
  166loPI   C2A 2648   9.802  11.721   9.430  0.0309  0.0649  0.0594
  166loPI   C3A 2649   9.768  11.688   8.998  0.1935  0.1668 -0.1303
  166loPI   C4A 2650   9.696  11.783   8.584 -0.0257  0.2697 -0.0093
  166loPI   C5A 2651   9.732  11.890   8.049 -0.2288 -0.0505 -0.1456
  166loPI   C6A 2652  10.090  11.995   7.759 -0.1468 -0.1481  0.1826
  166loPI   C1B 2653   9.351  11.502   9.685  0.1268  0.1860  0.2120
  166loPI   C2B 2654   9.294  11.539   9.244 -0.0413  0.1925 -0.0890
  166loPI   C3B 2655   9.242  11.558   8.823  0.0744  0.1145  0.0206
  166loPI   C4B 2656   9.183  11.584   8.343 -0.0360  0.1055 -0.1422
  167loPI    C1 2657   1.452   9.537  10.994 -0.0087 -0.2015 -0.0659
  167loPI    C2 2658   1.149   9.796  11.029  0.0104 -0.2108  0.1898
  167loPI    C3 2659   1.385   9.806  10.706  0.0608  0.1449  0.2339
  167loPI   PO4 2660   1.367   9.337  10.943 -0.1514 -0.1730  0.0608
  167loPI   GL1 2661   1.091   9.242  10.559 -0.0959 -0.3276 -0.3404
  167loPI   GL2 2662   0.865   9.237  10.492 -0.0865 -0.3085  0.1909
  167loPI   C1A 2663   1.137   9.149  10.116  0.0625  0.1231  0.0767
  167loPI   C2A 2664   1.240   9.135   9.744  0.0636  0.0477 -0.1155
  167loPI   C3A 2665   1.233   9.180   9.352 -0.1176 -0.2964 -0.0610
  167loPI   C4A 2666   1.124   9.263   8.897  0.3468  0.0791 -0.0507
  167loPI   C5A 2667   0.898   9.436   8.541  0.0497  0.0973  0.2862
  167loPI   C6A 2668   1.039   9.333   8.043  0.0513  0.1902 -0.1541
  167loPI   C1B 2669   0.686   9.392  10.167 -0.4292  0.0117  0.5188
  167loPI   C2B 2670   0.749   9.391   9.789 -0.1481 -0.0044 -0.0588
  167loPI   C3B 2671   0.730   9.493   9.492  0.1476  0.0100  0.1741
  167loPI   C4B 2672   0.742   9.532   9.082  0.1402  0.0897  0.1092
  168loPI    C1 2673   0.645   0.301  10.834 -0.0932 -0.2372  0.2186
  168loPI    C2 2674   0.966   0.164  11.029  0.0280 -0.0596  0.1459
  168loPI    C3 2675   0.600   0.094  11.173  0.1095 -0.0634  0.3540
  168loPI   PO4 2676   0.670   0.270  10.536 -0.4550  0.0106 -0.2332
  168loPI   GL1 2677   0.641   0.632  10.242  0.0657 -0.2176  0.0970
  168loPI   GL2 2678   0.808   0.941  10.151 -0.1627  0.1411 -0.2848
  168loPI   C1A 2679   0.807   0.505   9.814 -0.0210 -0.0156  0.1412
  168loPI   C2A 2680   0.868   0.508   9.379  0.1099  0.1816  0.0979
  168loPI   C3A 2681   0.830   0.733   9.060 -0.2185 -0.1248  0.2344
  168loPI   C4A 2682   0.737   0.742   8.606 -0.0422 -0.1490 -0.0931
  168loPI   C5A 2683   1.099   0.899   8.301  0.2871  0.0585 -0.1240
  168loPI   C6A 2684   1.490   0.813   8.097  0.0048  0.2287 -0.1248
  168loPI   C1B 2685   0.930   0.992   9.794  0.1233 -0.0501  0.0707
  168loPI   C2B 2686   1.258   0.878   9.576  0.1417  0.1023 -0.0255
  168loPI   C3B 2687   1.411   0.746   9.217  0.0987  0.3122  0.1560
  168loPI   C4B 2688   1.335   0.788   8.798  0.0423  0.0242 -0.1165
  169loPI    C1 2689  15.431  10.902  11.370 -0.0430 -0.0010  0.2324
  169loPI    C2 2690  15.064  10.782  11.476 -0.0435 -0.0329  0.1947
  169loPI    C3 2691  15.370  10.742  11.731 -0.0772  0.0470  0.2478
  169loPI   PO4 2692  15.416  10.927  11.134  0.1987  0.1355 -0.0122
  169loPI   GL1 2693  15.616  10.888  10.774  0.1019  0.0621 -0.0413
  169loPI   GL2 2694  15.299  11.122  10.701 -0.1966 -0.4670  0.2743
  169loPI   C1A 2695  15.632  10.551  10.292 -0.0546  0.1416  0.0595
  169loPI   C2A 2696  15.697  10.661   9.844  0.1314  0.1967  0.3697
  169loPI   C3A 2697  15.702  10.692   9.395  0.2811 -0.2715 -0.2051
  169loPI   C4A 2698  15.636  10.791   8.976 -0.1842  0.0848 -0.0095
  169loPI   C5A 2699  15.576  10.602   8.544 -0.0563 -0.0263  0.0231
  169loPI   C6A 2700  15.739  10.476   8.191 -0.0753  0.2531  0.0398
  169loPI   C1B 2701  15.549  11.098  10.291 -0.1729 -0.1645 -0.0011
  169loPI   C2B 2702  15.548  11.169   9.917  0.1414  0.1809  0.0000
  169loPI   C3B 2703  15.709  11.262   9.520 -0.0687  0.0305  0.0861
  169loPI   C4B 2704  15.733  11.311   9.042  0.1803  0.0117 -0.0247
  170loPI    C1 2705  11.276  14.807  11.056 -0.0267  0.2845  0.0487
  170loPI    C2 2706  11.163  15.038  10.749 -0.3583  0.2361  0.1308
  170loPI    C3 2707  11.003  15.094  11.111  0.1114  0.3658  0.3258
  170loPI   PO4 2708  11.369  14.543  10.944  0.3128  0.1243  0.4448
  170loPI   GL1 2709  11.288  14.536  10.525 -0.2617 -0.2186  0.1361
  170loPI   GL2 2710  11.523  14.613  10.330  0.1901  0.1514  0.0507
  170loPI   C1A 2711  11.043  14.800  10.218 -0.1801  0.0986  0.1039
  170loPI   C2A 2712  11.009  14.923   9.806  0.2106  0.2654  0.0592
  170loPI   C3A 2713  10.869  14.903   9.334 -0.1301 -0.3920 -0.2371
  170loPI   C4A 2714  10.996  14.859   8.933 -0.0606  0.0520  0.0358
  170loPI   C5A 2715  11.068  14.931   8.500 -0.0470 -0.0343  0.1513
  170loPI   C6A 2716  11.016  14.837   8.093  0.1059  0.2291 -0.1067
  170loPI   C1B 2717  11.439  14.415   9.961 -0.1672  0.0877  0.1090
  170loPI   C2B 2718  11.361  14.621   9.597 -0.0787  0.2133 -0.0237
  170loPI   C3B 2719  11.426  14.566   9.141  0.4003 -0.0386 -0.0684
  170loPI   C4B 2720  11.368  14.569   8.761  0.1550  0.0500  0.1974
  171loPI    C1 2721   6.751  13.116  10.910 -0.1745 -0.2095  0.0643
  171loPI    C2 2722   6.739  13.004  11.294 -0.0851  0.1723  0.1826
  171loPI    C3 2723   6.467  13.260  11.151 -0.0316  0.1444  0.0283
  171loPI   PO4 2724   6.948  12.899  10.726  0.0718 -0.1020  0.0252
  171loPI   GL1 2725   7.082  13.099  10.314 -0.0673  0.1607  0.1447
  171loPI   GL2 2726   6.827  13.258  10.428 -0.0091 -0.0291 -0.1961
  171loPI   C1A 2727   7.085  13.230   9.841  0.3085  0.2132 -0.3167
  171loPI   C2A 2728   6.969  13.180   9.443  0.0507 -0.2801 -0.1429
  171loPI   C3A 2729   6.805  13.254   8.989 -0.2404 -0.1600 -0.0697
  171loPI   C4A 2730   7.081  13.264   8.548 -0.0561 -0.1381  0.1704
  171loPI   C5A 2731   6.915  13.518   8.192  0.0183 -0.0747 -0.0522
  171loPI   C6A 2732   7.003  13.814   7.824 -0.0606 -0.1950 -0.1330
  171loPI   C1B 2733   6.554  13.127  10.070 -0.0630  0.1855  0.0466
  171loPI   C2B 2734   6.501  13.030   9.661  0.0911 -0.0530  0.2582
  171loPI   C3B 2735   6.339  13.066   9.174 -0.1763 -0.1354  0.0671
  171loPI   C4B 2736   6.348  12.947   8.740  0.0484 -0.0382 -0.1360
  172loPI    C1 2737  13.855   4.784  10.775  0.0402 -0.0393  0.0942
  172loPI    C2 2738  14.241   4.698  10.836  0.1364  0.1518 -0.2244
  172loPI    C3 2739  14.013   4.452  10.618  0.0319 -0.0462  0.1007
  172loPI   PO4 2740  13.810   5.106  10.690 -0.3063  0.0579  0.2828
  172loPI   GL1 2741  13.646   5.124  10.395  0.2903  0.0711 -0.0661
  172loPI   GL2 2742  13.451   4.941  10.130  0.1032  0.2471 -0.1623
  172loPI   C1A 2743  13.878   5.142   9.951  0.2319 -0.2057 -0.4503
  172loPI   C2A 2744  14.146   4.918   9.617  0.0235 -0.2438  0.1934
  172loPI   C3A 2745  14.227   4.949   9.166  0.0585  0.2702  0.0779
  172loPI   C4A 2746  14.237   5.025   8.702  0.0412 -0.1489 -0.0931
  172loPI   C5A 2747  14.388   4.812   8.380 -0.1303 -0.2497 -0.1012
  172loPI   C6A 2748  14.415   4.397   8.175  0.1660  0.0294  0.1439
  172loPI   C1B 2749  13.692   4.748   9.751  0.0946  0.1539 -0.1910
  172loPI   C2B 2750  13.800   4.644   9.337  0.3095 -0.0146 -0.0215
  172loPI   C3B 2751  13.924   4.626   8.900 -0.1299 -0.1829  0.0443
  172loPI   C4B 2752  13.802   4.810   8.506 -0.1074 -0.1867  0.0901
  173loPI    C1 2753   3.749  15.385  10.654 -0.1063 -0.1259 -0.1578
  173loPI    C2 2754   3.860  15.010  10.570 -0.0427 -0.1863  0.1806
  173loPI    C3 2755   3.750  15.107  10.942 -0.1174  0.1181  0.0818
  173loPI   PO4 2756   3.609  15.435  10.543 -0.0263  0.1742 -0.1523
  173loPI   GL1 2757   3.650  15.349  10.084 -0.1401  0.2098 -0.1468
  173loPI   GL2 2758   3.653  15.007  10.093  0.0983 -0.2070 -0.0181
  173loPI   C1A 2759   3.656  15.301   9.585  0.0747  0.0223  0.2507
  173loPI   C2A 2760   3.605  15.225   9.154  0.1361  0.0066  0.0636
  173loPI   C3A 2761   3.559  15.218   8.705  0.0781 -0.1144 -0.1291
  173loPI   C4A 2762   3.462  15.137   8.334 -0.4389  0.1517  0.1473
  173loPI   C5A 2763   3.324  14.891   8.057  0.0434 -0.2843 -0.1176
  173loPI   C6A 2764   3.065  15.008   7.708 -0.0309 -0.3053  0.0107
  173loPI   C1B 2765   3.572  14.801   9.675 -0.2914 -0.0198  0.2534
  173loPI   C2B 2766   3.515  14.717   9.264 -0.2307  0.3112 -0.3213
  173loPI   C3B 2767   3.501  14.721   8.900  0.1159  0.0221  0.1189
  173loPI   C4B 2768   3.548  14.673   8.446  0.1344 -0.1901 -0.3641
  174loPI    C1 2769  17.517  13.880  11.237  0.2875 -0.1139 -0.0749
  174loPI    C2 2770  17.134  13.801  11.321  0.2419  0.0112 -0.1615
  174loPI    C3 2771  17.417  13.742  11.598  0.1598 -0.0774 -0.0959
  174loPI   PO4 2772  17.549  13.778  10.938  0.0505  0.1472  0.1140
  174loPI   GL1 2773  17.466  14.108  10.548 -0.0448  0.0874 -0.1106
  174loPI   GL2 2774  17.234  14.224  10.354  0.2310  0.1553  0.2053
  174loPI   C1A 2775  17.444  13.778  10.196  0.4742  0.0644 -0.0033
  174loPI   C2A 2776  17.578  13.737   9.798  0.1829  0.0589  0.2376
  174loPI   C3A 2777  17.560  13.740   9.329 -0.0340  0.1434  0.0740
  174loPI   C4A 2778  17.584  13.734   8.888  0.0203 -0.0411 -0.2022
  174loPI   C5A 2779  17.521  13.888   8.498  0.0375 -0.1618 -0.3245
  174loPI   C6A 2780  17.459  14.234   8.315 -0.0705  0.0992  0.3680
  174loPI   C1B 2781  17.124  14.105   9.943  0.5285  0.0771  0.0669
  174loPI   C2B 2782  17.119  14.093   9.539 -0.3332  0.0776 -0.1542
  174loPI   C3B 2783  17.172  14.048   9.152  0.0729  0.1341  0.2066
  174loPI   C4B 2784  17.148  14.131   8.703  0.1681 -0.2091 -0.1128
  175loPI    C1 2785   0.972   4.102  10.533 -0.0099 -0.1879 -0.1039
  175loPI    C2 2786   1.131   3.806  10.749 -0.0434 -0.0391  0.1277
  175loPI    C3 2787   1.365   4.096  10.604 -0.0284 -0.1107  0.0075
  175loPI   PO4 2788   0.770   4.017  10.395  0.2427  0.1241  0.0820
  175loPI   GL1 2789   0.705   4.089  10.012  0.0258 -0.2947 -0.2483
  175loPI   GL2 2790   0.787   3.743   9.960  0.1698 -0.1816 -0.1208
  175loPI   C1A 2791   0.582   4.238   9.606 -0.0584 -0.0956 -0.0802
  175loPI   C2A 2792   0.531   4.237   9.084  0.4429 -0.0662 -0.0678
  175loPI   C3A 2793   0.625   4.363   8.652  0.3359 -0.3431 -0.1137
  175loPI   C4A 2794   0.818   4.425   8.243 -0.0038  0.1511 -0.2650
  175loPI   C5A 2795   1.043   4.592   7.894 -0.3365  0.0072  0.1756
  175loPI   C6A 2796   1.067   5.005   7.581  0.0875 -0.0703  0.1128
  175loPI   C1B 2797   0.707   3.604   9.492  0.2986 -0.0570 -0.0420
  175loPI   C2B 2798   0.616   3.662   9.108  0.0850  0.0068  0.3477
  175loPI   C3B 2799   0.622   3.813   8.725 -0.1958 -0.1181 -0.2104
  175loPI   C4B 2800   0.602   3.988   8.284 -0.1496  0.1664  0.0562
  176loPI    C1 2801   7.185   1.849  10.541 -0.3312  0.0170  0.4744
  176loPI    C2 2802   7.545   1.743  10.679 -0.0354  0.1161 -0.1800
  176loPI    C3 2803   7.357   1.512  10.412 -0.2559  0.2873 -0.1758
  176loPI   PO4 2804   7.271   2.195  10.607  0.0510 -0.1659  0.1923
  176loPI   GL1 2805   7.266   2.349  10.208 -0.1224 -0.0120  0.1876
  176loPI   GL2 2806   7.208   1.990  10.026  0.5303 -0.1021 -0.0539
  176loPI   C1A 2807   7.141   2.470   9.817 -0.1759  0.2059 -0.1568
  176loPI   C2A 2808   7.123   2.817   9.501  0.2075 -0.0485 -0.2888
  176loPI   C3A 2809   7.336   3.038   9.190  0.2576 -0.0452 -0.0856
  176loPI   C4A 2810   7.235   3.068   8.754  0.2264 -0.1096 -0.0900
  176loPI   C5A 2811   7.231   3.107   8.384 -0.0494 -0.0318 -0.1209
  176loPI   C6A 2812   7.182   3.412   8.118  0.0390 -0.1518  0.1086
  176loPI   C1B 2813   7.272   2.025   9.665 -0.0695  0.1880  0.0198
  176loPI   C2B 2814   7.335   2.079   9.192 -0.1300  0.1903 -0.1674
  176loPI   C3B 2815   7.116   2.195   8.873 -0.1531  0.1908 -0.0282
  176loPI   C4B 2816   6.710   2.276   8.823  0.1247  0.0296 -0.2300
  177loPI    C1 2817  12.102   2.081  10.769 -0.2965  0.2944  0.1289
  177loPI    C2 2818  12.049   1.714  10.920  0.1707  0.1003 -0.1563
  177loPI    C3 2819  12.293   1.973  11.103  0.1549  0.1274 -0.1734
  177loPI   PO4 2820  12.111   2.060  10.509 -0.3395  0.2425 -0.1418
  177loPI   GL1 2821  11.898   2.105  10.076  0.0264  0.0683  0.0511
  177loPI   GL2 2822  11.576   2.194   9.878  0.1214 -0.2932  0.0581
  177loPI   C1A 2823  11.942   1.854   9.678  0.1150  0.1190  0.1029
  177loPI   C2A 2824  11.733   1.740   9.410 -0.2633  0.0298 -0.0064
  177loPI   C3A 2825  11.523   1.697   9.041  0.0160  0.2582 -0.0118
  177loPI   C4A 2826  11.465   1.507   8.636  0.0355  0.4027 -0.1258
  177loPI   C5A 2827  11.607   1.486   8.238  0.0196  0.2443  0.1685
  177loPI   C6A 2828  11.912   1.516   7.905  0.0032 -0.3523 -0.2057
  177loPI   C1B 2829  11.525   2.233   9.455 -0.1143 -0.1501  0.0920
  177loPI   C2B 2830  11.330   2.589   9.242 -0.1098  0.2887 -0.3452
  177loPI   C3B 2831  11.184   2.839   8.853  0.0718 -0.0720  0.2744
  177loPI   C4B 2832  11.041   3.114   8.511  0.2641  0.1408  0.1524
  178loPI    C1 2833   2.574   6.564  11.207 -0.2022 -0.1979 -0.2581
  178loPI    C2 2834   2.767   6.240  11.341 -0.1414 -0.0338  0.0598
  178loPI    C3 2835   2.518   6.439  11.583 -0.0065  0.2870 -0.0588
  178loPI   PO4 2836   2.515   6.562  11.004 -0.1211 -0.1410 -0.2228
  178loPI   GL1 2837   2.240   6.581  10.686 -0.1325  0.2221 -0.0963
  178loPI   GL2 2838   2.521   6.410  10.539 -0.2599 -0.0613 -0.1246
  178loPI   C1A 2839   2.134   6.492  10.285  0.0048  0.2376  0.3407
  178loPI   C2A 2840   2.202   6.388   9.789  0.1869  0.1899 -0.4211
  178loPI   C3A 2841   1.968   6.267   9.415 -0.2293 -0.0941  0.3669
  178loPI   C4A 2842   1.652   6.086   8.945  0.0539  0.0276  0.1065
  178loPI   C5A 2843   1.443   5.870   8.667 -0.1352 -0.1843  0.0919
  178loPI   C6A 2844   1.104   6.035   8.418 -0.0187 -0.0963  0.0045
  178loPI   C1B 2845   2.593   6.329  10.216  0.2233 -0.0463  0.0201
  178loPI   C2B 2846   2.779   6.287   9.711 -0.1476 -0.0095 -0.0072
  178loPI   C3B 2847   2.884   6.182   9.272  0.1418  0.0787 -0.2411
  178loPI   C4B 2848   2.885   6.123   8.885  0.2055  0.2067 -0.2591
  179loPI    C1 2849  13.229  11.929  10.825 -0.1121  0.0525 -0.0250
  179loPI    C2 2850  12.864  12.093  10.837 -0.1768 -0.1093  0.3892
  179loPI    C3 2851  13.118  12.146  11.142  0.1125 -0.0799  0.1477
  179loPI   PO4 2852  13.188  11.957  10.459  0.1963  0.1678 -0.0062
  179loPI   GL1 2853  13.188  12.210  10.173  0.0377  0.0839 -0.0803
  179loPI   GL2 2854  13.232  12.556  10.169  0.0054  0.2452  0.3960
  179loPI   C1A 2855  13.208  12.279   9.738  0.0390 -0.1827 -0.3094
  179loPI   C2A 2856  13.201  12.362   9.306  0.3530 -0.1511  0.2589
  179loPI   C3A 2857  13.234  12.327   8.795  0.2177  0.0878  0.0596
  179loPI   C4A 2858  13.153  12.329   8.400  0.0857 -0.1912 -0.2015
  179loPI   C5A 2859  12.982  12.623   8.158  0.0785 -0.1717 -0.0880
  179loPI   C6A 2860  12.586  12.791   8.147 -0.1202 -0.2943 -0.1392
  179loPI   C1B 2861  13.258  12.843   9.778  0.3163 -0.3125 -0.0278
  179loPI   C2B 2862  13.285  12.817   9.313 -0.1042 -0.0878 -0.2207
  179loPI   C3B 2863  13.338  12.833   8.842  0.0422  0.0003 -0.3781
  179loPI   C4B 2864  13.345  12.835   8.429  0.2727  0.0733 -0.0698
  180loPI    C1 2865  11.626  15.425  10.757 -0.0439 -0.2618 -0.0013
  180loPI    C2 2866  11.280  15.461  10.954 -0.1247 -0.0072 -0.1837
  180loPI    C3 2867  11.565  15.738  10.998  0.0410 -0.1923 -0.0693
  180loPI   PO4 2868  11.585  15.284  10.542  0.3652 -0.3099  0.0214
  180loPI   GL1 2869  11.620  15.122  10.152  0.0470 -0.2423  0.2056
  180loPI   GL2 2870  11.342  15.220  10.130 -0.2405  0.0156 -0.0264
  180loPI   C1A 2871  12.074  15.030  10.127 -0.0997 -0.0668  0.0545
  180loPI   C2A 2872  12.292  14.929   9.772  0.0052 -0.0895  0.0666
  180loPI   C3A 2873  12.413  14.824   9.398 -0.0728  0.2352 -0.1038
  180loPI   C4A 2874  12.414  14.852   8.987 -0.2445  0.1412 -0.0506
  180loPI   C5A 2875  12.364  14.819   8.540 -0.0990  0.0975  0.1433
  180loPI   C6A 2876  12.017  14.883   8.198 -0.1998  0.1178 -0.0161
  180loPI   C1B 2877  11.507  15.111   9.713 -0.2293  0.0606  0.0746
  180loPI   C2B 2878  11.366  15.052   9.373  0.0749  0.1727 -0.0329
  180loPI   C3B 2879  11.480  15.060   8.859  0.0339 -0.0395  0.0634
  180loPI   C4B 2880  11.567  14.994   8.498 -0.1592 -0.1612 -0.0958
  181loPI    C1 2881   2.881   8.213  11.146 -0.1868  0.1433 -0.2112
  181loPI    C2 2882   2.817   7.967  11.455 -0.1584 -0.1604 -0.4423
  181loPI    C3 2883   2.962   8.334  11.519 -0.3690 -0.1357 -0.0769
  181loPI   PO4 2884   2.724   8.087  10.978 -0.1596  0.2137  0.1815
  181loPI   GL1 2885   2.662   8.086  10.481  0.2097 -0.0436  0.0739
  181loPI   GL2 2886   2.324   8.199  10.349 -0.0986 -0.2309  0.0050
  181loPI   C1A 2887   2.878   8.018  10.066 -0.0085 -0.3087 -0.1886
  181loPI   C2A 2888   3.045   8.075   9.681  0.1749 -0.1301  0.2518
  181loPI   C3A 2889   3.019   8.023   9.215 -0.1050  0.0603 -0.0929
  181loPI   C4A 2890   2.931   7.887   8.817  0.2133  0.1201 -0.2187
  181loPI   C5A 2891   2.854   7.782   8.395  0.1101  0.1429  0.1555
  181loPI   C6A 2892   2.655   7.557   8.142 -0.1483  0.0523 -0.1581
  181loPI   C1B 2893   2.330   8.130   9.870  0.1825  0.1064 -0.2389
  181loPI   C2B 2894   2.291   7.786   9.443  0.0175 -0.0467 -0.2721
  181loPI   C3B 2895   2.332   7.610   9.098  0.0070 -0.0342 -0.1042
  181loPI   C4B 2896   2.259   7.422   8.682 -0.3115 -0.2142  0.0477
  182loPI    C1 2897  14.004   3.886  10.946  0.0319 -0.0115 -0.0007
  182loPI    C2 2898  13.845   3.535  11.052 -0.1369  0.0776  0.0438
  182loPI    C3 2899  13.718   3.873  11.225 -0.1246  0.1823 -0.1490
  182loPI   PO4 2900  13.995   3.941  10.648  0.1011 -0.3586 -0.0565
  182loPI   GL1 2901  14.132   4.038  10.267 -0.1133  0.0473  0.2808
  182loPI   GL2 2902  14.257   3.757  10.153  0.0919 -0.0072  0.0157
  182loPI   C1A 2903  13.858   4.025   9.943 -0.1963  0.2803  0.1209
  182loPI   C2A 2904  13.871   4.030   9.475  0.0461 -0.1603  0.0435
  182loPI   C3A 2905  13.964   4.065   9.050  0.0097 -0.2903  0.1522
  182loPI   C4A 2906  13.897   3.988   8.593  0.0073 -0.0681 -0.2537
  182loPI   C5A 2907  13.864   4.328   8.267 -0.0096 -0.0190  0.1720
  182loPI   C6A 2908  13.916   4.644   8.027 -0.0631  0.3103 -0.2120
  182loPI   C1B 2909  14.358   3.938   9.805  0.1471  0.1584 -0.1944
  182loPI   C2B 2910  14.473   3.917   9.410  0.3005  0.0944  0.1951
  182loPI   C3B 2911  14.488   3.935   9.029  0.0843  0.0310  0.1891
  182loPI   C4B 2912  14.394   4.012   8.598  0.1728 -0.1177 -0.2765
  183loPI    C1 2913  16.347   0.126  11.178 -0.0075  0.1433 -0.0109
  183loPI    C2 2914  16.497   0.469  11.320  0.1087  0.1594 -0.1702
  183loPI    C3 2915  16.686   0.124  11.391 -0.0294  0.1221  0.0238
  183loPI   PO4 2916  16.281   0.284  10.867  0.4167 -0.1314 -0.0442
  183loPI   GL1 2917  16.417   0.266  10.456 -0.0766  0.2600 -0.1420
  183loPI   GL2 2918  16.565   0.551  10.375  0.0301 -0.0562 -0.0381
  183loPI   C1A 2919  16.637   0.217   9.984  0.2226  0.2045  0.2199
  183loPI   C2A 2920  16.753   0.358   9.541 -0.2434 -0.0906  0.0189
  183loPI   C3A 2921  16.916   0.518   9.206 -0.1785 -0.1047 -0.1117
  183loPI   C4A 2922  16.773   0.563   8.795 -0.1239  0.1192  0.1940
  183loPI   C5A 2923  16.663   0.607   8.349  0.0220 -0.1004 -0.0103
  183loPI   C6A 2924  16.566   0.738   7.993 -0.0896 -0.0833  0.0424
  183loPI   C1B 2925  16.285   0.601   9.986  0.0495  0.2579  0.0291
  183loPI   C2B 2926  16.100   0.614   9.533 -0.0198 -0.0721 -0.0664
  183loPI   C3B 2927  15.954   0.676   9.207  0.2088  0.0424  0.3673
  183loPI   C4B 2928  15.833   0.561   8.887 -0.1433  0.1206 -0.2470
  184loPI    C1 2929  11.530   9.078  10.635 -0.1213  0.1150  0.0328
  184loPI    C2 2930  11.710   9.080  10.992  0.0837 -0.1845 -0.0650
  184loPI    C3 2931  11.313   9.031  10.968  0.0691 -0.1654  0.1207
  184loPI   PO4 2932  11.622   9.095  10.475 -0.1363  0.1137  0.1248
  184loPI   GL1 2933  11.870   9.163  10.132  0.0904  0.0993 -0.1471
  184loPI   GL2 2934  12.210   9.220  10.157  0.3478 -0.3536 -0.0946
  184loPI   C1A 2935  11.893   9.244   9.739 -0.1198 -0.1837 -0.1258
  184loPI   C2A 2936  12.241   9.187   9.558 -0.0642  0.1723  0.0629
  184loPI   C3A 2937  12.364   9.247   9.185  0.0146 -0.0834 -0.2327
  184loPI   C4A 2938  12.432   9.390   8.729  0.1331 -0.0331 -0.2390
  184loPI   C5A 2939  12.500   9.204   8.380  0.2465 -0.3043 -0.2863
  184loPI   C6A 2940  12.663   8.862   8.217 -0.0295  0.0925  0.0905
  184loPI   C1B 2941  12.276   9.614   9.921  0.1258 -0.0631  0.2571
  184loPI   C2B 2942  12.270   9.783   9.575 -0.2071  0.0710  0.1940
  184loPI   C3B 2943  12.245  10.104   9.210 -0.1214 -0.3953 -0.4182
  184loPI   C4B 2944  12.280  10.525   9.141  0.0678  0.1543  0.1524
  185loPI    C1 2945  17.277   2.897  10.785  0.0838 -0.0876 -0.1398
  185loPI    C2 2946  17.333   2.520  10.665 -0.0245 -0.1230 -0.0804
  185loPI    C3 2947  17.476   2.641  11.018 -0.1158 -0.1486 -0.0343
  185loPI   PO4 2948  17.269   3.032  10.529 -0.1742 -0.2562  0.0822
  185loPI   GL1 2949  17.312   2.886  10.161  0.0540  0.2393  0.2647
  185loPI   GL2 2950  17.475   2.702  10.069 -0.2444  0.1645 -0.0532
  185loPI   C1A 2951  17.218   3.194   9.762  0.0558 -0.0588 -0.3376
  185loPI   C2A 2952  17.173   3.325   9.296 -0.0744  0.0603 -0.0075
  185loPI   C3A 2953  17.188   3.473   8.968 -0.1989  0.0192 -0.2012
  185loPI   C4A 2954  17.262   3.450   8.478 -0.1347 -0.0879  0.2130
  185loPI   C5A 2955  17.273   3.354   7.965 -0.0418 -0.1473 -0.1535
  185loPI   C6A 2956  17.379   3.252   7.579 -0.2269  0.1572  0.2744
  185loPI   C1B 2957  17.335   2.713   9.619 -0.3165 -0.0509  0.1391
  185loPI   C2B 2958  17.267   2.792   9.202  0.0620  0.0138  0.2865
  185loPI   C3B 2959  17.034   2.678   8.845 -0.1456 -0.0066 -0.1406
  185loPI   C4B 2960  16.688   2.368   8.785 -0.1026 -0.0015  0.1002
  186loPI    C1 2961   1.810   1.448  11.040 -0.1179  0.2045  0.0472
  186loPI    C2 2962   1.519   1.706  11.134 -0.1692  0.1176  0.1298
  186loPI    C3 2963   1.455   1.312  11.167 -0.0413  0.0982  0.1504
  186loPI   PO4 2964   1.869   1.525  10.758 -0.1494  0.0271 -0.3414
  186loPI   GL1 2965   1.877   1.646  10.358  0.0018  0.2680 -0.0347
  186loPI   GL2 2966   1.952   1.888  10.214  0.0863  0.0964  0.0422
  186loPI   C1A 2967   1.866   1.417   9.920  0.1496 -0.0677 -0.2702
  186loPI   C2A 2968   1.915   1.420   9.474  0.2971 -0.2156  0.1194
  186loPI   C3A 2969   1.857   1.497   9.055  0.2893 -0.0599 -0.1226
  186loPI   C4A 2970   1.832   1.663   8.606 -0.1678 -0.0075  0.0043
  186loPI   C5A 2971   2.020   1.968   8.421 -0.0303 -0.0569 -0.1429
  186loPI   C6A 2972   2.327   2.205   8.497  0.1927 -0.0668  0.0893
  186loPI   C1B 2973   2.310   1.660  10.048 -0.0797  0.0219  0.2727
  186loPI   C2B 2974   2.305   1.589   9.626  0.0811 -0.0190  0.0553
  186loPI   C3B 2975   2.333   1.637   9.210  0.1576  0.2810  0.2734
  186loPI   C4B 2976   2.216   1.880   8.863 -0.1889  0.0603 -0.0394
  187loPI    C1 2977  18.172   9.572  11.721  0.0836  0.0334 -0.1086
  187loPI    C2 2978  17.991   9.709  12.050 -0.1718 -0.1119 -0.1859
  187loPI    C3 2979  18.338   9.512  12.080  0.0906  0.3565 -0.0551
  187loPI   PO4 2980  17.963   9.517  11.461 -0.2860  0.1322  0.1961
  187loPI   GL1 2981  17.725   9.470  11.053 -0.3016 -0.0003 -0.1919
  187loPI   GL2 2982  18.106   9.405  11.022 -0.1085 -0.1038  0.0529
  187loPI   C1A 2983  17.691   9.337  10.652 -0.0670  0.0413  0.0469
  187loPI   C2A 2984  17.706   9.319  10.189 -0.0745 -0.1549 -0.0262
  187loPI   C3A 2985  17.708   9.334   9.713  0.2152  0.0094 -0.1205
  187loPI   C4A 2986  17.802   9.522   9.317 -0.0177 -0.1605  0.1809
  187loPI   C5A 2987  17.797   9.445   8.871 -0.0421  0.1477  0.0521
  187loPI   C6A 2988  17.826   9.087   8.596  0.2578  0.1606 -0.0467
  187loPI   C1B 2989  18.149   9.624  10.643 -0.0613 -0.1876 -0.0480
  187loPI   C2B 2990  18.094   9.639  10.289 -0.1863 -0.1762 -0.0089
  187loPI   C3B 2991  18.009   9.680   9.906 -0.1003  0.3407 -0.1054
  187loPI   C4B 2992  18.169   9.732   9.561 -0.4828 -0.1383 -0.3257
  188loPI    C1 2993   9.404   2.003  10.546 -0.3124  0.1407 -0.1132
  188loPI    C2 2994   9.122   1.722  10.507 -0.0793 -0.1330  0.1221
  188loPI    C3 2995   9.148   1.934  10.845 -0.1464  0.0555  0.0109
  188loPI   PO4 2996   9.412   2.218  10.397  0.0910  0.2115 -0.4536
  188loPI   GL1 2997   9.215   2.267  10.028  0.0876 -0.0496  0.4405
  188loPI   GL2 2998   9.192   1.913  10.058 -0.1326 -0.0530  0.1293
  188loPI   C1A 2999   9.237   2.182   9.572 -0.1169 -0.1160 -0.1726
  188loPI   C2A 3000   9.258   2.157   9.091 -0.0197 -0.0271 -0.0601
  188loPI   C3A 3001   9.174   2.009   8.644 -0.0095 -0.0072  0.0428
  188loPI   C4A 3002   9.110   1.629   8.396 -0.3197 -0.0875  0.1441
  188loPI   C5A 3003   8.714   1.404   8.272  0.2105  0.0408 -0.0891
  188loPI   C6A 3004   8.233   1.656   8.380 -0.1395 -0.0884  0.0972
  188loPI   C1B 3005   9.263   1.656   9.651  0.0137 -0.0145  0.0344
  188loPI   C2B 3006   9.163   1.665   9.226 -0.0714 -0.0859 -0.1135
  188loPI   C3B 3007   8.906   1.582   8.991  0.0015  0.0807 -0.1669
  188loPI   C4B 3008   8.511   1.450   8.792  0.3866 -0.0479  0.0330
  189loPI    C1 3009  13.746   5.377  11.200  0.3092 -0.1606  0.1965
  189loPI    C2 3010  13.615   5.706  11.387  0.2577 -0.0697  0.0032
  189loPI    C3 3011  13.360   5.410  11.299  0.2493 -0.0409 -0.0694
  189loPI   PO4 3012  13.918   5.440  11.069 -0.1826 -0.0492  0.1230
  189loPI   GL1 3013  13.933   5.583  10.694 -0.0711 -0.3025 -0.0928
  189loPI   GL2 3014  14.105   5.436  10.457 -0.0293 -0.0260 -0.0509
  189loPI   C1A 3015  13.742   5.735  10.251  0.1238 -0.0442 -0.2818
  189loPI   C2A 3016  13.722   5.616   9.828 -0.1809 -0.0737  0.0707
  189loPI   C3A 3017  14.058   5.529   9.583 -0.1415  0.0501 -0.1866
  189loPI   C4A 3018  14.161   5.436   9.173  0.2149 -0.0716  0.0162
  189loPI   C5A 3019  14.169   5.511   8.799 -0.1549  0.1796 -0.2125
  189loPI   C6A 3020  13.967   5.838   8.481 -0.1198  0.0117  0.2631
  189loPI   C1B 3021  14.185   5.517  10.094 -0.0153 -0.1496  0.1986
  189loPI   C2B 3022  14.151   5.944   9.832 -0.3063 -0.0639 -0.3446
  189loPI   C3B 3023  14.066   6.025   9.393 -0.0156  0.0132 -0.1218
  189loPI   C4B 3024  13.934   6.042   8.977  0.0969  0.1465 -0.1946
  190loPI    C1 3025  15.286   4.311  10.862 -0.0015  0.0315  0.0382
  190loPI    C2 3026  15.261   3.936  10.999 -0.0598  0.0303  0.0241
  190loPI    C3 3027  15.243   4.243  11.254 -0.1913  0.0286  0.0176
  190loPI   PO4 3028  15.320   4.314  10.622 -0.0972  0.0561  0.1316
  190loPI   GL1 3029  15.146   4.339  10.262  0.0115 -0.0524 -0.0835
  190loPI   GL2 3030  14.974   4.667  10.275 -0.0013  0.4725 -0.1080
  190loPI   C1A 3031  15.214   4.167   9.879 -0.2458 -0.0162  0.1999
  190loPI   C2A 3032  15.364   4.007   9.540  0.2522  0.0748  0.0645
  190loPI   C3A 3033  15.285   4.040   9.003 -0.1099  0.4439 -0.3385
  190loPI   C4A 3034  15.396   4.099   8.526 -0.0516  0.0106 -0.1116
  190loPI   C5A 3035  15.768   4.156   8.287  0.2926  0.0375 -0.1203
  190loPI   C6A 3036  16.029   4.477   8.130 -0.1407 -0.0208 -0.0441
  190loPI   C1B 3037  15.028   4.631   9.852  0.0036  0.0486  0.0408
  190loPI   C2B 3038  15.212   4.507   9.474 -0.2689  0.1796  0.4158
  190loPI   C3B 3039  15.162   4.506   9.168  0.2802 -0.1671  0.1491
  190loPI   C4B 3040  15.235   4.584   8.709  0.3325  0.0542  0.0490
  191loPI    C1 3041  17.525   1.879  10.746  0.1833  0.0935  0.1134
  191loPI    C2 3042  17.397   2.136  11.024  0.1813 -0.0806  0.2754
  191loPI    C3 3043  17.190   1.802  10.949  0.0608  0.0720 -0.0940
  191loPI   PO4 3044  17.596   2.020  10.546 -0.1432  0.2282 -0.3402
  191loPI   GL1 3045  17.757   2.065  10.116 -0.2016 -0.2553  0.2176
  191loPI   GL2 3046  17.965   2.365   9.987  0.4436  0.0885  0.0129
  191loPI   C1A 3047  17.875   1.911   9.742  0.1083  0.3553  0.2314
  191loPI   C2A 3048  17.964   2.021   9.285  0.1269  0.0084  0.0532
  191loPI   C3A 3049  18.216   2.367   9.076 -0.2083  0.3010 -0.0414
  191loPI   C4A 3050  18.361   2.395   8.733 -0.4167  0.0845 -0.0352
  191loPI   C5A 3051  18.091   2.270   8.404 -0.0296  0.0386  0.1793
  191loPI   C6A 3052  17.985   2.446   8.030  0.4437 -0.0304 -0.0796
  191loPI   C1B 3053  17.832   2.519   9.626  0.0852  0.3225  0.2171
  191loPI   C2B 3054  17.817   2.676   9.262 -0.0346 -0.1343 -0.2552
  191loPI   C3B 3055  17.841   2.710   8.876  0.0565  0.2273  0.0198
  191loPI   C4B 3056  17.735   2.628   8.431 -0.0032 -0.0716  0.0154
  192loPI    C1 3057   7.042  16.862  10.886  0.1452 -0.1834 -0.0914
  192loPI    C2 3058   6.987  16.514  11.076 -0.2005 -0.0817  0.0029
  192loPI    C3 3059   7.202  16.804  11.248 -0.0889 -0.1721  0.0163
  192loPI   PO4 3060   6.833  16.852  10.700  0.1736  0.2525 -0.0414
  192loPI   GL1 3061   6.872  16.758  10.149  0.1827  0.2654 -0.0101
  192loPI   GL2 3062   6.618  16.705   9.914  0.2063 -0.2703  0.0607
  192loPI   C1A 3063   7.194  16.796   9.876  0.0830 -0.1550  0.1694
  192loPI   C2A 3064   7.282  16.900   9.485  0.3259 -0.1804  0.3982
  192loPI   C3A 3065   7.235  16.940   8.944 -0.2775  0.0844  0.0539
  192loPI   C4A 3066   7.242  17.035   8.518 -0.0353  0.0790  0.0087
  192loPI   C5A 3067   7.161  17.033   8.086  0.2838 -0.0166 -0.2198
  192loPI   C6A 3068   6.806  17.063   7.885  0.0763 -0.0472 -0.1020
  192loPI   C1B 3069   6.728  16.680   9.578 -0.1538 -0.1391  0.0919
  192loPI   C2B 3070   6.753  16.757   9.164  0.0230  0.0869  0.0351
  192loPI   C3B 3071   6.800  16.773   8.725  0.1214 -0.0222 -0.0711
  192loPI   C4B 3072   6.704  16.853   8.301  0.0240  0.0082 -0.0962
  193loPI    C1 3073  12.606  10.123  11.157  0.5096  0.0504  0.2041
  193loPI    C2 3074  12.724  10.083  11.537 -0.0860  0.1974  0.4155
  193loPI    C3 3075  12.402  10.303  11.450  0.0965  0.2425 -0.1901
  193loPI   PO4 3076  12.813  10.052  10.996 -0.1805  0.0081  0.4438
  193loPI   GL1 3077  12.975  10.008  10.583  0.1494  0.3007  0.1591
  193loPI   GL2 3078  12.970  10.319  10.371 -0.0553 -0.5404 -0.2237
  193loPI   C1A 3079  13.133   9.887  10.203  0.0046 -0.0071  0.1964
  193loPI   C2A 3080  13.105   9.770   9.779  0.2372 -0.1007 -0.0143
  193loPI   C3A 3081  13.149   9.792   9.335  0.1558  0.0829  0.0281
  193loPI   C4A 3082  13.103   9.979   8.847 -0.1275 -0.0783 -0.0539
  193loPI   C5A 3083  13.270   9.806   8.588  0.1185 -0.2174  0.0340
  193loPI   C6A 3084  13.319   9.455   8.454  0.1955  0.1570  0.1648
  193loPI   C1B 3085  12.958  10.410   9.966  0.1325 -0.0203 -0.0102
  193loPI   C2B 3086  13.161  10.383   9.531 -0.3106 -0.0549  0.2324
  193loPI   C3B 3087  13.188  10.524   9.167 -0.2716  0.0617 -0.1601
  193loPI   C4B 3088  13.230  10.460   8.735  0.0182 -0.2754  0.1856
  194loPI    C1 3089  16.462  13.219  10.902  0.0181 -0.1814  0.0834
  194loPI    C2 3090  16.326  13.592  10.942  0.2924 -0.0628 -0.0649
  194loPI    C3 3091  16.328  13.346  11.257  0.2369  0.1035  0.0672
  194loPI   PO4 3092  16.350  13.148  10.622 -0.1090  0.2094  0.0713
  194loPI   GL1 3093  16.422  12.953  10.360 -0.1613  0.1135  0.4058
  194loPI   GL2 3094  16.537  13.243  10.148  0.2352 -0.1905  0.2024
  194loPI   C1A 3095  16.490  12.843   9.919  0.0949  0.1351 -0.0069
  194loPI   C2A 3096  16.405  12.996   9.555 -0.1989 -0.0838  0.0380
  194loPI   C3A 3097  16.524  12.927   9.164 -0.1829 -0.1162 -0.0474
  194loPI   C4A 3098  16.591  12.915   8.770 -0.2529  0.0012  0.1234
  194loPI   C5A 3099  16.536  13.025   8.334  0.1666  0.3833  0.2564
  194loPI   C6A 3100  16.538  13.219   7.829 -0.0026 -0.0378 -0.0571
  194loPI   C1B 3101  16.573  13.386   9.830 -0.1546 -0.3115 -0.0888
  194loPI   C2B 3102  16.609  13.467   9.343  0.0333  0.0400  0.1340
  194loPI   C3B 3103  16.639  13.412   8.899  0.2224  0.2653  0.2070
  194loPI   C4B 3104  16.814  13.345   8.545 -0.1664  0.3098 -0.1146
  195loPI    C1 3105  15.658  10.414  10.947 -0.0650 -0.1068 -0.0024
  195loPI    C2 3106  15.632  10.405  11.346  0.0095  0.0869  0.0084
  195loPI    C3 3107  15.873  10.669  11.168 -0.1234  0.0901 -0.1696
  195loPI   PO4 3108  15.396  10.411  10.907 -0.0530 -0.0572 -0.1234
  195loPI   GL1 3109  15.137  10.177  10.610 -0.1792  0.0701  0.0782
  195loPI   GL2 3110  15.336   9.936  10.596 -0.2144 -0.0529  0.1286
  195loPI   C1A 3111  15.215  10.235  10.243 -0.1643  0.0670  0.0464
  195loPI   C2A 3112  15.267  10.382   9.825 -0.0169  0.1030  0.0100
  195loPI   C3A 3113  15.270  10.401   9.320 -0.1565  0.2614  0.0225
  195loPI   C4A 3114  15.431  10.265   8.942 -0.1254 -0.0478  0.2149
  195loPI   C5A 3115  15.471  10.102   8.590  0.0121  0.0520 -0.0909
  195loPI   C6A 3116  15.596   9.717   8.454  0.0166  0.1397  0.1037
  195loPI   C1B 3117  15.357   9.801  10.206  0.0387  0.0583  0.0029
  195loPI   C2B 3118  15.283   9.839   9.750 -0.2357 -0.2806 -0.0526
  195loPI   C3B 3119  15.312   9.834   9.323 -0.1370  0.3165  0.2812
  195loPI   C4B 3120  15.461   9.754   9.016  0.0696  0.1101  0.1977
  196loPI    C1 3121  18.166   2.275  10.687  0.0497 -0.0591  0.0114
  196loPI    C2 3122  18.009   1.961  10.880  0.0550 -0.0800 -0.0183
  196loPI    C3 3123  17.859   2.327  10.939  0.0613 -0.0853  0.0310
  196loPI   PO4 3124  18.149   2.142  10.446  0.0047  0.3668 -0.3628
  196loPI   GL1 3125  18.456   1.917  10.205  0.0170 -0.5316  0.1004
  196loPI   GL2 3126  18.149   1.773  10.112 -0.1652 -0.0398  0.1151
  196loPI   C1A 3127  18.444   2.104   9.816 -0.6945 -0.0255 -0.0362
  196loPI   C2A 3128  18.604   1.984   9.380  0.1059 -0.0276 -0.1308
  196loPI   C3A 3129  18.603   1.998   8.931  0.3125  0.0149  0.0014
  196loPI   C4A 3130  18.612   2.076   8.464  0.0768 -0.1173 -0.2055
  196loPI   C5A 3131  18.438   2.096   8.014 -0.0844  0.1193 -0.1407
  196loPI   C6A 3132  18.211   2.106   7.610 -0.2004  0.1756 -0.4360
  196loPI   C1B 3133  18.303   1.577   9.762  0.2708 -0.0749 -0.1605
  196loPI   C2B 3134  18.161   1.575   9.274 -0.1333  0.2250 -0.1360
  196loPI   C3B 3135  18.061   1.802   8.879  0.0007  0.2577 -0.0744
  196loPI   C4B 3136  18.175   1.758   8.433 -0.0233 -0.2529 -0.3100
  197loPI    C1 3137   7.194  11.592  11.106  0.0634 -0.0490  0.0075
  197loPI    C2 3138   7.215  11.214  11.234  0.0596  0.0294  0.2431
  197loPI    C3 3139   7.307  11.515  11.481  0.0675  0.1829  0.0556
  197loPI   PO4 3140   7.017  11.520  10.849 -0.0435  0.1541 -0.1711
  197loPI   GL1 3141   6.915  11.556  10.410  0.1533  0.0582  0.1434
  197loPI   GL2 3142   6.515  11.727  10.359 -0.0259  0.0751  0.2571
  197loPI   C1A 3143   7.076  11.811  10.064 -0.1675  0.1405 -0.2299
  197loPI   C2A 3144   7.245  11.874   9.557  0.1994 -0.1912  0.2797
  197loPI   C3A 3145   7.054  11.948   9.231 -0.2475  0.0504 -0.1427
  197loPI   C4A 3146   7.076  11.831   8.881  0.0727  0.1291 -0.3752
  197loPI   C5A 3147   7.028  11.928   8.403  0.0086  0.0153 -0.0512
  197loPI   C6A 3148   7.283  11.769   7.930 -0.3181 -0.0096  0.0407
  197loPI   C1B 3149   6.582  11.703   9.986  0.0420  0.0153 -0.0984
  197loPI   C2B 3150   6.786  11.719   9.593 -0.1944  0.0057 -0.1327
  197loPI   C3B 3151   6.641  11.590   9.181 -0.0256 -0.3158 -0.1179
  197loPI   C4B 3152   6.615  11.680   8.749 -0.4611  0.1966  0.1147
  198loPI    C1 3153   9.100  11.725  10.910  0.0491 -0.0655 -0.0232
  198loPI    C2 3154   9.345  11.734  10.594  0.1747 -0.0836  0.0728
  198loPI    C3 3155   9.348  12.034  10.858 -0.0605  0.0204 -0.0394
  198loPI   PO4 3156   8.828  11.640  10.812  0.1488 -0.4135 -0.1973
  198loPI   GL1 3157   8.730  11.818  10.452 -0.1934 -0.1229  0.1305
  198loPI   GL2 3158   9.028  12.012  10.382 -0.2253 -0.1791  0.0982
  198loPI   C1A 3159   8.514  11.758  10.109 -0.0260  0.1845 -0.0161
  198loPI   C2A 3160   8.577  11.762   9.737 -0.0763 -0.3146  0.3082
  198loPI   C3A 3161   8.505  11.749   9.355 -0.2254 -0.1618 -0.1894
  198loPI   C4A 3162   8.393  11.784   8.944  0.0232 -0.1035  0.0958
  198loPI   C5A 3163   8.332  11.738   8.506  0.1108 -0.2025 -0.0945
  198loPI   C6A 3164   8.301  11.937   8.041 -0.0027  0.3037  0.1992
  198loPI   C1B 3165   9.023  11.964   9.991  0.0938 -0.0525 -0.0991
  198loPI   C2B 3166   9.057  11.861   9.552 -0.0239  0.2520 -0.1737
  198loPI   C3B 3167   8.926  11.968   9.199 -0.1873  0.3110  0.0892
  198loPI   C4B 3168   8.857  11.920   8.875  0.0027 -0.2595  0.0426
  199loPI    C1 3169   5.465   1.332  10.525 -0.0801 -0.1596  0.3303
  199loPI    C2 3170   5.517   1.725  10.574 -0.0113 -0.1177 -0.0468
  199loPI    C3 3171   5.154   1.564  10.622 -0.0718  0.0169 -0.0477
  199loPI   PO4 3172   5.618   1.196  10.315  0.0982 -0.1400 -0.2700
  199loPI   GL1 3173   5.562   1.332   9.949 -0.1541  0.0097 -0.2149
  199loPI   GL2 3174   5.406   1.575   9.971  0.1167 -0.3953 -0.4889
  199loPI   C1A 3175   5.320   1.125   9.657 -0.3278  0.2608 -0.2902
  199loPI   C2A 3176   5.244   1.173   9.372  0.0297  0.3446  0.0239
  199loPI   C3A 3177   5.378   1.093   8.910  0.2444  0.0831 -0.1678
  199loPI   C4A 3178   5.214   1.053   8.509  0.0114 -0.1618 -0.2863
  199loPI   C5A 3179   5.465   0.926   8.127  0.2874  0.1305  0.1118
  199loPI   C6A 3180   5.679   1.068   7.719  0.0096  0.0732 -0.0879
  199loPI   C1B 3181   5.263   1.685   9.501  0.0885  0.2119 -0.0961
  199loPI   C2B 3182   5.450   1.635   9.058  0.0175  0.3281  0.3767
  199loPI   C3B 3183   5.398   1.567   8.581 -0.0077 -0.1258 -0.0398
  199loPI   C4B 3184   5.425   1.479   8.188 -0.0563  0.1871 -0.1007
  200loPI    C1 3185  10.262  17.519  10.725 -0.3137  0.0968  0.0824
  200loPI    C2 3186  10.262  17.125  10.790 -0.1516  0.0854  0.0178
  200loPI    C3 3187  10.283  17.378  11.099 -0.1176  0.0414  0.0517
  200loPI   PO4 3188  10.433  17.604  10.589  0.0845 -0.1885  0.3440
  200loPI   GL1 3189  10.727  17.588  10.228  0.2935 -0.2107  0.2613
  200loPI   GL2 3190  10.912  17.819  10.198  0.2494  0.0887  0.1682
  200loPI   C1A 3191  10.607  17.183   9.992  0.2585  0.1255  0.0754
  200loPI   C2A 3192  10.469  17.115   9.565 -0.0354 -0.0874 -0.0542
  200loPI   C3A 3193  10.501  17.107   9.151 -0.1924 -0.2252  0.2839
  200loPI   C4A 3194  10.415  17.084   8.763 -0.1414  0.1639 -0.2961
  200loPI   C5A 3195  10.429  17.088   8.281  0.1612 -0.0727  0.2843
  200loPI   C6A 3196  10.547  17.013   7.814 -0.2132 -0.0334 -0.0407
  200loPI   C1B 3197  10.991  17.968   9.788 -0.1489  0.0167 -0.0889
  200loPI   C2B 3198  10.999  17.916   9.322 -0.2163  0.1191  0.1214
  200loPI   C3B 3199  11.145  17.777   8.962 -0.0161  0.1635  0.0229
  200loPI   C4B 3200  11.561  17.859   8.789 -0.1364 -0.1721 -0.0750
  201loPI    C1 3201  12.433  11.860  11.007 -0.1487  0.0355  0.0285
  201loPI    C2 3202  12.696  11.572  10.916  0.0474  0.1938  0.0864
  201loPI    C3 3203  12.410  11.503  11.187 -0.1228 -0.0583 -0.1520
  201loPI   PO4 3204  12.402  11.902  10.683 -0.0838  0.1512  0.0578
  201loPI   GL1 3205  12.487  12.124  10.304  0.1065  0.1542  0.0034
  201loPI   GL2 3206  12.751  12.041  10.093 -0.0506 -0.2184  0.3410
  201loPI   C1A 3207  12.328  12.452  10.045 -0.4037 -0.1749  0.0841
  201loPI   C2A 3208  12.387  12.427   9.686 -0.1842  0.0922  0.2768
  201loPI   C3A 3209  12.349  12.567   9.256  0.1452 -0.1403 -0.2845
  201loPI   C4A 3210  12.348  12.555   8.767 -0.2587  0.2351 -0.1885
  201loPI   C5A 3211  12.167  12.622   8.409 -0.0683  0.0166 -0.0607
  201loPI   C6A 3212  11.806  12.676   8.218 -0.3485 -0.2728 -0.0673
  201loPI   C1B 3213  12.730  12.109   9.623 -0.2553  0.0415  0.0441
  201loPI   C2B 3214  12.743  12.252   9.181  0.0228  0.5181 -0.2761
  201loPI   C3B 3215  12.730  12.142   8.762 -0.0579  0.1277  0.0948
  201loPI   C4B 3216  12.648  12.280   8.299 -0.1666  0.2474 -0.0402
  202loPI    C1 3217   9.292   4.809  11.009 -0.0306  0.1282  0.1091
  202loPI    C2 3218   8.973   4.947  11.207 -0.0313  0.2300  0.0378
  202loPI    C3 3219   9.114   4.581  11.285 -0.1913  0.1678  0.0392
  202loPI   PO4 3220   9.207   4.980  10.769 -0.0582  0.0111 -0.1298
  202loPI   GL1 3221   9.109   4.992  10.364 -0.1823 -0.0959 -0.1306
  202loPI   GL2 3222   9.423   4.811  10.219  0.4477  0.2300  0.3526
  202loPI   C1A 3223   9.269   5.219  10.013  0.0531 -0.0530  0.0541
  202loPI   C2A 3224   9.277   5.229   9.554 -0.0052  0.1373  0.0048
  202loPI   C3A 3225   9.357   5.207   9.075  0.0379  0.3013 -0.0131
  202loPI   C4A 3226   9.275   5.145   8.639 -0.2518 -0.1640  0.1280
  202loPI   C5A 3227   9.418   5.167   8.223  0.1751 -0.0222  0.1387
  202loPI   C6A 3228   9.605   5.036   7.825 -0.1683 -0.3240  0.0404
  202loPI   C1B 3229   9.506   4.757   9.740 -0.1270 -0.0512  0.0752
  202loPI   C2B 3230   9.535   4.793   9.265  0.4178 -0.0881 -0.0166
  202loPI   C3B 3231   9.538   4.765   8.770  0.1436 -0.1899  0.0429
  202loPI   C4B 3232   9.450   4.654   8.291 -0.0233  0.0454  0.4562
  203loPI    C1 3233  18.080   6.568  11.198 -0.1631 -0.0255 -0.0268
  203loPI    C2 3234  18.404   6.796  11.146  0.0012 -0.2704 -0.0982
  203loPI    C3 3235  18.434   6.450  11.343 -0.2989 -0.1090  0.2419
  203loPI   PO4 3236  17.995   6.505  10.941  0.0234  0.0098  0.0003
  203loPI   GL1 3237  18.210   6.749  10.564 -0.0071 -0.0313 -0.2345
  203loPI   GL2 3238  18.029   6.450  10.472  0.0162  0.0274  0.0803
  203loPI   C1A 3239  18.378   7.022  10.191  0.0616 -0.1105 -0.0255
  203loPI   C2A 3240  18.365   7.191   9.711  0.1041  0.0225  0.0746
  203loPI   C3A 3241  18.388   7.140   9.282 -0.1795  0.0470  0.0423
  203loPI   C4A 3242  18.364   7.205   8.842  0.0290  0.0412 -0.0654
  203loPI   C5A 3243  18.118   7.110   8.410  0.0486 -0.0147  0.1390
  203loPI   C6A 3244  17.679   6.917   8.438  0.0994 -0.1840  0.1503
  203loPI   C1B 3245  17.980   6.740  10.167  0.2234  0.0223  0.2133
  203loPI   C2B 3246  18.001   6.853   9.695  0.1102 -0.1221 -0.1957
  203loPI   C3B 3247  17.997   6.869   9.290  0.3154  0.1781  0.0474
  203loPI   C4B 3248  17.973   6.855   8.882  0.0079 -0.0830 -0.2014
  204loPI    C1 3249  17.385  17.791  10.744 -0.0662  0.3056 -0.1270
  204loPI    C2 3250  17.763  17.842  10.863 -0.0542 -0.2911  0.1304
  204loPI    C3 3251  17.462  17.907  11.119 -0.1018 -0.2784  0.0717
  204loPI   PO4 3252  17.401  17.870  10.439  0.2657 -0.2560  0.0905
  204loPI   GL1 3253  17.684  17.932   9.969 -0.1264 -0.1568  0.1020
  204loPI   GL2 3254  17.975  18.178   9.907 -0.2183  0.1738 -0.2304
  204loPI   C1A 3255  17.432  17.906   9.624  0.0285  0.5003 -0.3728
  204loPI   C2A 3256  17.252  17.911   9.203  0.0850 -0.2531  0.1708
  204loPI   C3A 3257  16.865  17.851   8.882  0.1172 -0.2112 -0.0003
  204loPI   C4A 3258  16.636  17.934   8.652  0.0347  0.1604  0.0189
  204loPI   C5A 3259  16.157  17.926   8.463 -0.0954  0.0569  0.0594
  204loPI   C6A 3260  15.798  17.704   8.281  0.2599 -0.3292 -0.2243
  204loPI   C1B 3261  18.011  18.113   9.445 -0.1551  0.1836 -0.0550
  204loPI   C2B 3262  18.093  18.200   9.077  0.0413 -0.0484 -0.0845
  204loPI   C3B 3263  17.983  18.142   8.689 -0.1980 -0.0416  0.3004
  204loPI   C4B 3264  17.776  18.123   8.156  0.2425  0.0496  0.3500
  205loPI    C1 3265  14.065  11.568  11.293 -0.1711  0.0169 -0.0190
  205loPI    C2 3266  13.966  11.874  11.530 -0.2299  0.0921 -0.1404
  205loPI    C3 3267  13.743  11.542  11.529 -0.2162  0.0826 -0.0730
  205loPI   PO4 3268  14.111  11.619  11.081  0.3410 -0.3014  0.1314
  205loPI   GL1 3269  14.110  11.582  10.567  0.0741 -0.1038  0.2993
  205loPI   GL2 3270  14.158  11.813  10.658 -0.0432 -0.1661  0.2864
  205loPI   C1A 3271  14.328  11.408  10.276 -0.0444  0.0935 -0.0670
  205loPI   C2A 3272  14.368  11.278   9.866 -0.1232  0.1981 -0.1282
  205loPI   C3A 3273  14.389  11.328   9.356  0.3221  0.2283  0.1728
  205loPI   C4A 3274  14.322  11.401   8.886  0.0316  0.1375  0.0503
  205loPI   C5A 3275  14.209  11.399   8.442 -0.1921  0.3357 -0.0542
  205loPI   C6A 3276  13.852  11.611   8.272  0.3077  0.3651 -0.1414
  205loPI   C1B 3277  14.463  11.927  10.430 -0.0795  0.3105  0.0601
  205loPI   C2B 3278  14.413  11.879  10.001 -0.0725  0.0175  0.1844
  205loPI   C3B 3279  14.484  11.897   9.558  0.0524 -0.1760 -0.0285
  205loPI   C4B 3280  14.438  11.815   9.159 -0.3379 -0.0921 -0.0885
  206loPI    C1 3281   6.480   3.446  11.102 -0.0055 -0.1285  0.0740
  206loPI    C2 3282   6.479   3.841  11.162  0.1590 -0.0839 -0.1996
  206loPI    C3 3283   6.593   3.595  11.456  0.2712  0.0846 -0.1004
  206loPI   PO4 3284   6.568   3.473  10.865 -0.2562  0.2147 -0.3281
  206loPI   GL1 3285   6.512   3.365  10.422 -0.0680 -0.0975  0.2819
  206loPI   GL2 3286   6.799   3.551  10.405  0.0055 -0.2709 -0.0944
  206loPI   C1A 3287   6.376   3.208  10.036 -0.1261 -0.1540 -0.5813
  206loPI   C2A 3288   6.263   3.099   9.571  0.0813  0.1932 -0.0159
  206loPI   C3A 3289   6.198   3.137   9.100 -0.1373  0.1177 -0.0782
  206loPI   C4A 3290   5.995   3.058   8.683 -0.0003  0.0209 -0.2458
  206loPI   C5A 3291   5.734   2.994   8.312 -0.1372 -0.2173  0.2552
  206loPI   C6A 3292   5.568   3.328   8.018  0.0452  0.1274 -0.3330
  206loPI   C1B 3293   6.990   3.572   9.917  0.0794  0.1766  0.1158
  206loPI   C2B 3294   7.079   3.517   9.424 -0.0659  0.1876  0.1103
  206loPI   C3B 3295   7.085   3.470   9.026  0.1369 -0.2251  0.0764
  206loPI   C4B 3296   7.036   3.523   8.629 -0.0033 -0.0399 -0.2133
  207loPI    C1 3297  13.314   9.916  10.944  0.0897 -0.0771 -0.0267
  207loPI    C2 3298  13.416  10.127  11.268  0.2114 -0.1010 -0.0492
  207loPI    C3 3299  13.153   9.828  11.300  0.0212  0.0671 -0.0212
  207loPI   PO4 3300  13.511   9.887  10.851  0.1393 -0.0475  0.2360
  207loPI   GL1 3301  13.591   9.650  10.522  0.1909  0.1270 -0.0549
  207loPI   GL2 3302  13.284   9.470  10.535  0.0390 -0.0391  0.0644
  207loPI   C1A 3303  13.565   9.660  10.045  0.3433 -0.1389  0.2600
  207loPI   C2A 3304  13.598   9.554   9.614  0.0804 -0.0322 -0.0245
  207loPI   C3A 3305  13.602   9.623   9.242 -0.1704  0.1234 -0.0458
  207loPI   C4A 3306  13.602   9.563   8.820 -0.2842  0.0253 -0.0476
  207loPI   C5A 3307  13.801   9.193   8.518 -0.1726 -0.0607  0.3253
  207loPI   C6A 3308  13.917   9.345   8.054 -0.0320 -0.0755 -0.0972
  207loPI   C1B 3309  13.166   9.276  10.125 -0.1693 -0.3041 -0.1867
  207loPI   C2B 3310  13.209   9.222   9.724  0.0760 -0.0774 -0.0536
  207loPI   C3B 3311  13.191   9.289   9.335 -0.2740  0.4191  0.2311
  207loPI   C4B 3312  13.157   9.456   9.002  0.1157 -0.1056  0.2312
  208loPI    C1 3313  15.893   2.239  10.368 -0.0550  0.1005 -0.2915
  208loPI    C2 3314  15.547   2.040  10.341 -0.0109 -0.0149 -0.0395
  208loPI    C3 3315  15.752   2.039  10.685  0.2930 -0.0351 -0.2175
  208loPI   PO4 3316  16.083   2.161  10.220  0.3994  0.1501 -0.2078
  208loPI   GL1 3317  16.414   1.900  10.185  0.2764 -0.2447 -0.1677
  208loPI   GL2 3318  16.691   1.946  10.252 -0.0985  0.2043 -0.0016
  208loPI   C1A 3319  16.379   1.985   9.719 -0.1860  0.4011 -0.1669
  208loPI   C2A 3320  16.147   1.918   9.427  0.0461 -0.0885 -0.1187
  208loPI   C3A 3321  16.385   1.903   9.013  0.1048  0.1560 -0.2123
  208loPI   C4A 3322  16.501   1.936   8.600 -0.0222  0.4298 -0.1540
  208loPI   C5A 3323  16.887   2.134   8.394  0.1904  0.0812  0.0381
  208loPI   C6A 3324  16.904   2.359   8.074  0.0639 -0.3469 -0.0472
  208loPI   C1B 3325  16.881   2.019   9.817 -0.2299 -0.0532  0.1285
  208loPI   C2B 3326  17.142   1.978   9.379 -0.4649  0.1577 -0.2856
  208loPI   C3B 3327  17.153   2.165   8.917  0.1673 -0.2249 -0.0008
  208loPI   C4B 3328  17.262   2.393   8.477 -0.0510  0.0106  0.0499
  209loPI    C1 3329   1.427  17.002  10.761  0.2111 -0.0266  0.1339
  209loPI    C2 3330   1.373  16.613  10.689  0.2847 -0.0279  0.0847
  209loPI    C3 3331   1.382  16.747  11.065 -0.0965 -0.0216  0.0954
  209loPI   PO4 3332   1.594  17.138  10.668  0.2173  0.0368 -0.0384
  209loPI   GL1 3333   1.862  17.257  10.287  0.1567 -0.2375 -0.0424
  209loPI   GL2 3334   1.634  17.508  10.373 -0.1653 -0.3224 -0.0193
  209loPI   C1A 3335   1.877  17.364   9.819 -0.1322 -0.1925  0.0757
  209loPI   C2A 3336   1.940  17.443   9.301  0.1511  0.0684 -0.0534
  209loPI   C3A 3337   1.978  17.538   8.842  0.2738 -0.0513  0.1385
  209loPI   C4A 3338   1.840  17.577   8.370  0.0034  0.2117  0.1920
  209loPI   C5A 3339   1.734  17.500   7.966  0.0468  0.2539  0.3617
  209loPI   C6A 3340   1.785  17.542   7.527  0.3269  0.0259 -0.2674
  209loPI   C1B 3341   1.525  17.740  10.043 -0.1626  0.3503 -0.2539
  209loPI   C2B 3342   1.460  17.665   9.588  0.3200  0.0861  0.1214
  209loPI   C3B 3343   1.547  17.734   9.134  0.1055  0.1332  0.4324
  209loPI   C4B 3344   1.518  17.836   8.598 -0.0189  0.0015 -0.2110
  210loPI    C1 3345   4.290   2.306  11.023  0.0971  0.0338  0.0210
  210loPI    C2 3346   4.374   2.677  10.899 -0.2317  0.0739 -0.0912
  210loPI    C3 3347   4.367   2.593  11.290 -0.0251  0.1524 -0.0696
  210loPI   PO4 3348   4.437   2.153  10.803  0.0884  0.1831  0.1238
  210loPI   GL1 3349   4.355   2.025  10.387  0.2430  0.1633 -0.0363
  210loPI   GL2 3350   4.019   2.104  10.187  0.0400 -0.2111  0.1070
  210loPI   C1A 3351   4.476   1.830  10.019  0.2340  0.1590 -0.0985
  210loPI   C2A 3352   4.455   1.795   9.556 -0.1425 -0.2872  0.2362
  210loPI   C3A 3353   4.507   1.731   9.024  0.1719 -0.1231 -0.0209
  210loPI   C4A 3354   4.462   1.763   8.537  0.2953  0.1403 -0.0041
  210loPI   C5A 3355   4.289   1.786   8.126  0.2586  0.0686  0.2456
  210loPI   C6A 3356   4.160   2.034   7.734 -0.0961  0.1100  0.3021
  210loPI   C1B 3357   4.068   2.042   9.735 -0.1427  0.0162  0.2060
  210loPI   C2B 3358   4.089   2.005   9.307  0.1336 -0.1485  0.2632
  210loPI   C3B 3359   4.052   2.050   8.905 -0.2398 -0.0553  0.0476
  210loPI   C4B 3360   4.006   2.072   8.445  0.1191 -0.1286 -0.2427
  211loPI    C1 3361  11.450  16.642  10.726 -0.0790  0.0585  0.0464
  211loPI    C2 3362  11.249  16.423  10.994 -0.3305  0.2678  0.0330
  211loPI    C3 3363  11.495  16.713  11.117  0.1288 -0.1192  0.0567
  211loPI   PO4 3364  11.470  16.542  10.556 -0.0307 -0.1403  0.1826
  211loPI   GL1 3365  11.703  16.267  10.244 -0.1901  0.0613 -0.0621
  211loPI   GL2 3366  11.918  16.002  10.127  0.3142 -0.1524  0.0159
  211loPI   C1A 3367  11.477  16.219   9.854  0.1157  0.6182  0.1207
  211loPI   C2A 3368  11.613  16.108   9.406 -0.0120 -0.2557  0.1296
  211loPI   C3A 3369  11.716  16.409   9.076 -0.5952 -0.1160 -0.0180
  211loPI   C4A 3370  11.632  16.514   8.659  0.0048 -0.4803  0.0569
  211loPI   C5A 3371  11.848  16.553   8.252 -0.0080  0.1223 -0.2672
  211loPI   C6A 3372  11.929  16.623   7.842  0.0613 -0.0373  0.4298
  211loPI   C1B 3373  11.905  15.869   9.701 -0.3852 -0.1298 -0.1264
  211loPI   C2B 3374  11.946  15.733   9.297 -0.0841  0.1606  0.1932
  211loPI   C3B 3375  12.099  15.655   8.938  0.1689 -0.0799 -0.0179
  211loPI   C4B 3376  12.277  15.780   8.585  0.0825  0.3106 -0.0778
  212loPI    C1 3377  12.023  16.405  11.078 -0.2243  0.1318  0.0197
  212loPI    C2 3378  11.688  16.243  11.225 -0.1920  0.1277  0.0893
  212loPI    C3 3379  11.987  16.007  11.103 -0.2382  0.1300 -0.0299
  212loPI   PO4 3380  11.903  16.557  10.883  0.1875 -0.0719 -0.0617
  212loPI   GL1 3381  12.048  16.512  10.505 -0.0748  0.4740 -0.1476
  212loPI   GL2 3382  12.215  16.391  10.302  0.3723  0.3631  0.2989
  212loPI   C1A 3383  12.219  16.838  10.130  0.1583 -0.0223  0.2234
  212loPI   C2A 3384  12.256  16.808   9.642  0.2853  0.0173  0.1036
  212loPI   C3A 3385  12.163  16.680   9.164 -0.0154 -0.1749 -0.0894
  212loPI   C4A 3386  12.113  16.656   8.772 -0.0142 -0.1677 -0.4563
  212loPI   C5A 3387  12.121  16.989   8.575  0.1599  0.0903 -0.2222
  212loPI   C6A 3388  11.936  17.448   8.629 -0.2732 -0.0054  0.1819
  212loPI   C1B 3389  11.990  16.457   9.874  0.3646  0.1564 -0.1516
  212loPI   C2B 3390  12.030  16.269   9.454 -0.0443  0.0095  0.0525
  212loPI   C3B 3391  12.153  16.171   8.984  0.1737  0.5052 -0.0624
  212loPI   C4B 3392  12.038  16.195   8.548  0.0985 -0.1477 -0.1853
  213loPI    C1 3393  16.953   9.573  11.778 -0.0595  0.0260 -0.0232
  213loPI    C2 3394  16.654   9.704  11.546 -0.0251  0.0715 -0.0418
  213loPI    C3 3395  16.734   9.887  11.893 -0.0933 -0.0128  0.0187
  213loPI   PO4 3396  17.124   9.418  11.566  0.0415 -0.2933  0.0863
  213loPI   GL1 3397  17.257   9.387  11.062  0.0511  0.0662  0.2663
  213loPI   GL2 3398  17.414   9.063  11.034  0.0279 -0.0758  0.1376
  213loPI   C1A 3399  17.178   9.522  10.652 -0.2455  0.1249  0.1520
  213loPI   C2A 3400  17.225   9.600  10.210 -0.3037  0.2525  0.2639
  213loPI   C3A 3401  17.178   9.505   9.833  0.3376  0.0249 -0.1693
  213loPI   C4A 3402  17.219   9.457   9.435  0.0972 -0.2531  0.0617
  213loPI   C5A 3403  17.346   9.250   9.102 -0.1507  0.0380  0.1465
  213loPI   C6A 3404  17.222   8.982   8.708 -0.2244  0.0421  0.0249
  213loPI   C1B 3405  17.327   9.035  10.647  0.0403 -0.1230 -0.2820
  213loPI   C2B 3406  17.282   9.057  10.294 -0.0906 -0.3565  0.1980
  213loPI   C3B 3407  17.347   8.960   9.872  0.0105  0.1219  0.2976
  213loPI   C4B 3408  17.204   8.983   9.474 -0.0428 -0.2823 -0.0569
  214loPI    C1 3409   7.611  10.003  10.838 -0.0335 -0.0965  0.0905
  214loPI    C2 3410   7.464   9.863  11.183 -0.0592  0.0237  0.1291
  214loPI    C3 3411   7.815  10.054  11.178  0.0030 -0.0908  0.0677
  214loPI   PO4 3412   7.343  10.117  10.662  0.2253 -0.0703  0.2562
  214loPI   GL1 3413   7.492  10.311  10.271 -0.1080 -0.2651 -0.0494
  214loPI   GL2 3414   7.245  10.434  10.149  0.3991  0.1010 -0.2145
  214loPI   C1A 3415   7.775  10.538   9.986  0.0950  0.2187  0.0082
  214loPI   C2A 3416   7.719  10.579   9.538  0.1120 -0.2050 -0.0108
  214loPI   C3A 3417   7.804  10.599   9.168  0.1706 -0.2330 -0.1354
  214loPI   C4A 3418   7.797  10.583   8.748  0.0773 -0.2394  0.2580
  214loPI   C5A 3419   7.612  10.709   8.463 -0.0407 -0.0813 -0.1149
  214loPI   C6A 3420   7.753  10.468   8.087 -0.1448 -0.0931 -0.0139
  214loPI   C1B 3421   7.267  10.439   9.629  0.1363 -0.0442 -0.0614
  214loPI   C2B 3422   7.181  10.341   9.270 -0.0971 -0.1047  0.0589
  214loPI   C3B 3423   7.108  10.057   8.983 -0.0141  0.0016  0.1226
  214loPI   C4B 3424   7.124   9.987   8.528  0.0981 -0.0687 -0.1355
  215loPI    C1 3425   3.837  10.117  10.458  0.3460 -0.0651  0.1624
  215loPI    C2 3426   3.851   9.718  10.476  0.1157 -0.0809  0.0342
  215loPI    C3 3427   3.533   9.899  10.315  0.1774  0.1573  0.1763
  215loPI   PO4 3428   3.993  10.232  10.366  0.2779 -0.1166  0.1725
  215loPI   GL1 3429   4.140  10.145  10.017  0.0423 -0.2619  0.0698
  215loPI   GL2 3430   4.272   9.859  10.115  0.4051  0.0636 -0.0250
  215loPI   C1A 3431   4.020  10.047   9.571 -0.1005 -0.0544 -0.3098
  215loPI   C2A 3432   3.922  10.104   9.235  0.2016 -0.2079  0.2342
  215loPI   C3A 3433   3.958  10.020   8.816 -0.1094 -0.2419 -0.2166
  215loPI   C4A 3434   3.818   9.891   8.401 -0.0401 -0.2158 -0.0508
  215loPI   C5A 3435   3.921   9.524   8.036  0.0729 -0.2627 -0.0114
  215loPI   C6A 3436   4.243   9.385   7.792  0.1506 -0.2647 -0.1854
  215loPI   C1B 3437   4.303   9.665   9.733  0.0906 -0.0616  0.2599
  215loPI   C2B 3438   4.295   9.706   9.236  0.1546  0.0275 -0.1367
  215loPI   C3B 3439   4.262   9.647   8.822  0.1552 -0.0721  0.2975
  215loPI   C4B 3440   4.304   9.719   8.304 -0.1310 -0.3252 -0.0872
  216loPI    C1 3441  17.784  17.328  10.892  0.0318  0.1806  0.0539
  216loPI    C2 3442  17.449  17.423  11.089 -0.0086  0.0765  0.0361
  216loPI    C3 3443  17.804  17.472  11.265 -0.0430  0.0089  0.1254
  216loPI   PO4 3444  17.712  17.397  10.674  0.1691  0.3512  0.1419
  216loPI   GL1 3445  17.700  17.485  10.279 -0.0075  0.1874 -0.0821
  216loPI   GL2 3446  17.405  17.492  10.113  0.1214  0.1578  0.5505
  216loPI   C1A 3447  17.851  17.212   9.994  0.0187 -0.0849  0.0987
  216loPI   C2A 3448  17.866  17.147   9.504  0.2587 -0.0064  0.0890
  216loPI   C3A 3449  17.786  17.109   9.064  0.1702  0.1995  0.1344
  216loPI   C4A 3450  17.879  17.180   8.647 -0.2958  0.1113 -0.2978
  216loPI   C5A 3451  17.887  17.045   8.249 -0.2451 -0.3363  0.1503
  216loPI   C6A 3452  18.085  16.906   7.895  0.1765  0.0050 -0.0871
  216loPI   C1B 3453  17.530  17.449   9.757 -0.1674 -0.1360  0.0053
  216loPI   C2B 3454  17.432  17.426   9.302  0.0969 -0.1632 -0.2997
  216loPI   C3B 3455  17.494  17.425   8.833  0.0459 -0.3380  0.0280
  216loPI   C4B 3456  17.462  17.392   8.372 -0.1886  0.1696  0.0356
  217loPI    C1 3457  13.466  16.496  10.961 -0.1412  0.1090  0.2586
  217loPI    C2 3458  13.433  16.636  11.334  0.0942  0.1640  0.2599
  217loPI    C3 3459  13.767  16.447  11.219 -0.0532 -0.0232  0.1331
  217loPI   PO4 3460  13.436  16.657  10.748  0.0212  0.2840 -0.1464
  217loPI   GL1 3461  13.243  16.595  10.434  0.1145 -0.0686  0.1257
  217loPI   GL2 3462  13.436  16.308  10.399 -0.1599  0.4900  0.1899
  217loPI   C1A 3463  12.986  16.678  10.158 -0.0423 -0.0406 -0.3498
  217loPI   C2A 3464  12.898  16.719   9.835 -0.0398  0.0943 -0.2125
  217loPI   C3A 3465  13.069  16.574   9.497 -0.0822  0.0757 -0.1561
  217loPI   C4A 3466  13.167  16.599   9.017  0.0011  0.1690 -0.1738
  217loPI   C5A 3467  13.209  16.719   8.600 -0.2118  0.3253  0.0862
  217loPI   C6A 3468  12.874  16.747   8.187  0.0388  0.1871 -0.2972
  217loPI   C1B 3469  13.391  16.339  10.020  0.0209 -0.1555  0.0774
  217loPI   C2B 3470  13.406  16.161   9.625 -0.0687 -0.1450  0.1983
  217loPI   C3B 3471  13.319  15.807   9.355  0.1468 -0.2973  0.2268
  217loPI   C4B 3472  13.457  15.652   8.940 -0.0978 -0.0908  0.1945
  218loPI    C1 3473  11.376   0.460  11.144  0.1867  0.0468 -0.1547
  218loPI    C2 3474  11.479   0.343  11.513  0.1049 -0.0073 -0.1488
  218loPI    C3 3475  11.390   0.727  11.442 -0.1772 -0.0514 -0.0453
  218loPI   PO4 3476  11.515   0.346  10.963  0.1349 -0.1181  0.1775
  218loPI   GL1 3477  11.468   0.283  10.560  0.1224  0.0749  0.2636
  218loPI   GL2 3478  11.602   0.054  10.436  0.2734  0.0017  0.0452
  218loPI   C1A 3479  11.573   0.377  10.101 -0.2135  0.1374  0.2030
  218loPI   C2A 3480  11.607   0.343   9.634 -0.0396  0.2252 -0.1370
  218loPI   C3A 3481  11.746   0.164   9.201 -0.5533  0.2459 -0.0238
  218loPI   C4A 3482  11.597   0.052   8.797 -0.1236  0.1233 -0.0554
  218loPI   C5A 3483  11.272   0.117   8.431 -0.0171  0.0692 -0.0681
  218loPI   C6A 3484  11.082   0.015   8.015  0.0737  0.0317  0.0398
  218loPI   C1B 3485  11.719  -0.085  10.085 -0.3432 -0.1096  0.1011
  218loPI   C2B 3486  11.644  -0.210   9.661 -0.0707 -0.0156 -0.3476
  218loPI   C3B 3487  11.738  -0.343   9.215  0.0495  0.1729 -0.1264
  218loPI   C4B 3488  11.978  -0.732   9.101  0.0459  0.0847 -0.0794
  219loPI    C1 3489   5.478  11.669  10.851 -0.3047 -0.0090 -0.3278
  219loPI    C2 3490   5.390  11.281  10.889 -0.0706 -0.0323  0.0193
  219loPI    C3 3491   5.214  11.550  11.126  0.1985  0.0064  0.1787
  219loPI   PO4 3492   5.532  11.717  10.544 -0.4070 -0.0446 -0.2196
  219loPI   GL1 3493   5.603  11.850  10.157 -0.1237 -0.0798 -0.1871
  219loPI   GL2 3494   5.609  11.601  10.057  0.0832  0.1129  0.0256
  219loPI   C1A 3495   5.786  11.938   9.728  0.0015 -0.0839 -0.0383
  219loPI   C2A 3496   5.778  11.816   9.243  0.2514  0.0607  0.1076
  219loPI   C3A 3497   5.751  11.780   8.778  0.0863 -0.0500  0.0649
  219loPI   C4A 3498   5.687  11.734   8.337 -0.1341 -0.1554  0.1805
  219loPI   C5A 3499   5.439  11.773   8.030 -0.0089  0.0544 -0.2178
  219loPI   C6A 3500   5.017  11.547   7.934  0.2504 -0.1000 -0.0372
  219loPI   C1B 3501   5.277  11.671   9.723  0.0387 -0.0140  0.2017
  219loPI   C2B 3502   5.035  11.785   9.338  0.3181 -0.0564 -0.1038
  219loPI   C3B 3503   4.865  11.845   8.901  0.1646 -0.0778  0.1941
  219loPI   C4B 3504   4.559  11.909   8.631  0.1738  0.1421  0.0331
  220loPI    C1 3505   7.130  12.070  11.023 -0.2318 -0.1117 -0.0340
  220loPI    C2 3506   6.806  12.146  11.246 -0.1678  0.0905 -0.0075
  220loPI    C3 3507   7.140  12.008  11.418 -0.1195  0.2434  0.0232
  220loPI   PO4 3508   7.096  12.375  10.837 -0.2021  0.1602  0.0834
  220loPI   GL1 3509   6.879  12.472  10.495 -0.0268 -0.2501 -0.0190
  220loPI   GL2 3510   6.755  12.670  10.334  0.1652  0.0629  0.2459
  220loPI   C1A 3511   6.679  12.215  10.164 -0.0706  0.3454 -0.0716
  220loPI   C2A 3512   6.819  12.143   9.788  0.1121 -0.0659  0.2463
  220loPI   C3A 3513   6.758  12.313   9.347  0.4022  0.1720  0.4006
  220loPI   C4A 3514   6.686  12.118   8.962  0.1444  0.0085  0.0402
  220loPI   C5A 3515   6.599  12.176   8.569 -0.3627  0.2306  0.3913
  220loPI   C6A 3516   6.834  12.427   8.207  0.1358  0.2238 -0.2664
  220loPI   C1B 3517   6.962  12.710   9.943 -0.4008  0.0374  0.0423
  220loPI   C2B 3518   6.909  12.718   9.513  0.2180 -0.2151 -0.1848
  220loPI   C3B 3519   6.757  12.784   9.125  0.0643 -0.2398  0.3585
  220loPI   C4B 3520   6.777  12.630   8.686 -0.1611 -0.1981  0.2034
  221loPI    C1 3521  15.161   7.993  11.111 -0.1663 -0.0165  0.1500
  221loPI    C2 3522  15.078   7.641  11.280  0.1112 -0.1594 -0.0045
  221loPI    C3 3523  15.323   7.898  11.464  0.0063 -0.0981  0.0502
  221loPI   PO4 3524  14.978   8.115  11.012  0.2118  0.2343 -0.1807
  221loPI   GL1 3525  14.786   8.253  10.603  0.1734 -0.0033 -0.0479
  221loPI   GL2 3526  14.907   8.586  10.691 -0.0002  0.0724 -0.2530
  221loPI   C1A 3527  14.683   8.293  10.199  0.0616  0.0529 -0.0496
  221loPI   C2A 3528  14.676   8.162   9.749  0.1140  0.2961 -0.2040
  221loPI   C3A 3529  14.695   8.194   9.360  0.2635  0.3108 -0.0195
  221loPI   C4A 3530  14.638   8.182   8.831 -0.0405 -0.0774 -0.1393
  221loPI   C5A 3531  14.567   8.176   8.357 -0.0554 -0.0037  0.1629
  221loPI   C6A 3532  14.328   7.916   8.089 -0.2018  0.2560 -0.2051
  221loPI   C1B 3533  15.014   8.656  10.335 -0.0261 -0.1080 -0.0919
  221loPI   C2B 3534  15.060   8.464   9.845  0.0064 -0.0670 -0.0929
  221loPI   C3B 3535  15.134   8.490   9.450 -0.0835  0.1625 -0.0558
  221loPI   C4B 3536  15.060   8.361   9.025 -0.0091 -0.0251 -0.0153
  222loPI    C1 3537  17.696   3.722  10.836 -0.0374 -0.0445 -0.1715
  222loPI    C2 3538  17.559   3.349  10.880  0.0225 -0.0435  0.0350
  222loPI    C3 3539  17.435   3.637  11.128  0.0216  0.0618 -0.0871
  222loPI   PO4 3540  17.693   3.734  10.552 -0.1847 -0.0311 -0.0948
  222loPI   GL1 3541  17.472   3.904  10.261  0.0355  0.1943  0.1963
  222loPI   GL2 3542  17.793   4.098  10.114  0.1954 -0.0193 -0.2631
  222loPI   C1A 3543  17.231   3.697   9.956  0.4492 -0.0970  0.3246
  222loPI   C2A 3544  17.178   3.818   9.558 -0.2686 -0.2163  0.3835
  222loPI   C3A 3545  17.080   3.866   9.191 -0.0744 -0.0445  0.0796
  222loPI   C4A 3546  17.131   3.882   8.753 -0.3824  0.3273  0.0278
  222loPI   C5A 3547  17.167   4.022   8.299  0.1597  0.1756  0.0859
  222loPI   C6A 3548  16.859   4.186   8.094 -0.2332  0.0766  0.1009
  222loPI   C1B 3549  17.563   4.204   9.787 -0.2277  0.0171  0.2185
  222loPI   C2B 3550  17.512   4.093   9.320 -0.0049  0.1044  0.0916
  222loPI   C3B 3551  17.593   4.178   8.950 -0.0625  0.4388 -0.2320
  222loPI   C4B 3552  17.552   4.193   8.575 -0.2906  0.1816  0.2738
  223loPI    C1 3553  16.406  17.707  10.893  0.1168  0.0184 -0.1032
  223loPI    C2 3554  16.503  17.696  11.281 -0.0261 -0.0144 -0.0679
  223loPI    C3 3555  16.199  17.924  11.157 -0.0470 -0.0841 -0.1459
  223loPI   PO4 3556  16.671  17.623  10.771 -0.3564  0.0005 -0.0345
  223loPI   GL1 3557  16.832  17.550  10.361 -0.1974 -0.1746 -0.1232
  223loPI   GL2 3558  16.529  17.442  10.228  0.1022  0.0969  0.1382
  223loPI   C1A 3559  17.014  17.748   9.925  0.0900 -0.1518  0.0541
  223loPI   C2A 3560  16.890  17.781   9.570 -0.2610 -0.2114  0.3124
  223loPI   C3A 3561  16.528  17.724   9.283  0.0257  0.0711 -0.1564
  223loPI   C4A 3562  16.265  17.670   8.890  0.1760 -0.1635  0.0215
  223loPI   C5A 3563  15.802  17.638   8.794 -0.1665 -0.0075 -0.2829
  223loPI   C6A 3564  15.442  17.384   8.736  0.0337 -0.1908 -0.0343
  223loPI   C1B 3565  16.519  17.544   9.777 -0.1724 -0.1506  0.3457
  223loPI   C2B 3566  16.166  17.538   9.609  0.1127  0.0052 -0.2805
  223loPI   C3B 3567  15.950  17.682   9.287 -0.1691  0.2034 -0.0003
  223loPI   C4B 3568  15.633  18.011   9.138  0.4661  0.3001  0.1706
  224loPI    C1 3569  18.372  13.241  11.215 -0.0615  0.1429 -0.0892
  224loPI    C2 3570  18.442  13.524  11.488 -0.0496  0.2127 -0.1642
  224loPI    C3 3571  18.190  13.224  11.571  0.4196 -0.1073  0.1543
  224loPI   PO4 3572  18.374  13.349  10.986 -0.3378 -0.0048 -0.1195
  224loPI   GL1 3573  18.207  13.536  10.695  0.0079  0.0247 -0.0452
  224loPI   GL2 3574  17.957  13.691  10.584 -0.1809  0.1644  0.1901
  224loPI   C1A 3575  18.358  13.575  10.251 -0.3017 -0.1725  0.1269
  224loPI   C2A 3576  18.380  13.630   9.792  0.0121 -0.0930  0.3551
  224loPI   C3A 3577  18.482  13.624   9.324  0.0145  0.0335 -0.1735
  224loPI   C4A 3578  18.567  13.588   8.918 -0.0442 -0.2480  0.1638
  224loPI   C5A 3579  18.567  13.559   8.454 -0.0123  0.2629  0.0592
  224loPI   C6A 3580  18.230  13.526   8.087  0.2282 -0.2325  0.1705
  224loPI   C1B 3581  17.927  13.905  10.149 -0.2617 -0.0246 -0.0332
  224loPI   C2B 3582  18.034  13.983   9.774 -0.2277  0.0927  0.0509
  224loPI   C3B 3583  18.071  13.884   9.318 -0.0939 -0.1704 -0.0038
  224loPI   C4B 3584  18.069  14.041   8.904  0.0406 -0.1057  0.0677
  225loPI    C1 3585  16.628   8.288  11.190 -0.4201 -0.2040 -0.1379
  225loPI    C2 3586  16.551   8.280  11.583  0.0551 -0.0284 -0.0338
  225loPI    C3 3587  16.452   7.968  11.352 -0.2755 -0.1109  0.2125
  225loPI   PO4 3588  16.873   8.508  11.203 -0.1721  0.0479 -0.1177
  225loPI   GL1 3589  17.168   8.658  10.925  0.3217  0.1880 -0.0130
  225loPI   GL2 3590  17.450   8.544  10.716 -0.1294  0.0692 -0.1853
  225loPI   C1A 3591  16.863   8.588  10.509  0.1453 -0.2160  0.0015
  225loPI   C2A 3592  16.928   8.756  10.108  0.1721 -0.0015 -0.1013
  225loPI   C3A 3593  16.812   8.676   9.665  0.1975 -0.1743  0.1852
  225loPI   C4A 3594  16.857   8.716   9.224  0.2086  0.2120 -0.2660
  225loPI   C5A 3595  16.703   8.892   8.766  0.1100  0.0853  0.1002
  225loPI   C6A 3596  16.356   8.845   8.445  0.1603  0.1052 -0.0568
  225loPI   C1B 3597  17.335   8.477  10.339  0.1870 -0.1987 -0.1909
  225loPI   C2B 3598  17.385   8.470   9.960 -0.0998  0.1180  0.1499
  225loPI   C3B 3599  17.351   8.504   9.515  0.2544 -0.0474  0.0019
  225loPI   C4B 3600  17.411   8.739   9.083  0.0875 -0.1003 -0.1230
  226loPI    C1 3601   2.999   9.033  10.865 -0.2278 -0.0517  0.0269
  226loPI    C2 3602   3.328   9.200  11.019 -0.0578 -0.1006 -0.2737
  226loPI    C3 3603   2.979   9.228  11.213  0.0681  0.1786 -0.0806
  226loPI   PO4 3604   3.016   9.073  10.631  0.1250 -0.1024  0.0566
  226loPI   GL1 3605   2.615   9.202  10.305  0.1909 -0.0686 -0.3179
  226loPI   GL2 3606   2.551   9.430  10.390 -0.0575  0.0934  0.0486
  226loPI   C1A 3607   2.555   9.128   9.863 -0.0703  0.0953  0.0593
  226loPI   C2A 3608   2.536   8.964   9.419 -0.2011 -0.0824  0.2211
  226loPI   C3A 3609   2.433   8.663   9.045 -0.2345 -0.0284 -0.2466
  226loPI   C4A 3610   2.305   8.437   8.760 -0.2865 -0.0510 -0.0345
  226loPI   C5A 3611   2.541   8.311   8.338 -0.1975  0.0281  0.1103
  226loPI   C6A 3612   2.517   8.032   7.924  0.3290 -0.1501  0.0341
  226loPI   C1B 3613   2.496   9.677  10.041 -0.0210 -0.0261  0.0703
  226loPI   C2B 3614   2.458   9.574   9.612  0.0852 -0.2288 -0.1753
  226loPI   C3B 3615   2.433   9.600   9.260 -0.1244 -0.2223  0.1034
  226loPI   C4B 3616   2.629   9.689   8.906 -0.0027  0.0528 -0.0647
  227loPI    C1 3617   8.239   6.693  10.690 -0.0301 -0.0979 -0.0669
  227loPI    C2 3618   7.864   6.759  10.810  0.0101 -0.0591  0.0385
  227loPI    C3 3619   8.138   7.048  10.843 -0.0348  0.0365 -0.3746
  227loPI   PO4 3620   8.223   6.539  10.411  0.3360 -0.0817  0.1052
  227loPI   GL1 3621   8.551   6.316  10.136  0.2319  0.0000 -0.0311
  227loPI   GL2 3622   8.744   5.965  10.132  0.0380 -0.2667 -0.1007
  227loPI   C1A 3623   8.289   6.184   9.794 -0.2891 -0.4121 -0.0648
  227loPI   C2A 3624   8.289   6.113   9.375  0.0831  0.0132  0.0760
  227loPI   C3A 3625   8.262   6.111   8.921 -0.1411 -0.1618 -0.2092
  227loPI   C4A 3626   8.242   6.032   8.491 -0.3596 -0.0548  0.1761
  227loPI   C5A 3627   8.319   6.232   8.090  0.0631 -0.0525  0.2306
  227loPI   C6A 3628   8.457   6.521   7.781  0.4424 -0.0052  0.1203
  227loPI   C1B 3629   8.822   6.113   9.715  0.0468  0.1579 -0.1106
  227loPI   C2B 3630   8.791   6.113   9.249  0.0558  0.0987 -0.0142
  227loPI   C3B 3631   8.792   6.049   8.760 -0.0456  0.2044  0.0765
  227loPI   C4B 3632   8.729   6.038   8.326  0.2765  0.1923  0.1536
  228loPI    C1 3633  12.256  11.359  10.736 -0.1556  0.0102 -0.1275
  228loPI    C2 3634  12.127  10.983  10.685 -0.1874 -0.0034  0.0488
  228loPI    C3 3635  11.996  11.200  10.996 -0.0814  0.1147  0.0119
  228loPI   PO4 3636  12.296  11.435  10.547 -0.1314 -0.2105 -0.0431
  228loPI   GL1 3637  12.434  11.653  10.248  0.1197  0.0064  0.3177
  228loPI   GL2 3638  12.658  11.560   9.920  0.0647 -0.2675 -0.0542
  228loPI   C1A 3639  12.191  11.944   9.863 -0.2604  0.0283 -0.1163
  228loPI   C2A 3640  12.201  11.969   9.399  0.1005 -0.0444  0.2358
  228loPI   C3A 3641  12.241  12.063   8.936  0.0621 -0.1479  0.1476
  228loPI   C4A 3642  12.192  12.106   8.538 -0.2410  0.1108  0.1923
  228loPI   C5A 3643  12.198  12.226   8.114 -0.3455 -0.2017  0.0348
  228loPI   C6A 3644  12.485  12.212   7.717 -0.0170 -0.1871 -0.2189
  228loPI   C1B 3645  12.569  11.692   9.540 -0.1745 -0.2466 -0.2058
  228loPI   C2B 3646  12.654  11.721   9.179 -0.1201  0.2449  0.1868
  228loPI   C3B 3647  12.508  11.704   8.775 -0.3792  0.1094  0.2598
  228loPI   C4B 3648  12.459  11.726   8.273 -0.0302  0.1004 -0.1906
  229loPI    C1 3649   2.547   0.208  10.920 -0.1417  0.0262 -0.2589
  229loPI    C2 3650   2.627  -0.150  11.080 -0.1332  0.0484 -0.2134
  229loPI    C3 3651   2.426   0.123  11.292 -0.1091  0.0833 -0.2352
  229loPI   PO4 3652   2.794   0.220  10.767 -0.1486  0.3848 -0.0863
  229loPI   GL1 3653   2.879   0.157  10.308 -0.2853 -0.1704  0.3042
  229loPI   GL2 3654   2.917  -0.055  10.071  0.1217  0.0115 -0.0528
  229loPI   C1A 3655   3.013   0.368   9.903 -0.0405  0.1939  0.1231
  229loPI   C2A 3656   3.143   0.484   9.533  0.1514  0.1712  0.1246
  229loPI   C3A 3657   3.084   0.565   9.049  0.2110 -0.0840  0.1020
  229loPI   C4A 3658   2.944   0.550   8.562 -0.0007 -0.0381  0.0631
  229loPI   C5A 3659   2.577   0.807   8.283  0.2918  0.2489  0.1965
  229loPI   C6A 3660   2.442   0.861   7.956 -0.0420  0.2010  0.1373
  229loPI   C1B 3661   2.974  -0.073   9.608  0.0683  0.0298  0.0629
  229loPI   C2B 3662   3.048   0.111   9.175  0.0438 -0.1471 -0.0132
  229loPI   C3B 3663   2.984   0.092   8.714  0.1381  0.1724 -0.1092
  229loPI   C4B 3664   2.878   0.103   8.263 -0.0379 -0.0538  0.1678
  230loPI    C1 3665   8.552   7.120  10.622  0.2702 -0.2112 -0.2868
  230loPI    C2 3666   8.596   6.877  10.937 -0.2638 -0.0746 -0.0971
  230loPI    C3 3667   8.658   7.271  10.977  0.0075 -0.0988 -0.2542
  230loPI   PO4 3668   8.651   6.973  10.428  0.2939 -0.2507  0.1216
  230loPI   GL1 3669   8.668   6.781  10.005 -0.2268 -0.1771 -0.0037
  230loPI   GL2 3670   8.397   6.818  10.019 -0.1504  0.0405  0.0229
  230loPI   C1A 3671   8.603   6.571   9.589 -0.0331  0.2691 -0.0293
  230loPI   C2A 3672   8.667   6.556   9.156 -0.3417  0.1971  0.1834
  230loPI   C3A 3673   8.614   6.471   8.698 -0.0937  0.0982 -0.1836
  230loPI   C4A 3674   8.505   6.602   8.338 -0.0812 -0.1803  0.0166
  230loPI   C5A 3675   8.179   6.744   8.177 -0.0789 -0.0181  0.1269
  230loPI   C6A 3676   7.938   6.527   7.903 -0.0190  0.0545 -0.1174
  230loPI   C1B 3677   8.128   6.652   9.770 -0.0073  0.1680  0.1377
  230loPI   C2B 3678   8.068   6.557   9.315  0.0954 -0.0624  0.0719
  230loPI   C3B 3679   8.046   6.545   8.817 -0.0236  0.2460 -0.0456
  230loPI   C4B 3680   7.898   6.420   8.435  0.0040 -0.4632 -0.1859
  231loPI    C1 3681   5.994   5.567  10.877  0.2157  0.1383  0.0191
  231loPI    C2 3682   6.071   5.348  11.203  0.1984  0.1157  0.0078
  231loPI    C3 3683   6.009   5.168  10.852 -0.0298  0.1261  0.0412
  231loPI   PO4 3684   6.254   5.785  10.846 -0.1902  0.0253 -0.0092
  231loPI   GL1 3685   6.379   6.163  10.595  0.1634 -0.2384 -0.1919
  231loPI   GL2 3686   6.175   6.317  10.313  0.0385  0.2079 -0.3012
  231loPI   C1A 3687   6.434   5.844  10.197  0.1352  0.1352 -0.0843
  231loPI   C2A 3688   6.484   5.817   9.752  0.0056  0.1072  0.0070
  231loPI   C3A 3689   6.495   5.786   9.324 -0.2651  0.0373 -0.1059
  231loPI   C4A 3690   6.522   5.677   8.976 -0.2099  0.3930 -0.2211
  231loPI   C5A 3691   6.468   5.794   8.518  0.0134 -0.0448 -0.1924
  231loPI   C6A 3692   6.193   5.827   8.249  0.2998 -0.1873  0.2015
  231loPI   C1B 3693   6.208   6.247   9.879  0.0448 -0.3600 -0.1961
  231loPI   C2B 3694   6.226   6.331   9.457  0.2787  0.3014 -0.2067
  231loPI   C3B 3695   6.392   6.267   9.051  0.0487 -0.0140 -0.0166
  231loPI   C4B 3696   6.297   6.274   8.545 -0.1112 -0.0693 -0.1208
  232loPI    C1 3697  16.658  17.181  10.989  0.0928  0.1904 -0.3231
  232loPI    C2 3698  16.420  17.196  10.668 -0.0880 -0.0983 -0.2064
  232loPI    C3 3699  16.266  17.252  11.033  0.0574 -0.1010 -0.1440
  232loPI   PO4 3700  16.892  17.136  10.846  0.0023  0.0778  0.0455
  232loPI   GL1 3701  17.034  16.942  10.403  0.1417  0.0629  0.1285
  232loPI   GL2 3702  16.736  16.962  10.353  0.0042 -0.1939 -0.3730
  232loPI   C1A 3703  16.943  17.233  10.009 -0.1744 -0.1247 -0.2214
  232loPI   C2A 3704  16.877  17.224   9.559 -0.0827  0.2293  0.1663
  232loPI   C3A 3705  16.934  17.387   9.166  0.2781  0.0403  0.3047
  232loPI   C4A 3706  16.921  17.323   8.775  0.1467  0.0727  0.0614
  232loPI   C5A 3707  16.999  17.647   8.455  0.1948 -0.0500 -0.0618
  232loPI   C6A 3708  16.924  18.003   8.146 -0.2226 -0.0906  0.0676
  232loPI   C1B 3709  16.736  16.752   9.948 -0.0614 -0.0247  0.0104
  232loPI   C2B 3710  16.822  16.756   9.524 -0.3360  0.0243 -0.2044
  232loPI   C3B 3711  16.770  16.831   9.138  0.1394 -0.0065  0.1249
  232loPI   C4B 3712  16.902  16.802   8.796  0.1326  0.1250 -0.1095
  233loPI    C1 3713   0.544  17.315  10.831 -0.0763  0.0444 -0.0443
  233loPI    C2 3714   0.790  17.527  11.064 -0.0253 -0.0237 -0.0355
  233loPI    C3 3715   0.408  17.639  11.021  0.0032  0.0736 -0.0369
  233loPI   PO4 3716   0.651  17.268  10.565  0.0657  0.0367 -0.0575
  233loPI   GL1 3717   0.356  17.293  10.227 -0.1193 -0.0606 -0.0768
  233loPI   GL2 3718   0.478  16.955  10.239  0.1320 -0.0754  0.2176
  233loPI   C1A 3719   0.469  17.372   9.751  0.2019 -0.2359 -0.0516
  233loPI   C2A 3720   0.530  17.383   9.331 -0.0354  0.2986  0.1354
  233loPI   C3A 3721   0.622  17.413   8.920 -0.0372 -0.1206 -0.0416
  233loPI   C4A 3722   0.482  17.528   8.488 -0.1426 -0.1301 -0.1562
  233loPI   C5A 3723   0.317  17.793   8.098  0.3503  0.1745 -0.1002
  233loPI   C6A 3724   0.190  17.784   7.739  0.4218  0.1738  0.3382
  233loPI   C1B 3725   0.391  16.908   9.873 -0.0403  0.0551  0.2262
  233loPI   C2B 3726   0.343  16.865   9.423 -0.0852  0.0054  0.1010
  233loPI   C3B 3727   0.427  16.961   8.965  0.3366 -0.0500  0.2303
  233loPI   C4B 3728   0.502  17.056   8.567  0.0274  0.0506  0.1642
  234loPI    C1 3729  14.671   8.071  11.422  0.0842 -0.0398 -0.0756
  234loPI    C2 3730  14.649   8.413  11.628  0.1103 -0.0614 -0.0368
  234loPI    C3 3731  15.001   8.287  11.488  0.1220 -0.1384  0.0611
  234loPI   PO4 3732  14.399   8.060  11.315  0.2492 -0.0145  0.0514
  234loPI   GL1 3733  14.414   8.026  10.904 -0.0765  0.3713 -0.0902
  234loPI   GL2 3734  14.638   7.744  10.957 -0.2723 -0.3897  0.0291
  234loPI   C1A 3735  14.239   8.350  10.639 -0.1821  0.0183  0.0655
  234loPI   C2A 3736  14.081   8.351  10.285  0.3056 -0.0694 -0.5172
  234loPI   C3A 3737  14.221   8.388   9.871 -0.0995 -0.1522 -0.1708
  234loPI   C4A 3738  14.209   8.409   9.430 -0.1560 -0.2680  0.0320
  234loPI   C5A 3739  14.254   8.385   9.010  0.1485  0.0877  0.2396
  234loPI   C6A 3740  14.071   8.266   8.628 -0.2586  0.3474  0.0183
  234loPI   C1B 3741  14.604   7.763  10.444  0.0919 -0.2956  0.0127
  234loPI   C2B 3742  14.689   7.713  10.001 -0.3177  0.3286  0.0128
  234loPI   C3B 3743  14.682   7.671   9.510  0.0332  0.0043 -0.2802
  234loPI   C4B 3744  14.707   7.676   9.055 -0.2013  0.3272 -0.1148
  235loPI    C1 3745  12.432  15.692  10.916  0.0070 -0.2054 -0.1150
  235loPI    C2 3746  12.660  15.496  11.179 -0.0716 -0.0650  0.0600
  235loPI    C3 3747  12.379  15.749  11.308 -0.2512 -0.1507 -0.1560
  235loPI   PO4 3748  12.542  15.488  10.655  0.0315  0.2207 -0.0764
  235loPI   GL1 3749  12.675  15.237  10.329 -0.0291  0.2525 -0.0206
  235loPI   GL2 3750  12.561  14.894  10.396  0.1702  0.2209  0.0208
  235loPI   C1A 3751  12.687  15.743  10.048  0.2614 -0.0927  0.0139
  235loPI   C2A 3752  12.399  15.994   9.819 -0.3394 -0.0037  0.0774
  235loPI   C3A 3753  12.465  15.869   9.315  0.4277  0.0268 -0.4141
  235loPI   C4A 3754  12.633  15.845   8.936  0.1345  0.0863 -0.1106
  235loPI   C5A 3755  12.791  15.840   8.506  0.1517 -0.2408  0.1974
  235loPI   C6A 3756  12.662  16.169   8.218  0.1237  0.2665 -0.1150
  235loPI   C1B 3757  12.754  14.848  10.028  0.0024  0.1904  0.0784
  235loPI   C2B 3758  12.754  14.558   9.685  0.1027 -0.0214  0.2234
  235loPI   C3B 3759  12.747  14.530   9.172 -0.1065 -0.2027  0.0300
  235loPI   C4B 3760  12.750  14.502   8.775 -0.0822  0.0667  0.4595
  236loPI    C1 3761  16.083   4.199  11.079  0.1459  0.1100  0.1140
  236loPI    C2 3762  15.778   4.358  11.284  0.1164  0.1522  0.0377
  236loPI    C3 3763  15.747   3.989  11.132 -0.0138  0.2698 -0.2290
  236loPI   PO4 3764  16.123   4.342  10.899 -0.2851 -0.0348  0.1274
  236loPI   GL1 3765  16.289   4.630  10.575  0.1174  0.1133  0.1316
  236loPI   GL2 3766  15.999   4.938  10.476 -0.1387 -0.0792 -0.1105
  236loPI   C1A 3767  16.231   4.638  10.086 -0.0908 -0.1990  0.1823
  236loPI   C2A 3768  16.132   4.702   9.659 -0.0630  0.1035 -0.1516
  236loPI   C3A 3769  16.112   4.742   9.228  0.2429  0.1592 -0.1379
  236loPI   C4A 3770  16.147   4.802   8.839  0.0292  0.2987 -0.2661
  236loPI   C5A 3771  16.129   4.915   8.384 -0.0380 -0.2500  0.1931
  236loPI   C6A 3772  16.143   4.919   7.946  0.0195 -0.3124 -0.0714
  236loPI   C1B 3773  15.981   5.022  10.085 -0.0852  0.0110  0.1242
  236loPI   C2B 3774  16.050   5.195   9.668  0.0796  0.1260  0.0587
  236loPI   C3B 3775  15.998   5.219   9.205  0.2655 -0.3218 -0.0486
  236loPI   C4B 3776  16.039   5.274   8.780 -0.1205  0.3454  0.1655
  237loPI    C1 3777  14.363  12.989  10.849 -0.1245 -0.0039  0.0748
  237loPI    C2 3778  14.353  13.382  10.775 -0.0708 -0.0193 -0.0150
  237loPI    C3 3779  14.308  13.248  11.149 -0.3688  0.0580 -0.0209
  237loPI   PO4 3780  14.599  12.925  10.721  0.2110 -0.0297  0.1626
  237loPI   GL1 3781  14.574  12.988  10.281  0.2283  0.0366 -0.1282
  237loPI   GL2 3782  14.376  13.246  10.241  0.0702  0.0109 -0.0798
  237loPI   C1A 3783  14.640  12.847   9.929  0.1819  0.0799 -0.5256
  237loPI   C2A 3784  14.674  12.826   9.582 -0.0211  0.0868  0.1038
  237loPI   C3A 3785  14.660  12.820   9.110  0.0802 -0.0047 -0.0052
  237loPI   C4A 3786  14.659  12.714   8.629  0.1646  0.1303  0.1206
  237loPI   C5A 3787  14.676  12.524   8.217 -0.0036 -0.3936  0.1106
  237loPI   C6A 3788  15.123  12.379   8.158 -0.2797  0.0116 -0.0477
  237loPI   C1B 3789  14.282  13.164   9.820 -0.2985  0.0179 -0.3291
  237loPI   C2B 3790  14.273  13.156   9.325 -0.0863  0.0050  0.1600
  237loPI   C3B 3791  14.278  13.073   8.842 -0.1034  0.1833 -0.0760
  237loPI   C4B 3792  14.268  12.998   8.411 -0.3456 -0.1079  0.0685
  238loPI    C1 3793  12.919  10.551  10.868 -0.0220 -0.0254 -0.0776
  238loPI    C2 3794  12.989  10.873  11.096  0.1864 -0.0103 -0.1604
  238loPI    C3 3795  12.646  10.670  11.136  0.0978  0.1612 -0.0361
  238loPI   PO4 3796  13.194  10.461  10.851 -0.0028  0.3100  0.1548
  238loPI   GL1 3797  13.433  10.246  10.487 -0.1785 -0.1833  0.3245
  238loPI   GL2 3798  13.480  10.553  10.406 -0.1113 -0.1952 -0.0302
  238loPI   C1A 3799  13.434  10.231  10.019  0.0115  0.2414  0.0174
  238loPI   C2A 3800  13.557  10.065   9.567  0.1732  0.0947  0.2549
  238loPI   C3A 3801  13.547  10.100   9.118 -0.0319 -0.2848  0.1743
  238loPI   C4A 3802  13.668  10.049   8.661 -0.1657 -0.3950  0.2042
  238loPI   C5A 3803  13.433  10.148   8.229  0.1292  0.0683 -0.0833
  238loPI   C6A 3804  13.105  10.385   8.070 -0.0805  0.0158  0.0858
  238loPI   C1B 3805  13.536  10.835   9.996 -0.4185 -0.1232  0.0527
  238loPI   C2B 3806  13.518  11.237   9.835 -0.0682  0.0213  0.0280
  238loPI   C3B 3807  13.528  11.450   9.480 -0.1597  0.1021  0.1272
  238loPI   C4B 3808  13.415  11.465   9.009 -0.1497 -0.2317  0.1171
  239loPI    C1 3809   5.316   5.904  11.064 -0.0523 -0.1428 -0.1534
  239loPI    C2 3810   5.200   5.522  11.093 -0.3396 -0.0490 -0.0298
  239loPI    C3 3811   5.119   5.779  11.389 -0.0021  0.0721 -0.0382
  239loPI   PO4 3812   5.577   5.827  10.852 -0.1852 -0.0975 -0.0901
  239loPI   GL1 3813   5.594   5.882  10.465  0.0874  0.3347 -0.1396
  239loPI   GL2 3814   5.939   5.888  10.450  0.0240  0.0378  0.1543
  239loPI   C1A 3815   5.436   5.865   9.954 -0.1995  0.2346 -0.0234
  239loPI   C2A 3816   5.445   5.836   9.542 -0.0684 -0.0500 -0.2520
  239loPI   C3A 3817   5.452   5.914   9.031  0.2291  0.0947 -0.2456
  239loPI   C4A 3818   5.509   5.872   8.656  0.4093  0.0289  0.0326
  239loPI   C5A 3819   5.476   5.885   8.283 -0.1999  0.2198  0.0559
  239loPI   C6A 3820   5.394   6.228   8.017 -0.2331  0.0716  0.0911
  239loPI   C1B 3821   5.922   5.868  10.078 -0.0228  0.1091  0.2790
  239loPI   C2B 3822   5.974   5.870   9.602  0.1169 -0.0582 -0.2179
  239loPI   C3B 3823   6.028   5.947   9.176 -0.0128  0.3408  0.1831
  239loPI   C4B 3824   6.010   5.845   8.761 -0.4230 -0.2401 -0.2169
  240loPI    C1 3825   3.220  14.241  11.146  0.1384  0.0407  0.1333
  240loPI    C2 3826   2.989  14.436  11.407  0.1679  0.0891  0.1234
  240loPI    C3 3827   3.301  14.224  11.538  0.1083  0.0102  0.1382
  240loPI   PO4 3828   3.294  14.381  10.982  0.1018 -0.0871  0.1122
  240loPI   GL1 3829   3.314  14.413  10.585 -0.0507 -0.1795 -0.0125
  240loPI   GL2 3830   3.137  14.115  10.541  0.0792  0.2918 -0.0424
  240loPI   C1A 3831   3.437  14.349  10.091  0.1968  0.1218 -0.0319
  240loPI   C2A 3832   3.530  14.287   9.622  0.1869  0.2235 -0.0164
  240loPI   C3A 3833   3.488  14.214   9.185  0.0165 -0.2056 -0.1065
  240loPI   C4A 3834   3.460  14.245   8.701 -0.0624 -0.1550 -0.0216
  240loPI   C5A 3835   3.443  14.161   8.347 -0.3050 -0.2045 -0.0551
  240loPI   C6A 3836   3.343  14.367   8.065 -0.2318 -0.1778  0.1914
  240loPI   C1B 3837   3.007  14.154  10.075  0.0761  0.4133  0.0012
  240loPI   C2B 3838   3.032  14.073   9.690 -0.5051 -0.0045  0.0817
  240loPI   C3B 3839   2.981  14.056   9.274  0.1468 -0.0071  0.0744
  240loPI   C4B 3840   3.016  14.019   8.787 -0.0678  0.0378  0.1631
  241loPI    C1 3841   4.038   7.342  11.081  0.1432  0.0520  0.0076
  241loPI    C2 3842   4.188   7.707  11.017 -0.1089  0.1506 -0.0325
  241loPI    C3 3843   3.872   7.660  11.257 -0.1256 -0.0322 -0.0886
  241loPI   PO4 3844   3.999   7.254  10.856 -0.0317 -0.0398  0.2061
  241loPI   GL1 3845   3.944   7.341  10.453  0.1589 -0.0748 -0.1115
  241loPI   GL2 3846   4.070   7.690  10.446  0.0294 -0.0452  0.0591
  241loPI   C1A 3847   4.118   7.366  10.015  0.1339 -0.0905 -0.0081
  241loPI   C2A 3848   4.235   7.371   9.522 -0.3072  0.2390 -0.0972
  241loPI   C3A 3849   4.276   7.430   9.180 -0.0450 -0.0111 -0.1698
  241loPI   C4A 3850   4.330   7.392   8.778 -0.0220 -0.0563  0.3018
  241loPI   C5A 3851   4.411   7.399   8.333 -0.0459 -0.3746  0.4046
  241loPI   C6A 3852   4.258   7.246   7.962  0.2960  0.0523  0.0503
  241loPI   C1B 3853   3.999   7.829  10.021  0.1569 -0.0990  0.0345
  241loPI   C2B 3854   4.039   7.853   9.546 -0.1840  0.2114 -0.3309
  241loPI   C3B 3855   3.981   7.938   9.103  0.0048  0.0610 -0.0811
  241loPI   C4B 3856   4.073   7.791   8.737 -0.0865 -0.0253 -0.4238
  242loPI    C1 3857  14.971  17.149  11.018  0.0201 -0.0183  0.0822
  242loPI    C2 3858  15.043  17.368  11.345  0.1268 -0.0740  0.0960
  242loPI    C3 3859  15.080  16.970  11.359  0.1207 -0.0772  0.0193
  242loPI   PO4 3860  15.083  17.236  10.779  0.1549  0.3316 -0.1419
  242loPI   GL1 3861  15.182  17.474  10.495  0.1291 -0.0495 -0.1629
  242loPI   GL2 3862  15.497  17.388  10.485 -0.3349  0.2550  0.0225
  242loPI   C1A 3863  14.910  17.298  10.172 -0.2811 -0.1994  0.0815
  242loPI   C2A 3864  14.780  17.293   9.863  0.0867  0.2501  0.4218
  242loPI   C3A 3865  14.731  17.171   9.456  0.2234  0.2432  0.2811
  242loPI   C4A 3866  14.606  17.260   9.051  0.1037  0.1484 -0.0622
  242loPI   C5A 3867  14.482  17.190   8.674  0.0639  0.0714  0.0131
  242loPI   C6A 3868  14.693  17.231   8.197  0.0277  0.3545  0.0530
  242loPI   C1B 3869  15.499  17.267  10.053 -0.1066 -0.1314  0.2170
  242loPI   C2B 3870  15.341  17.139   9.663 -0.1647  0.4509  0.0248
  242loPI   C3B 3871  15.412  16.907   9.336  0.2095  0.1207  0.0659
  242loPI   C4B 3872  15.465  16.945   8.973  0.2293 -0.1259  0.2723
  243loPI    C1 3873  17.663   5.303  10.835 -0.1214  0.1059  0.2035
  243loPI    C2 3874  17.940   5.455  11.080  0.1503  0.0182 -0.0433
  243loPI    C3 3875  17.833   5.071  11.113  0.1391  0.0232 -0.0206
  243loPI   PO4 3876  17.587   5.572  10.703  0.3142  0.1403 -0.1386
  243loPI   GL1 3877  17.672   5.903  10.303  0.0306 -0.1740  0.2195
  243loPI   GL2 3878  17.414   5.646  10.234  0.0181  0.0733 -0.1107
  243loPI   C1A 3879  17.235   6.122  10.053 -0.3641  0.1655  0.1869
  243loPI   C2A 3880  17.270   6.203   9.637 -0.0925  0.4116  0.3839
  243loPI   C3A 3881  17.159   6.138   9.184 -0.3126 -0.2214  0.0018
  243loPI   C4A 3882  17.240   6.217   8.774  0.3649 -0.0021 -0.0751
  243loPI   C5A 3883  17.274   6.483   8.378  0.0656 -0.4197 -0.1442
  243loPI   C6A 3884  16.889   6.464   8.083  0.0237 -0.0534  0.1508
  243loPI   C1B 3885  17.375   5.678   9.849  0.1380 -0.1257  0.1043
  243loPI   C2B 3886  17.299   5.710   9.499 -0.0356 -0.1381  0.1820
  243loPI   C3B 3887  17.320   5.666   9.141  0.1629 -0.0506  0.0926
  243loPI   C4B 3888  17.306   5.669   8.701  0.0925 -0.1173 -0.3299
  244loPI    C1 3889   5.001   4.190  11.004  0.0450  0.2192  0.1248
  244loPI    C2 3890   4.754   3.970  11.230  0.0793  0.0736  0.0224
  244loPI    C3 3891   4.745   4.370  11.253 -0.0122  0.0631  0.1798
  244loPI   PO4 3892   5.035   4.064  10.822 -0.1978 -0.0615  0.4061
  244loPI   GL1 3893   4.839   3.985  10.484 -0.1481  0.3387  0.0198
  244loPI   GL2 3894   4.585   4.236  10.402  0.3450 -0.0032 -0.6840
  244loPI   C1A 3895   4.843   4.055  10.033 -0.0427  0.0597 -0.1318
  244loPI   C2A 3896   4.658   4.149   9.663  0.0536  0.0505 -0.1278
  244loPI   C3A 3897   4.760   4.224   9.231 -0.1852  0.0698 -0.0967
  244loPI   C4A 3898   4.767   4.217   8.815 -0.0201 -0.0752 -0.2959
  244loPI   C5A 3899   4.749   4.168   8.312  0.2421  0.1284 -0.0819
  244loPI   C6A 3900   4.338   4.035   8.052  0.0029  0.0106  0.0220
  244loPI   C1B 3901   4.430   4.391  10.003 -0.0187 -0.0323  0.1080
  244loPI   C2B 3902   4.431   4.609   9.667 -0.1919 -0.0141 -0.1322
  244loPI   C3B 3903   4.582   4.657   9.296 -0.1579 -0.3901 -0.2360
  244loPI   C4B 3904   4.531   4.669   8.913 -0.2463  0.1979  0.2454
  245loPI    C1 3905   5.480   4.811  10.745  0.0413  0.1629 -0.2420
  245loPI    C2 3906   5.362   4.430  10.718 -0.0597  0.1546  0.2315
  245loPI    C3 3907   5.377   4.610  11.075  0.2818  0.5035  0.0485
  245loPI   PO4 3908   5.587   4.878  10.671 -0.2018 -0.2328  0.2083
  245loPI   GL1 3909   5.689   4.801  10.265 -0.2436 -0.0812  0.0850
  245loPI   GL2 3910   5.559   4.506  10.031 -0.0837  0.0689  0.0192
  245loPI   C1A 3911   5.794   4.895   9.784 -0.0827 -0.0482 -0.1194
  245loPI   C2A 3912   5.971   4.934   9.411  0.0973  0.1494  0.1563
  245loPI   C3A 3913   5.904   4.919   8.954 -0.0073  0.2254  0.2163
  245loPI   C4A 3914   5.874   4.954   8.502 -0.0357 -0.3026 -0.0998
  245loPI   C5A 3915   5.919   4.750   8.132  0.0352 -0.1250  0.0381
  245loPI   C6A 3916   6.139   4.519   7.763  0.1273  0.2235 -0.3007
  245loPI   C1B 3917   5.613   4.457   9.577  0.0027  0.2007  0.0638
  245loPI   C2B 3918   5.610   4.538   9.177  0.1335 -0.4225 -0.1624
  245loPI   C3B 3919   5.606   4.567   8.725 -0.1416 -0.1476 -0.2049
  245loPI   C4B 3920   5.544   4.443   8.401 -0.0168 -0.0331 -0.1227
  246loPI    C1 3921  11.260   6.503  11.194 -0.1877 -0.0548  0.0447
  246loPI    C2 3922  11.019   6.252  11.390 -0.2368  0.0506  0.1205
  246loPI    C3 3923  11.010   6.643  11.473  0.0989  0.0311  0.2635
  246loPI   PO4 3924  11.200   6.453  10.921  0.2780 -0.1165 -0.0468
  246loPI   GL1 3925  11.311   6.684  10.525 -0.3306  0.1380 -0.0590
  246loPI   GL2 3926  11.171   6.932  10.403  0.1142 -0.1995  0.1293
  246loPI   C1A 3927  11.625   6.474  10.231  0.0287 -0.1997  0.1104
  246loPI   C2A 3928  11.704   6.531   9.878 -0.0859  0.1524  0.1324
  246loPI   C3A 3929  11.746   6.510   9.486 -0.1747 -0.2426  0.0419
  246loPI   C4A 3930  11.658   6.546   8.990 -0.0433  0.5604  0.0361
  246loPI   C5A 3931  11.640   6.539   8.588 -0.4159 -0.1125 -0.1429
  246loPI   C6A 3932  11.638   6.150   8.244  0.0078  0.1441 -0.0878
  246loPI   C1B 3933  11.278   6.880  10.012 -0.2022  0.0903 -0.0965
  246loPI   C2B 3934  11.201   7.165   9.652  0.0052 -0.0287 -0.1391
  246loPI   C3B 3935  11.132   7.324   9.244 -0.1591 -0.3528 -0.1275
  246loPI   C4B 3936  11.161   7.391   8.827  0.1576 -0.1499  0.1935
  247loPI    C1 3937  11.783  12.279  10.764 -0.0419  0.1376 -0.0483
  247loPI    C2 3938  12.155  12.345  10.633 -0.1523  0.1426 -0.3698
  247loPI    C3 3939  12.092  12.239  11.014  0.1585  0.3439 -0.2586
  247loPI   PO4 3940  11.572  12.546  10.740  0.0537  0.0125  0.0339
  247loPI   GL1 3941  11.452  12.595  10.278  0.0155  0.1457 -0.2420
  247loPI   GL2 3942  11.392  12.368  10.319  0.2227 -0.1518 -0.0892
  247loPI   C1A 3943  11.417  12.652   9.858 -0.1283  0.3081  0.0968
  247loPI   C2A 3944  11.597  12.670   9.495 -0.0841  0.0409  0.1068
  247loPI   C3A 3945  11.391  12.732   9.169  0.0205  0.0411 -0.1541
  247loPI   C4A 3946  11.408  12.649   8.695 -0.0833 -0.2649 -0.3135
  247loPI   C5A 3947  11.272  12.735   8.318 -0.1352 -0.0951  0.0862
  247loPI   C6A 3948  11.328  12.534   7.904  0.2591 -0.0008 -0.2561
  247loPI   C1B 3949  11.363  12.174   9.993 -0.0857  0.1255 -0.3014
  247loPI   C2B 3950  11.384  12.161   9.573  0.1621  0.1817  0.1627
  247loPI   C3B 3951  11.357  12.208   9.196  0.1745 -0.0870  0.0953
  247loPI   C4B 3952  11.386  12.172   8.772  0.2602  0.0911  0.2576
  248loPI    C1 3953   1.327   6.270  10.960  0.1105 -0.0151 -0.2053
  248loPI    C2 3954   1.507   5.942  10.820 -0.0402 -0.1929  0.0118
  248loPI    C3 3955   1.609   6.089  11.178 -0.1331 -0.1356  0.0152
  248loPI   PO4 3956   1.308   6.456  10.852  0.0462 -0.2731  0.1448
  248loPI   GL1 3957   1.574   6.619  10.560  0.1191  0.1863 -0.3885
  248loPI   GL2 3958   1.637   6.259  10.478 -0.0587 -0.4405 -0.2145
  248loPI   C1A 3959   1.616   6.507  10.063  0.4189  0.0891  0.1166
  248loPI   C2A 3960   1.567   6.565   9.690 -0.1038  0.3307  0.2765
  248loPI   C3A 3961   1.598   6.554   9.239  0.2460 -0.4266  0.1350
  248loPI   C4A 3962   1.630   6.681   8.813 -0.3038 -0.0425  0.0179
  248loPI   C5A 3963   1.460   6.939   8.509  0.0953 -0.1791  0.0561
  248loPI   C6A 3964   1.264   7.268   8.269 -0.0443 -0.0064 -0.0619
  248loPI   C1B 3965   1.377   5.961  10.300  0.2916 -0.2369  0.1494
  248loPI   C2B 3966   1.274   5.775   9.984  0.0007 -0.1352 -0.1756
  248loPI   C3B 3967   1.141   5.720   9.627  0.2030 -0.0334 -0.1838
  248loPI   C4B 3968   0.847   5.500   9.315  0.0711 -0.0931 -0.0599
  249loPI    C1 3969  10.381  12.594  10.777  0.1149 -0.0508  0.1345
  249loPI    C2 3970  10.150  12.921  10.779  0.1367 -0.0327 -0.0743
  249loPI    C3 3971  10.207  12.715  11.117 -0.2121 -0.0575 -0.0266
  249loPI   PO4 3972  10.431  12.594  10.539  0.1260  0.0452 -0.0787
  249loPI   GL1 3973  10.224  12.544  10.250  0.0271 -0.1743 -0.0101
  249loPI   GL2 3974  10.053  12.253  10.185  0.1729  0.3513  0.1205
  249loPI   C1A 3975  10.187  12.648   9.850  0.0841  0.3199 -0.3346
  249loPI   C2A 3976  10.154  12.783   9.489 -0.0838 -0.1661  0.1197
  249loPI   C3A 3977  10.061  12.733   9.027  0.1279  0.0246  0.2001
  249loPI   C4A 3978   9.932  12.724   8.611 -0.0506  0.0101 -0.1437
  249loPI   C5A 3979   9.943  12.914   8.173  0.1720 -0.0577 -0.0897
  249loPI   C6A 3980   9.736  13.023   7.793  0.2409  0.0823  0.0035
  249loPI   C1B 3981  10.005  12.205   9.716 -0.0815 -0.1119  0.2214
  249loPI   C2B 3982   9.938  12.265   9.230  0.2580  0.0912 -0.0996
  249loPI   C3B 3983   9.852  12.236   8.836 -0.1729  0.0186 -0.0017
  249loPI   C4B 3984   9.754  12.287   8.420  0.0324  0.2794  0.0996
  250loPI    C1 3985   8.349  12.865  11.088 -0.0770 -0.0426  0.1051
  250loPI    C2 3986   7.974  12.727  11.085 -0.0731 -0.0523  0.0286
  250loPI    C3 3987   8.163  12.786  11.433 -0.0916 -0.1941  0.0631
  250loPI   PO4 3988   8.433  12.787  10.801 -0.2071 -0.1010 -0.1033
  250loPI   GL1 3989   8.334  12.627  10.327  0.0591  0.3872  0.0234
  250loPI   GL2 3990   8.615  12.371  10.436 -0.0772  0.1429  0.0745
  250loPI   C1A 3991   8.189  12.621   9.917  0.2920  0.1108 -0.1305
  250loPI   C2A 3992   8.298  12.570   9.450 -0.2137  0.0038  0.0853
  250loPI   C3A 3993   8.242  12.666   8.917 -0.0504 -0.1919 -0.1457
  250loPI   C4A 3994   7.932  12.780   8.560  0.1996 -0.3898  0.1881
  250loPI   C5A 3995   7.570  12.949   8.299  0.2001 -0.0751 -0.2093
  250loPI   C6A 3996   7.129  12.824   8.260 -0.1097 -0.0703 -0.3218
  250loPI   C1B 3997   8.580  12.258   9.967  0.3228 -0.1627 -0.1926
  250loPI   C2B 3998   8.685  12.276   9.525 -0.1711  0.0041  0.1617
  250loPI   C3B 3999   8.549  12.302   9.082 -0.2758 -0.1323  0.1219
  250loPI   C4B 4000   8.439  12.225   8.653 -0.0265 -0.0041  0.1551
  251loPI    C1 4001   2.546  12.485  11.215 -0.1551  0.0751 -0.1119
  251loPI    C2 4002   2.787  12.771  11.073 -0.1527  0.2018  0.1401
  251loPI    C3 4003   2.937  12.474  11.295 -0.1182 -0.1296 -0.3121
  251loPI   PO4 4004   2.345  12.459  10.994 -0.0690  0.0772 -0.2055
  251loPI   GL1 4005   2.169  12.417  10.558 -0.1910 -0.0598  0.0489
  251loPI   GL2 4006   2.191  12.799  10.347 -0.0765 -0.0613 -0.1620
  251loPI   C1A 4007   2.218  12.404  10.046  0.0158 -0.2044  0.1639
  251loPI   C2A 4008   2.158  12.341   9.576 -0.0508  0.2982 -0.2197
  251loPI   C3A 4009   2.153  12.346   9.127  0.1125 -0.1994  0.2557
  251loPI   C4A 4010   2.113  12.435   8.676  0.0508 -0.2995  0.2101
  251loPI   C5A 4011   1.919  12.162   8.473 -0.1334  0.1421  0.0465
  251loPI   C6A 4012   1.843  11.839   8.358  0.1830 -0.2776 -0.0018
  251loPI   C1B 4013   2.330  12.955   9.916 -0.1475  0.3777  0.2544
  251loPI   C2B 4014   2.343  12.768   9.408  0.1665  0.1977  0.1247
  251loPI   C3B 4015   2.602  12.578   9.145 -0.1743 -0.1114  0.1272
  251loPI   C4B 4016   2.630  12.198   8.849  0.1054  0.2326 -0.2742
  252loPI    C1 4017   1.633  15.717  10.976 -0.0821 -0.0037 -0.0850
  252loPI    C2 4018   1.792  15.379  10.834 -0.0452  0.0529 -0.1794
  252loPI    C3 4019   1.829  15.470  11.222 -0.0219 -0.0320 -0.1614
  252loPI   PO4 4020   1.676  15.850  10.829 -0.0522  0.1964 -0.1439
  252loPI   GL1 4021   1.572  15.772  10.376  0.3213  0.0519  0.0105
  252loPI   GL2 4022   1.372  15.835  10.327  0.2775 -0.0665 -0.0342
  252loPI   C1A 4023   1.794  15.615   9.997 -0.0794 -0.1506  0.0994
  252loPI   C2A 4024   1.903  15.539   9.577  0.0023  0.3620  0.1724
  252loPI   C3A 4025   1.935  15.552   9.177 -0.0013  0.0043 -0.1151
  252loPI   C4A 4026   2.031  15.702   8.834 -0.1455 -0.0377 -0.0538
  252loPI   C5A 4027   2.119  15.642   8.381  0.2150  0.1307 -0.1640
  252loPI   C6A 4028   2.227  15.241   8.141 -0.2579 -0.0864  0.3133
  252loPI   C1B 4029   1.476  15.979   9.898  0.0783  0.1724 -0.3128
  252loPI   C2B 4030   1.508  16.000   9.406 -0.0455  0.0065  0.0541
  252loPI   C3B 4031   1.561  15.983   8.988 -0.1469  0.0909 -0.2017
  252loPI   C4B 4032   1.716  15.942   8.525 -0.0699  0.3081 -0.1557
  253loPI    C1 4033   9.198   6.680  11.344  0.1416 -0.0719  0.2355
  253loPI    C2 4034   8.978   7.013  11.318  0.2671 -0.0123 -0.1063
  253loPI    C3 4035   8.800   6.655  11.314  0.1258  0.0470  0.3366
  253loPI   PO4 4036   9.352   6.704  11.127 -0.3189 -0.0824  0.1926
  253loPI   GL1 4037   9.598   6.800  10.789  0.1627 -0.1287  0.2541
  253loPI   GL2 4038   9.959   6.701  10.614 -0.1000  0.3228 -0.2033
  253loPI   C1A 4039   9.637   6.905  10.348 -0.0360 -0.2963 -0.1083
  253loPI   C2A 4040   9.799   6.971   9.944 -0.1834  0.1655  0.2784
  253loPI   C3A 4041   9.836   7.047   9.522 -0.2466  0.0592 -0.1263
  253loPI   C4A 4042   9.859   6.983   9.099 -0.1058  0.0554 -0.1821
  253loPI   C5A 4043   9.839   6.937   8.677 -0.0619 -0.0683  0.0144
  253loPI   C6A 4044   9.683   7.048   8.278  0.1401  0.0921  0.0098
  253loPI   C1B 4045  10.083   6.552  10.173 -0.1924  0.2751  0.0595
  253loPI   C2B 4046  10.062   6.490   9.786 -0.2603  0.0853  0.0075
  253loPI   C3B 4047  10.052   6.492   9.394  0.1793  0.2111 -0.1655
  253loPI   C4B 4048  10.051   6.568   8.946  0.2677 -0.0329 -0.0876
  254loPI    C1 4049  15.620   2.578  10.843 -0.2197  0.1286 -0.1044
  254loPI    C2 4050  15.528   2.259  11.067  0.2816  0.1398  0.1303
  254loPI    C3 4051  15.448   2.627  11.201 -0.2973  0.1224 -0.1406
  254loPI   PO4 4052  15.553   2.507  10.648 -0.3017  0.0800  0.1978
  254loPI   GL1 4053  15.107   2.459  10.438  0.0508  0.1612  0.0885
  254loPI   GL2 4054  15.073   2.662  10.690  0.2489  0.0799  0.1700
  254loPI   C1A 4055  15.219   2.294   9.946  0.0799 -0.0585  0.1379
  254loPI   C2A 4056  14.921   2.098   9.552  0.0122 -0.0866 -0.1299
  254loPI   C3A 4057  14.794   2.201   9.135  0.2197  0.0115  0.0656
  254loPI   C4A 4058  14.763   2.356   8.698 -0.1780  0.0365 -0.0009
  254loPI   C5A 4059  14.568   2.631   8.519 -0.0590 -0.2474 -0.1656
  254loPI   C6A 4060  14.361   3.034   8.465 -0.2794 -0.0422 -0.2073
  254loPI   C1B 4061  15.176   2.811  10.125  0.0192  0.1575  0.2647
  254loPI   C2B 4062  15.105   2.776   9.737  0.0607  0.0612 -0.0987
  254loPI   C3B 4063  15.115   2.614   9.290  0.0953 -0.1723 -0.1806
  254loPI   C4B 4064  15.220   2.322   8.923  0.0940  0.2475  0.1758
  255loPI    C1 4065   2.490  16.890  10.560 -0.0180  0.2014 -0.0549
  255loPI    C2 4066   2.655  17.072  10.876  0.0259  0.2949 -0.1313
  255loPI    C3 4067   2.460  16.727  10.924  0.0434  0.3025 -0.0040
  255loPI   PO4 4068   2.332  17.122  10.443 -0.2949  0.0862 -0.0148
  255loPI   GL1 4069   2.337  17.376  10.057 -0.0947 -0.0026 -0.1311
  255loPI   GL2 4070   2.284  17.015   9.911  0.3139  0.0872  0.1522
  255loPI   C1A 4071   2.306  17.497   9.608  0.1362 -0.2278  0.1126
  255loPI   C2A 4072   2.473  17.683   9.253  0.2494  0.0709  0.1591
  255loPI   C3A 4073   2.446  17.676   8.783  0.1404  0.1829  0.0237
  255loPI   C4A 4074   2.361  17.740   8.251 -0.0812  0.0466 -0.3263
  255loPI   C5A 4075   2.187  17.682   7.840 -0.0449  0.0300 -0.1872
  255loPI   C6A 4076   2.134  17.221   7.544  0.2666  0.1506 -0.0811
  255loPI   C1B 4077   2.414  17.035   9.519 -0.1495 -0.0211  0.1331
  255loPI   C2B 4078   2.390  17.181   9.035  0.0558  0.0961  0.0038
  255loPI   C3B 4079   2.395  17.193   8.589  0.2423  0.1256  0.0534
  255loPI   C4B 4080   2.218  17.230   8.167 -0.6977 -0.2098 -0.4599
  256loPI    C1 4081  17.876  15.753  10.943 -0.0299  0.0512 -0.0416
  256loPI    C2 4082  17.892  16.114  10.770  0.1470  0.0818  0.0365
  256loPI    C3 4083  17.856  16.084  11.167  0.1847  0.0142  0.0350
  256loPI   PO4 4084  17.746  15.552  10.795 -0.0832 -0.2587 -0.3252
  256loPI   GL1 4085  17.843  15.303  10.396  0.1301  0.0646 -0.0503
  256loPI   GL2 4086  17.525  15.157  10.312  0.1616 -0.2453 -0.0150
  256loPI   C1A 4087  17.897  15.283   9.859 -0.2090 -0.0970 -0.1394
  256loPI   C2A 4088  17.859  15.330   9.434  0.2645  0.3908 -0.0571
  256loPI   C3A 4089  17.788  15.219   9.052 -0.0638 -0.1519  0.2326
  256loPI   C4A 4090  17.787  15.290   8.643 -0.1694 -0.2362  0.0428
  256loPI   C5A 4091  17.847  15.263   8.301 -0.1677 -0.0633  0.2673
  256loPI   C6A 4092  17.808  15.138   7.921  0.1659 -0.1662 -0.3639
  256loPI   C1B 4093  17.434  15.091   9.844 -0.2267 -0.4004 -0.2447
  256loPI   C2B 4094  17.398  15.160   9.426  0.1550 -0.0448  0.2398
  256loPI   C3B 4095  17.281  15.106   8.960 -0.0311 -0.0653 -0.0246
  256loPI   C4B 4096  17.299  15.168   8.527  0.0837 -0.1243 -0.1605
  257loPI    C1 4097  14.807   1.122  10.548 -0.0371  0.1175  0.0436
  257loPI    C2 4098  14.972   1.476  10.462  0.0409  0.0590 -0.0497
  257loPI    C3 4099  15.161   1.221  10.705 -0.1871  0.2310  0.3167
  257loPI   PO4 4100  14.647   1.090  10.328 -0.1286  0.2691 -0.2510
  257loPI   GL1 4101  14.664   1.176   9.875 -0.0792  0.5109 -0.1314
  257loPI   GL2 4102  14.783   1.436  10.003 -0.0444  0.1238 -0.0852
  257loPI   C1A 4103  14.896   1.333   9.468  0.0876  0.1854 -0.0226
  257loPI   C2A 4104  14.831   1.370   9.106 -0.1203  0.0723  0.3245
  257loPI   C3A 4105  14.960   1.356   8.657 -0.1216 -0.2994 -0.0246
  257loPI   C4A 4106  15.244   1.341   8.338 -0.0835 -0.1525  0.1365
  257loPI   C5A 4107  15.284   1.698   8.052  0.0411 -0.0872 -0.0574
  257loPI   C6A 4108  15.254   2.067   7.976 -0.2012 -0.0286  0.0241
  257loPI   C1B 4109  14.548   1.616   9.665 -0.0670 -0.0200  0.4294
  257loPI   C2B 4110  14.530   1.797   9.212 -0.0483  0.0197  0.1656
  257loPI   C3B 4111  14.299   1.801   8.867 -0.0510  0.1439  0.1866
  257loPI   C4B 4112  13.894   1.802   8.632  0.3892  0.0402  0.0343
  258loPI    C1 4113   8.332  17.314  10.892  0.1560 -0.0155  0.1318
  258loPI    C2 4114   8.378  17.596  11.172  0.1102  0.0432  0.0808
  258loPI    C3 4115   8.634  17.289  11.152  0.2349  0.1478  0.0574
  258loPI   PO4 4116   8.292  17.452  10.659 -0.0220  0.1964 -0.0613
  258loPI   GL1 4117   8.035  17.291  10.299  0.0105  0.0861 -0.0474
  258loPI   GL2 4118   8.145  17.122  10.230  0.0331 -0.0430  0.2245
  258loPI   C1A 4119   7.842  17.479   9.902  0.1324  0.1493 -0.3289
  258loPI   C2A 4120   7.741  17.467   9.506  0.0718  0.2636 -0.0113
  258loPI   C3A 4121   7.826  17.596   9.088 -0.1193  0.0970 -0.2155
  258loPI   C4A 4122   7.939  17.578   8.710  0.1044 -0.2115  0.0645
  258loPI   C5A 4123   7.816  17.532   8.374 -0.3137 -0.0836 -0.2399
  258loPI   C6A 4124   7.861  17.433   7.876 -0.0072 -0.0880 -0.1158
  258loPI   C1B 4125   8.187  17.146   9.772 -0.1244 -0.0495 -0.1912
  258loPI   C2B 4126   8.211  17.245   9.319  0.0629 -0.1341 -0.0962
  258loPI   C3B 4127   8.210  17.242   8.894  0.0502  0.3449  0.4197
  258loPI   C4B 4128   8.321  17.301   8.471 -0.0494  0.2404  0.3338
  259loPI    C1 4129  15.546   4.810  11.223  0.0072  0.0221 -0.0190
  259loPI    C2 4130  15.449   5.091  11.490 -0.0657  0.0295 -0.0531
  259loPI    C3 4131  15.751   4.840  11.565 -0.1409 -0.0238  0.0745
  259loPI   PO4 4132  15.331   4.769  11.092 -0.2237  0.1814  0.2257
  259loPI   GL1 4133  15.287   4.817  10.658  0.2488  0.0777 -0.0737
  259loPI   GL2 4134  15.092   5.048  10.566 -0.1485 -0.3079  0.0219
  259loPI   C1A 4135  15.534   4.860  10.225  0.1037  0.2453  0.0354
  259loPI   C2A 4136  15.566   4.937   9.732  0.3099  0.2662 -0.1115
  259loPI   C3A 4137  15.584   4.920   9.311 -0.1504  0.0920  0.1100
  259loPI   C4A 4138  15.676   4.874   8.859 -0.0161 -0.1139 -0.2968
  259loPI   C5A 4139  15.612   4.874   8.461  0.5124 -0.1017  0.0262
  259loPI   C6A 4140  15.364   4.691   8.252  0.3109 -0.1850  0.2092
  259loPI   C1B 4141  15.046   5.143  10.073 -0.2600 -0.1199 -0.0097
  259loPI   C2B 4142  15.055   5.070   9.671 -0.1125  0.3505 -0.1090
  259loPI   C3B 4143  15.094   5.037   9.293 -0.2240  0.1319  0.1498
  259loPI   C4B 4144  15.198   5.075   8.908 -0.2042 -0.1325  0.0053
  260loPI    C1 4145  12.538   9.160  10.815 -0.2010 -0.1832 -0.3969
  260loPI    C2 4146  12.229   9.171  11.068  0.0039  0.5154 -0.1515
  260loPI    C3 4147  12.597   9.100  11.206  0.0402  0.3058 -0.3503
  260loPI   PO4 4148  12.371   9.281  10.608 -0.0571  0.0727  0.2028
  260loPI   GL1 4149  12.390   9.658  10.391 -0.0916  0.0545 -0.1414
  260loPI   GL2 4150  12.752   9.524  10.454  0.3307 -0.0026 -0.2271
  260loPI   C1A 4151  12.599   9.997  10.118 -0.1580 -0.1600 -0.0470
  260loPI   C2A 4152  12.739  10.045   9.647 -0.0423  0.1444  0.3260
  260loPI   C3A 4153  12.797  10.154   9.222 -0.1453 -0.0601  0.2234
  260loPI   C4A 4154  12.698  10.262   8.913  0.0293 -0.0951 -0.2565
  260loPI   C5A 4155  12.435  10.415   8.547 -0.0474 -0.0469 -0.0826
  260loPI   C6A 4156  12.184  10.724   8.650 -0.0442 -0.5240  0.0486
  260loPI   C1B 4157  12.732   9.520   9.980  0.0926  0.1057 -0.1531
  260loPI   C2B 4158  12.746   9.515   9.567  0.0270  0.0008 -0.0747
  260loPI   C3B 4159  12.646   9.688   9.166 -0.0757 -0.1201 -0.0461
  260loPI   C4B 4160  12.819   9.654   8.618  0.0045 -0.0122  0.2416
  261loPI    C1 4161  17.932   4.595  10.935  0.1319 -0.1236 -0.1756
  261loPI    C2 4162  17.987   4.503  11.320  0.1677  0.0339 -0.1424
  261loPI    C3 4163  17.858   4.224  11.064 -0.1639  0.0084  0.0471
  261loPI   PO4 4164  18.076   4.724  10.857 -0.2449 -0.0870 -0.0604
  261loPI   GL1 4165  18.085   4.816  10.419 -0.3626 -0.3630 -0.0293
  261loPI   GL2 4166  18.040   4.524  10.218 -0.2856  0.0899 -0.1710
  261loPI   C1A 4167  18.144   5.057  10.069 -0.0447  0.0098 -0.1277
  261loPI   C2A 4168  18.206   5.215   9.570 -0.0491 -0.0337  0.1554
  261loPI   C3A 4169  18.236   5.358   9.189  0.0187  0.0723  0.0272
  261loPI   C4A 4170  18.265   5.407   8.685 -0.1735  0.2030 -0.3529
  261loPI   C5A 4171  18.198   5.463   8.219 -0.0300 -0.0423  0.0320
  261loPI   C6A 4172  18.438   5.413   7.840  0.1525  0.2729  0.2024
  261loPI   C1B 4173  18.000   4.609   9.784  0.0179  0.1415  0.1002
  261loPI   C2B 4174  17.894   4.496   9.424  0.1197  0.0531  0.1412
  261loPI   C3B 4175  17.915   4.557   8.937 -0.0077 -0.3941  0.0179
  261loPI   C4B 4176  17.974   4.568   8.521 -0.0580  0.0370 -0.0658
  262loPI    C1 4177  17.968  14.638  11.063  0.3603  0.0087 -0.1111
  262loPI    C2 4178  17.849  14.817  11.400 -0.0474 -0.1743 -0.1527
  262loPI    C3 4179  18.043  14.467  11.417 -0.1558 -0.2330 -0.1098
  262loPI   PO4 4180  18.020  14.827  10.888 -0.2871  0.1060  0.0664
  262loPI   GL1 4181  18.088  14.909  10.484 -0.3073 -0.0252  0.3386
  262loPI   GL2 4182  18.391  14.778  10.350 -0.1390  0.1457 -0.3392
  262loPI   C1A 4183  17.822  14.835  10.076  0.0488 -0.0423 -0.2764
  262loPI   C2A 4184  17.771  14.731   9.632  0.0066  0.1087 -0.0062
  262loPI   C3A 4185  17.758  14.719   9.181  0.3454 -0.2006  0.0076
  262loPI   C4A 4186  17.641  14.790   8.735 -0.1466 -0.2697 -0.2647
  262loPI   C5A 4187  17.563  14.801   8.336 -0.1823  0.1650 -0.0317
  262loPI   C6A 4188  17.478  14.582   7.999  0.0116 -0.1073 -0.2583
  262loPI   C1B 4189  18.339  14.892  10.021  0.0134 -0.0130 -0.2151
  262loPI   C2B 4190  18.270  14.924   9.630 -0.0138  0.3383  0.3032
  262loPI   C3B 4191  18.202  14.996   9.202  0.1375  0.3409 -0.2214
  262loPI   C4B 4192  18.268  15.019   8.823  0.1105 -0.0437 -0.2727
  263loPI    C1 4193   2.461  10.462  10.593 -0.0967 -0.1514  0.1425
  263loPI    C2 4194   2.619  10.713  10.861 -0.0165  0.0430 -0.0838
  263loPI    C3 4195   2.842  10.420  10.705 -0.0973 -0.1442  0.1472
  263loPI   PO4 4196   2.395  10.603  10.422 -0.0077 -0.1770  0.1292
  263loPI   GL1 4197   2.457  10.590  10.020 -0.0253 -0.1013 -0.0369
  263loPI   GL2 4198   2.605  10.348   9.926  0.3096 -0.0907 -0.2676
  263loPI   C1A 4199   2.433  10.655   9.587 -0.4125  0.1850  0.0408
  263loPI   C2A 4200   2.739  10.408   9.341 -0.0533  0.1297 -0.0631
  263loPI   C3A 4201   2.739  10.197   9.004 -0.3203 -0.3313  0.2159
  263loPI   C4A 4202   2.589  10.215   8.585 -0.0587 -0.2099  0.0949
  263loPI   C5A 4203   2.616  10.098   8.156 -0.0033 -0.2588 -0.1330
  263loPI   C6A 4204   2.606   9.980   7.754  0.1018  0.2184 -0.0170
  263loPI   C1B 4205   2.356  10.113   9.611  0.2378 -0.2376  0.1888
  263loPI   C2B 4206   2.291  10.064   9.154  0.2034  0.4339 -0.6322
  263loPI   C3B 4207   2.214   9.958   8.739  0.0086 -0.1024  0.1625
  263loPI   C4B 4208   2.441   9.701   8.447 -0.2062 -0.0187 -0.0047
  264loPI    C1 4209  16.069   6.896  11.153 -0.1577 -0.3194 -0.1098
  264loPI    C2 4210  16.034   7.123  11.481  0.1130 -0.2467 -0.1288
  264loPI    C3 4211  15.707   7.015  11.276 -0.0462 -0.1753  0.0839
  264loPI   PO4 4212  16.297   7.028  11.038  0.1041 -0.0268  0.2635
  264loPI   GL1 4213  16.330   7.109  10.581  0.3013 -0.1216  0.2663
  264loPI   GL2 4214  16.605   7.257  10.368 -0.1468 -0.1355 -0.2966
  264loPI   C1A 4215  16.291   6.752  10.236 -0.1552  0.5104  0.0026
  264loPI   C2A 4216  16.181   6.495   9.776  0.0843 -0.1237 -0.1465
  264loPI   C3A 4217  16.274   6.522   9.345 -0.0284  0.0587 -0.1055
  264loPI   C4A 4218  16.319   6.546   8.952  0.1011 -0.1861 -0.1156
  264loPI   C5A 4219  16.252   6.537   8.594  0.2243  0.1661 -0.0936
  264loPI   C6A 4220  15.991   6.421   8.204  0.1670  0.0336  0.2484
  264loPI   C1B 4221  16.524   7.386   9.932  0.1986 -0.3394 -0.2278
  264loPI   C2B 4222  16.575   7.319   9.465  0.1479 -0.2488 -0.1664
  264loPI   C3B 4223  16.609   7.439   9.026 -0.1170  0.0968  0.0795
  264loPI   C4B 4224  16.786   7.478   8.667 -0.0619 -0.1827 -0.0037
  265loPI    C1 4225  14.052  12.584  11.010 -0.2805 -0.0061 -0.1535
  265loPI    C2 4226  13.844  12.609  11.351 -0.2327  0.4062 -0.1501
  265loPI    C3 4227  14.218  12.749  11.334 -0.0436 -0.0871 -0.2313
  265loPI   PO4 4228  13.853  12.656  10.830 -0.2596 -0.3286 -0.1547
  265loPI   GL1 4229  13.702  12.556  10.488 -0.3147 -0.0591 -0.1131
  265loPI   GL2 4230  13.564  12.830  10.441 -0.1261 -0.2097 -0.0779
  265loPI   C1A 4231  13.734  12.464   9.995 -0.0312 -0.2699 -0.0628
  265loPI   C2A 4232  13.664  12.427   9.526  0.1267 -0.2080 -0.2854
  265loPI   C3A 4233  13.656  12.465   9.060  0.2832  0.2271  0.3231
  265loPI   C4A 4234  13.703  12.450   8.603 -0.1665  0.2047 -0.1465
  265loPI   C5A 4235  13.909  12.674   8.253  0.1351 -0.0565 -0.0284
  265loPI   C6A 4236  13.753  13.053   8.030  0.0854  0.1016 -0.2815
  265loPI   C1B 4237  13.660  12.922  10.031 -0.0313  0.2406  0.1048
  265loPI   C2B 4238  13.803  13.013   9.615  0.1317  0.0198  0.2034
  265loPI   C3B 4239  13.818  12.937   9.199 -0.2200  0.0376 -0.0426
  265loPI   C4B 4240  13.791  12.975   8.688  0.1078 -0.2110  0.1000
  266loPI    C1 4241   1.618   5.462  11.103  0.0267  0.1741  0.0106
  266loPI    C2 4242   1.926   5.718  11.106  0.1145  0.0690  0.0083
  266loPI    C3 4243   1.917   5.412  11.364  0.1300 -0.0672 -0.1508
  266loPI   PO4 4244   1.541   5.433  10.840 -0.1191 -0.0703  0.0367
  266loPI   GL1 4245   1.498   5.490  10.427 -0.2503  0.2994  0.0592
  266loPI   GL2 4246   1.319   5.197  10.493  0.2686  0.0048  0.0520
  266loPI   C1A 4247   1.671   5.550  10.015 -0.2571  0.3187  0.0700
  266loPI   C2A 4248   1.823   5.562   9.471  0.1152  0.0613  0.2351
  266loPI   C3A 4249   2.014   5.799   9.104 -0.0769  0.0801  0.0206
  266loPI   C4A 4250   1.994   5.855   8.641 -0.3768  0.0282 -0.2418
  266loPI   C5A 4251   2.071   5.820   8.218 -0.1363 -0.2998 -0.2908
  266loPI   C6A 4252   2.279   6.097   7.887  0.1575  0.2273 -0.2514
  266loPI   C1B 4253   1.388   5.140  10.111 -0.1139  0.1745 -0.0260
  266loPI   C2B 4254   1.417   5.291   9.646  0.0573 -0.0373 -0.3049
  266loPI   C3B 4255   1.312   5.376   9.248 -0.2646 -0.1555 -0.2566
  266loPI   C4B 4256   1.494   5.543   9.025  0.1651  0.0433 -0.0737
  267loPI    C1 4257   3.003   4.217  10.650 -0.0341 -0.1457  0.1628
  267loPI    C2 4258   2.605   4.198  10.685 -0.0422 -0.1457  0.0747
  267loPI    C3 4259   2.831   4.285  11.004 -0.1138 -0.1298  0.1212
  267loPI   PO4 4260   3.100   4.232  10.442  0.2353  0.1438 -0.0989
  267loPI   GL1 4261   3.044   4.491  10.176 -0.2672 -0.0818  0.0509
  267loPI   GL2 4262   2.697   4.357  10.155 -0.1192  0.0260  0.1068
  267loPI   C1A 4263   3.015   4.273   9.741 -0.0107  0.2442 -0.1572
  267loPI   C2A 4264   2.927   4.369   9.262 -0.0234 -0.1907 -0.2493
  267loPI   C3A 4265   2.753   4.514   8.916 -0.2203 -0.3176 -0.0595
  267loPI   C4A 4266   2.710   4.716   8.496  0.1740  0.0714 -0.2776
  267loPI   C5A 4267   2.434   4.530   8.251  0.2177 -0.1289 -0.0138
  267loPI   C6A 4268   2.418   4.445   7.863 -0.1976 -0.2864  0.2849
  267loPI   C1B 4269   2.565   4.552   9.712  0.0390 -0.0049 -0.1490
  267loPI   C2B 4270   2.414   4.579   9.370  0.0759 -0.1565  0.1424
  267loPI   C3B 4271   2.238   4.860   9.032 -0.1267  0.0596  0.0252
  267loPI   C4B 4272   2.264   4.939   8.565 -0.1495  0.1608 -0.1133
  268loPI    C1 4273   0.272  12.768  11.169 -0.1449 -0.0555 -0.0431
  268loPI    C2 4274  -0.045  12.834  10.934 -0.1507 -0.1101 -0.0505
  268loPI    C3 4275  -0.093  12.800  11.330 -0.1745 -0.2666 -0.0663
  268loPI   PO4 4276   0.457  12.862  11.050  0.0656 -0.1085 -0.0373
  268loPI   GL1 4277   0.342  13.112  10.678 -0.1631  0.1796  0.2408
  268loPI   GL2 4278   0.079  13.106  10.515 -0.0800 -0.0823 -0.2463
  268loPI   C1A 4279   0.580  13.152  10.293  0.0986  0.1257  0.1352
  268loPI   C2A 4280   0.529  13.156   9.820 -0.1325 -0.0144  0.2071
  268loPI   C3A 4281   0.551  13.266   9.367 -0.0175  0.1698  0.3220
  268loPI   C4A 4282   0.552  13.205   8.935 -0.2317 -0.1381 -0.1309
  268loPI   C5A 4283   0.592  13.048   8.546 -0.0991 -0.2615 -0.2297
  268loPI   C6A 4284   0.798  13.338   8.226 -0.0407  0.1556 -0.1597
  268loPI   C1B 4285   0.051  13.086  10.115 -0.0219  0.0803 -0.0604
  268loPI   C2B 4286   0.074  13.083   9.624 -0.3035  0.2721 -0.1170
  268loPI   C3B 4287   0.059  13.145   9.201 -0.0109 -0.0935 -0.2570
  268loPI   C4B 4288   0.007  13.129   8.775  0.0047  0.0335 -0.1234
  269loPI    C1 4289   6.723  10.006  11.014  0.0645  0.2116 -0.0975
  269loPI    C2 4290   6.968   9.829  11.276 -0.2957  0.1099  0.1795
  269loPI    C3 4291   7.093  10.147  11.068  0.1286 -0.0516  0.1791
  269loPI   PO4 4292   6.706   9.878  10.677  0.2528 -0.0554  0.1063
  269loPI   GL1 4293   6.967   9.989  10.356 -0.2050  0.0064  0.1746
  269loPI   GL2 4294   7.091   9.756  10.224 -0.3276  0.0284 -0.2068
  269loPI   C1A 4295   6.696  10.145  10.050 -0.1418  0.0991  0.1043
  269loPI   C2A 4296   6.802  10.234   9.602  0.0536 -0.3060  0.2199
  269loPI   C3A 4297   6.680  10.277   9.257 -0.2195  0.1818  0.0750
  269loPI   C4A 4298   6.691  10.261   8.809 -0.0632 -0.1305 -0.1009
  269loPI   C5A 4299   6.799  10.305   8.339 -0.1240 -0.1201  0.0256
  269loPI   C6A 4300   6.992  10.050   7.933  0.1247 -0.1629  0.0718
  269loPI   C1B 4301   7.143   9.990   9.893  0.0159 -0.0428  0.0127
  269loPI   C2B 4302   7.179   9.853   9.453 -0.1634  0.0773 -0.0815
  269loPI   C3B 4303   7.386   9.663   9.158  0.0248 -0.1906 -0.0014
  269loPI   C4B 4304   7.497   9.226   9.034 -0.1859  0.0550  0.2118
  270loPI    C1 4305  12.172   4.402  10.808  0.0868 -0.0345 -0.0094
  270loPI    C2 4306  12.091   4.567  10.453 -0.1840 -0.0054  0.0638
  270loPI    C3 4307  11.798   4.513  10.721 -0.0294 -0.2624  0.1852
  270loPI   PO4 4308  12.354   4.556  10.838 -0.0045  0.0914 -0.0464
  270loPI   GL1 4309  12.605   4.568  10.496 -0.1464 -0.0727  0.0451
  270loPI   GL2 4310  12.464   4.808  10.300  0.0500 -0.2989 -0.0931
  270loPI   C1A 4311  12.529   4.393  10.031 -0.1590 -0.2192  0.0485
  270loPI   C2A 4312  12.519   4.318   9.581 -0.2723 -0.1142  0.0381
  270loPI   C3A 4313  12.521   4.337   9.146 -0.2541  0.0680 -0.0540
  270loPI   C4A 4314  12.578   4.316   8.705  0.0647 -0.0229 -0.3433
  270loPI   C5A 4315  12.921   4.283   8.428 -0.0508  0.0016 -0.0947
  270loPI   C6A 4316  12.881   4.478   8.035  0.2160 -0.2058 -0.0130
  270loPI   C1B 4317  12.553   4.854   9.862  0.1190  0.2983  0.2329
  270loPI   C2B 4318  12.666   4.747   9.405  0.3139  0.1010 -0.1817
  270loPI   C3B 4319  12.844   4.975   9.021 -0.1249  0.0033  0.1335
  270loPI   C4B 4320  12.871   5.213   8.652 -0.2044 -0.4449  0.4511
  271loPI    C1 4321   7.398   0.456  10.919  0.0293 -0.0655  0.1019
  271loPI    C2 4322   7.657   0.744  11.017  0.0103 -0.0138  0.0013
  271loPI    C3 4323   7.292   0.739  11.181  0.0101  0.0198  0.0022
  271loPI   PO4 4324   7.510   0.472  10.645 -0.0399 -0.0705 -0.0004
  271loPI   GL1 4325   7.642   0.614  10.273  0.1411 -0.1515  0.2524
  271loPI   GL2 4326   7.481   0.345  10.173  0.1626  0.1846  0.3738
  271loPI   C1A 4327   7.658   0.621   9.767  0.1063 -0.0417 -0.3017
  271loPI   C2A 4328   7.551   0.593   9.312  0.3789 -0.0132 -0.0416
  271loPI   C3A 4329   7.569   0.664   8.931  0.2547 -0.1869 -0.0738
  271loPI   C4A 4330   7.506   0.709   8.479 -0.1382  0.1490 -0.0203
  271loPI   C5A 4331   7.283   0.483   8.161 -0.0115 -0.1476  0.3248
  271loPI   C6A 4332   7.053   0.522   7.799 -0.2077 -0.1877 -0.2195
  271loPI   C1B 4333   7.233   0.330   9.754  0.1839 -0.1558  0.1131
  271loPI   C2B 4334   7.038   0.388   9.412  0.0755 -0.0204  0.1631
  271loPI   C3B 4335   7.026   0.413   8.996  0.3007 -0.0746 -0.0272
  271loPI   C4B 4336   7.057   0.414   8.638 -0.1234  0.3446  0.0162
  272loPI    C1 4337   4.043  15.696  10.378 -0.0868 -0.0961 -0.0252
  272loPI    C2 4338   4.133  15.315  10.298  0.2861 -0.0255  0.0389
  272loPI    C3 4339   4.420  15.593  10.295  0.0182  0.2563 -0.0013
  272loPI   PO4 4340   3.902  15.764  10.198  0.4150  0.2190 -0.0775
  272loPI   GL1 4341   3.852  15.719   9.754  0.1437 -0.0741  0.0423
  272loPI   GL2 4342   4.165  15.505   9.839 -0.2027 -0.0896 -0.0837
  272loPI   C1A 4343   3.666  15.778   9.332 -0.0531  0.0583 -0.1017
  272loPI   C2A 4344   3.497  15.818   8.955  0.0683 -0.0243  0.1816
  272loPI   C3A 4345   3.635  15.654   8.466  0.3726 -0.0752 -0.0651
  272loPI   C4A 4346   3.852  15.759   8.014  0.0808 -0.0798 -0.2576
  272loPI   C5A 4347   4.014  16.070   7.773  0.1959  0.0029 -0.2757
  272loPI   C6A 4348   4.225  16.402   7.669  0.0816  0.1910  0.0468
  272loPI   C1B 4349   4.117  15.467   9.342 -0.3478 -0.1766 -0.2098
  272loPI   C2B 4350   3.934  15.542   8.914  0.1546 -0.2197 -0.1454
  272loPI   C3B 4351   4.152  15.455   8.487 -0.0189 -0.2380  0.1591
  272loPI   C4B 4352   4.080  15.315   8.111 -0.0598  0.3168 -0.0377
  273loPI    C1 4353   1.976   6.173  10.882  0.0130  0.1821 -0.1024
  273loPI    C2 4354   2.061   6.340  11.235  0.0367  0.1538 -0.0947
  273loPI    C3 4355   1.811   6.524  10.982 -0.1689  0.0587  0.0369
  273loPI   PO4 4356   2.134   6.091  10.786 -0.0126 -0.1399 -0.3012
  273loPI   GL1 4357   2.286   5.997  10.443 -0.1261 -0.0425 -0.0060
  273loPI   GL2 4358   2.443   5.734  10.384 -0.0120 -0.0082  0.1275
  273loPI   C1A 4359   1.969   5.985  10.197  0.2528  0.1601  0.0816
  273loPI   C2A 4360   1.672   5.985   9.812 -0.0410 -0.2252  0.3458
  273loPI   C3A 4361   1.505   6.039   9.407  0.1367  0.2977  0.0089
  273loPI   C4A 4362   1.220   5.915   9.135 -0.0208  0.0673  0.1640
  273loPI   C5A 4363   0.998   5.621   8.885  0.0365 -0.1705 -0.0528
  273loPI   C6A 4364   1.299   5.325   8.623  0.0170 -0.1363 -0.2505
  273loPI   C1B 4365   2.443   5.939   9.935 -0.1439  0.0647 -0.1589
  273loPI   C2B 4366   2.412   6.010   9.485  0.1640  0.0300 -0.1082
  273loPI   C3B 4367   2.425   6.236   9.147  0.0222  0.0805  0.2207
  273loPI   C4B 4368   2.415   6.113   8.787 -0.0388  0.1196  0.1822
  274loPI    C1 4369   0.804  16.967  11.065  0.3500 -0.3543 -0.1273
  274loPI    C2 4370   0.982  16.790  11.376  0.0565  0.0503  0.2827
  274loPI    C3 4371   0.829  17.158  11.415 -0.0841  0.0646 -0.3138
  274loPI   PO4 4372   0.934  16.968  10.842 -0.0685  0.1296  0.0383
  274loPI   GL1 4373   0.967  16.918  10.428 -0.0704  0.2116  0.1686
  274loPI   GL2 4374   1.288  17.083  10.227  0.1724  0.0907  0.2039
  274loPI   C1A 4375   0.863  17.066   9.949 -0.2088  0.0435 -0.2086
  274loPI   C2A 4376   0.826  17.020   9.512 -0.3730 -0.0471 -0.2580
  274loPI   C3A 4377   0.927  17.075   9.143  0.2442 -0.0817 -0.1296
  274loPI   C4A 4378   0.989  17.123   8.671 -0.3101  0.1168 -0.1098
  274loPI   C5A 4379   0.965  17.010   8.248 -0.0308  0.0171 -0.0443
  274loPI   C6A 4380   0.940  17.051   7.832 -0.3442  0.3687  0.1419
  274loPI   C1B 4381   1.399  17.180   9.757  0.0249  0.1033  0.1664
  274loPI   C2B 4382   1.393  17.253   9.280  0.1582  0.0459  0.1885
  274loPI   C3B 4383   1.476  17.305   8.825 -0.1895  0.0508 -0.3214
  274loPI   C4B 4384   1.902  17.114   8.557 -0.1117 -0.1805  0.2006
  275loPI    C1 4385  12.484  10.454  10.344 -0.0518  0.0821  0.0885
  275loPI    C2 4386  12.428  10.489  10.738  0.2125  0.0512  0.1304
  275loPI    C3 4387  12.434  10.127  10.568  0.0912  0.0649  0.0956
  275loPI   PO4 4388  12.249  10.635  10.261  0.0904  0.1446 -0.1751
  275loPI   GL1 4389  12.204  10.879   9.927  0.2907 -0.0504  0.1043
  275loPI   GL2 4390  12.204  11.109  10.025 -0.1617  0.1828 -0.0250
  275loPI   C1A 4391  12.146  10.913   9.506 -0.0244  0.1573 -0.2942
  275loPI   C2A 4392  11.958  10.984   9.076 -0.0202  0.0762 -0.3971
  275loPI   C3A 4393  11.894  11.149   8.698  0.2909 -0.0465  0.0489
  275loPI   C4A 4394  11.948  11.148   8.324  0.1699 -0.0970 -0.1858
  275loPI   C5A 4395  12.159  11.359   8.048  0.2457 -0.3987  0.0221
  275loPI   C6A 4396  12.403  11.231   7.689 -0.1271 -0.0061 -0.4566
  275loPI   C1B 4397  12.116  11.345   9.750 -0.0390  0.0296 -0.0797
  275loPI   C2B 4398  12.026  11.432   9.286 -0.1305 -0.2371  0.2711
  275loPI   C3B 4399  12.113  11.531   8.968 -0.0639 -0.0723  0.1678
  275loPI   C4B 4400  12.106  11.559   8.552  0.2675 -0.0189 -0.1300
  276loPI    C1 4401   6.341  16.905  10.931  0.0119 -0.1605 -0.0280
  276loPI    C2 4402   6.500  16.539  10.908  0.0264 -0.1654  0.1384
  276loPI    C3 4403   6.602  16.782  11.208  0.1870  0.0582 -0.0930
  276loPI   PO4 4404   6.364  17.057  10.645 -0.0214  0.2345 -0.1801
  276loPI   GL1 4405   6.621  17.191  10.318 -0.0344  0.0893 -0.1203
  276loPI   GL2 4406   6.365  17.046  10.173  0.1115  0.1058 -0.4234
  276loPI   C1A 4407   6.844  17.250   9.949  0.0565 -0.0646 -0.3483
  276loPI   C2A 4408   6.816  17.169   9.512 -0.0131 -0.2188 -0.1155
  276loPI   C3A 4409   6.838  17.236   9.084 -0.1194 -0.1787 -0.1087
  276loPI   C4A 4410   6.872  17.302   8.720  0.0285  0.1089 -0.0354
  276loPI   C5A 4411   6.762  17.336   8.291  0.1962 -0.0533 -0.1884
  276loPI   C6A 4412   6.911  17.596   7.960 -0.0265 -0.1055 -0.1164
  276loPI   C1B 4413   6.317  17.169   9.836  0.0804 -0.1313  0.0504
  276loPI   C2B 4414   6.347  17.008   9.371  0.0992 -0.2239 -0.0794
  276loPI   C3B 4415   6.352  17.014   9.016  0.0871  0.1011  0.3518
  276loPI   C4B 4416   6.407  17.033   8.612  0.2333 -0.0933  0.3072
  277loPI    C1 4417   3.526   7.536  10.889 -0.1036  0.2078 -0.2645
  277loPI    C2 4418   3.494   7.232  10.631 -0.1926  0.0555 -0.0768
  277loPI    C3 4419   3.189   7.319  10.875  0.0182 -0.0269  0.2213
  277loPI   PO4 4420   3.629   7.750  10.728 -0.1738  0.2773 -0.1699
  277loPI   GL1 4421   3.512   7.733  10.392  0.1108  0.1477 -0.0468
  277loPI   GL2 4422   3.359   7.905  10.268 -0.1002  0.3510 -0.0438
  277loPI   C1A 4423   3.627   7.447  10.047  0.4915 -0.0179 -0.2572
  277loPI   C2A 4424   3.753   7.456   9.638  0.0316 -0.2032  0.1642
  277loPI   C3A 4425   3.757   7.509   9.218 -0.1082 -0.1491 -0.0676
  277loPI   C4A 4426   3.750   7.442   8.814 -0.1357  0.0517 -0.1194
  277loPI   C5A 4427   3.898   7.368   8.407  0.0711 -0.2663 -0.0551
  277loPI   C6A 4428   3.845   7.550   8.037 -0.0436  0.1610 -0.1529
  277loPI   C1B 4429   3.467   7.852   9.840  0.2759  0.1508 -0.2655
  277loPI   C2B 4430   3.491   7.979   9.373 -0.1267  0.1195  0.1619
  277loPI   C3B 4431   3.499   7.865   8.921  0.0340  0.0033 -0.4042
  277loPI   C4B 4432   3.555   7.839   8.474  0.1422  0.0471  0.2981
  278loPI    C1 4433  16.317   1.541  10.606  0.0294  0.0550 -0.0457
  278loPI    C2 4434  16.579   1.815  10.736 -0.0248  0.1517 -0.1391
  278loPI    C3 4435  16.197   1.917  10.671 -0.0281  0.0725 -0.2483
  278loPI   PO4 4436  16.468   1.431  10.494  0.0932  0.2507 -0.1881
  278loPI   GL1 4437  16.549   1.466  10.096  0.1213 -0.1359  0.0526
  278loPI   GL2 4438  16.820   1.302  10.165  0.2519  0.1452 -0.0946
  278loPI   C1A 4439  16.260   1.529   9.750  0.4172 -0.0576  0.2097
  278loPI   C2A 4440  16.324   1.338   9.373  0.2165 -0.4940  0.2539
  278loPI   C3A 4441  16.552   1.449   8.974  0.1674  0.2645  0.1735
  278loPI   C4A 4442  16.805   1.498   8.544 -0.1443 -0.2209  0.0576
  278loPI   C5A 4443  16.813   1.662   8.138 -0.3260 -0.1265 -0.2605
  278loPI   C6A 4444  16.938   1.476   7.710 -0.1832 -0.2380  0.0303
  278loPI   C1B 4445  16.884   1.363   9.661 -0.0541  0.0796 -0.1047
  278loPI   C2B 4446  16.690   1.688   9.430  0.0117  0.1311  0.0443
  278loPI   C3B 4447  16.690   2.141   9.310  0.0172  0.0770 -0.0398
  278loPI   C4B 4448  16.927   2.455   9.451 -0.2658 -0.0241  0.1359
  279loPI    C1 4449   2.915   2.857  10.792  0.1061  0.0582 -0.1140
  279loPI    C2 4450   3.243   2.630  10.766 -0.0501 -0.1746 -0.0912
  279loPI    C3 4451   2.952   2.532  11.022 -0.0964  0.0852 -0.0414
  279loPI   PO4 4452   2.946   2.847  10.452 -0.2380  0.4042  0.1650
  279loPI   GL1 4453   3.159   2.554  10.153  0.2851  0.1868 -0.0403
  279loPI   GL2 4454   3.213   2.198  10.049  0.1549  0.0413  0.2005
  279loPI   C1A 4455   3.102   2.613   9.687 -0.0804  0.1164  0.2244
  279loPI   C2A 4456   3.179   2.613   9.268  0.1874 -0.0208  0.1222
  279loPI   C3A 4457   3.188   2.983   8.984  0.3459 -0.1536 -0.0166
  279loPI   C4A 4458   2.918   3.160   8.703 -0.0296 -0.0680 -0.2123
  279loPI   C5A 4459   2.625   3.035   8.376 -0.3234  0.2212  0.0825
  279loPI   C6A 4460   2.236   3.061   8.345 -0.0218  0.0131  0.1245
  279loPI   C1B 4461   3.142   2.101   9.623  0.2589  0.1587  0.1734
  279loPI   C2B 4462   3.209   2.096   9.193  0.2856  0.1729  0.0336
  279loPI   C3B 4463   3.181   2.313   8.796  0.0107  0.1927  0.0351
  279loPI   C4B 4464   3.169   2.195   8.402  0.1506 -0.2920 -0.0646
  280loPI    C1 4465  -0.081   2.800  10.554 -0.1248 -0.0854 -0.0968
  280loPI    C2 4466   0.289   2.876  10.420 -0.0819  0.2352  0.1883
  280loPI    C3 4467   0.237   2.653  10.748 -0.1583 -0.0493 -0.0138
  280loPI   PO4 4468  -0.196   2.743  10.280  0.0212 -0.0826 -0.3129
  280loPI   GL1 4469  -0.161   2.787   9.991  0.2164 -0.1466  0.0572
  280loPI   GL2 4470   0.134   2.615   9.929  0.1681  0.2175  0.2161
  280loPI   C1A 4471  -0.146   2.893   9.603  0.0615  0.3876  0.1650
  280loPI   C2A 4472  -0.046   2.903   9.167  0.0098  0.1913 -0.1155
  280loPI   C3A 4473  -0.068   2.943   8.699  0.0915 -0.2443 -0.3081
  280loPI   C4A 4474  -0.163   2.916   8.201 -0.2738  0.0154 -0.5103
  280loPI   C5A 4475  -0.583   2.953   7.987  0.2348 -0.2074  0.1006
  280loPI   C6A 4476  -0.806   2.743   7.695 -0.2574  0.1493  0.0396
  280loPI   C1B 4477   0.191   2.504   9.491 -0.1808 -0.3143  0.1445
  280loPI   C2B 4478   0.359   2.426   9.142 -0.2715 -0.1311  0.0332
  280loPI   C3B 4479   0.606   2.357   8.760 -0.0695  0.1037 -0.1536
  280loPI   C4B 4480   0.662   2.427   8.402 -0.1314 -0.1728  0.2307
  281loPI    C1 4481   8.157   9.337  10.479  0.2287  0.1762  0.3712
  281loPI    C2 4482   7.909   9.054  10.614 -0.0166  0.0982 -0.2100
  281loPI    C3 4483   8.254   8.951  10.439 -0.0187  0.1674 -0.2550
  281loPI   PO4 4484   7.977   9.500  10.361  0.2929 -0.1794  0.1214
  281loPI   GL1 4485   7.889   9.781  10.080  0.2146  0.2117 -0.2620
  281loPI   GL2 4486   8.096   9.800   9.917 -0.0638  0.0488 -0.3187
  281loPI   C1A 4487   7.643   9.973   9.829 -0.2922  0.0181 -0.0607
  281loPI   C2A 4488   7.676  10.048   9.412 -0.0674 -0.0640  0.2491
  281loPI   C3A 4489   7.596  10.128   8.945  0.3405 -0.1241  0.2279
  281loPI   C4A 4490   7.540  10.173   8.541  0.2813 -0.0155 -0.2519
  281loPI   C5A 4491   7.404  10.166   8.169 -0.0029  0.2090  0.0788
  281loPI   C6A 4492   7.513  10.114   7.759  0.1380  0.0797  0.0789
  281loPI   C1B 4493   8.004   9.690   9.522 -0.0004  0.1962 -0.0314
  281loPI   C2B 4494   7.947   9.698   9.108  0.1277 -0.1840  0.0640
  281loPI   C3B 4495   7.756   9.718   8.776  0.1349 -0.1455 -0.0608
  281loPI   C4B 4496   7.526   9.687   8.324  0.2044 -0.0393  0.0951
  282loPI    C1 4497   2.002  16.720  11.201 -0.0050 -0.1518 -0.1046
  282loPI    C2 4498   1.834  16.463  11.458 -0.0519  0.1141  0.1358
  282loPI    C3 4499   2.215  16.575  11.507 -0.0274  0.0810  0.0241
  282loPI   PO4 4500   1.966  16.699  10.923  0.2378 -0.0620  0.1817
  282loPI   GL1 4501   1.877  16.778  10.472  0.2388  0.1242 -0.0690
  282loPI   GL2 4502   2.068  16.678  10.211  0.0436  0.1142 -0.0782
  282loPI   C1A 4503   1.720  16.880   9.944  0.0542 -0.3919 -0.3367
  282loPI   C2A 4504   1.727  16.913   9.467  0.1866  0.1340 -0.0609
  282loPI   C3A 4505   1.886  16.920   9.069  0.2614 -0.0922  0.0211
  282loPI   C4A 4506   2.249  16.691   8.774  0.0005  0.2152  0.0773
  282loPI   C5A 4507   2.360  16.614   8.315 -0.0934 -0.1262  0.0541
  282loPI   C6A 4508   2.204  16.664   7.912  0.0551  0.2932  0.0380
  282loPI   C1B 4509   2.092  16.536   9.742  0.2043  0.2563  0.0806
  282loPI   C2B 4510   2.288  16.562   9.307 -0.4135  0.0733 -0.0100
  282loPI   C3B 4511   2.550  16.288   8.922  0.2091  0.1983 -0.0492
  282loPI   C4B 4512   2.723  16.267   8.556 -0.2467  0.1180  0.1176
  283loPI    C1 4513   3.267   5.776  11.169  0.0207 -0.0398  0.0809
  283loPI    C2 4514   3.110   5.919  11.508 -0.2155 -0.2785  0.0752
  283loPI    C3 4515   3.193   5.529  11.474 -0.0116 -0.2238 -0.0740
  283loPI   PO4 4516   3.108   5.949  11.018 -0.1586 -0.0596  0.4152
  283loPI   GL1 4517   3.121   6.125  10.502  0.0226 -0.1426  0.3160
  283loPI   GL2 4518   3.462   6.100  10.636  0.2939  0.0123 -0.0140
  283loPI   C1A 4519   3.161   6.143  10.101  0.3021  0.0681 -0.0208
  283loPI   C2A 4520   3.235   6.203   9.650  0.0743  0.0632  0.2231
  283loPI   C3A 4521   3.468   6.089   9.292 -0.1529  0.0706 -0.0850
  283loPI   C4A 4522   3.386   6.118   8.820  0.0077  0.2251  0.0264
  283loPI   C5A 4523   3.168   5.900   8.463  0.1289  0.1036 -0.2081
  283loPI   C6A 4524   3.042   5.909   8.049 -0.1487  0.0573  0.1537
  283loPI   C1B 4525   3.528   5.883  10.320 -0.0850  0.0351  0.0929
  283loPI   C2B 4526   3.553   5.762   9.881  0.0309  0.2563 -0.0549
  283loPI   C3B 4527   3.589   5.611   9.411  0.1087  0.3570 -0.0266
  283loPI   C4B 4528   3.691   5.711   9.004 -0.3585 -0.0082  0.3690
  284loPI    C1 4529  17.339   0.333  10.829  0.0966  0.0929  0.0146
  284loPI    C2 4530  17.481   0.012  10.637  0.1283  0.1722 -0.0952
  284loPI    C3 4531  17.237  -0.034  10.950  0.1173  0.0414 -0.1226
  284loPI   PO4 4532  17.239   0.500  10.664 -0.0546 -0.0570  0.3324
  284loPI   GL1 4533  17.056   0.527  10.208 -0.0732  0.0416 -0.0465
  284loPI   GL2 4534  16.900   0.789  10.064  0.2084  0.1538  0.2378
  284loPI   C1A 4535  17.222   0.424   9.772 -0.2592 -0.1651 -0.3111
  284loPI   C2A 4536  17.360   0.481   9.443  0.1848 -0.0561  0.1075
  284loPI   C3A 4537  17.451   0.777   9.196 -0.2683  0.1153  0.2670
  284loPI   C4A 4538  17.343   1.105   8.881 -0.0140  0.0445 -0.1829
  284loPI   C5A 4539  17.256   1.295   8.521 -0.1837  0.0196  0.1803
  284loPI   C6A 4540  17.335   1.503   8.120 -0.0226  0.1438  0.2261
  284loPI   C1B 4541  16.981   0.830   9.654 -0.0101 -0.2585 -0.1174
  284loPI   C2B 4542  16.951   1.027   9.253  0.2770 -0.1426  0.2164
  284loPI   C3B 4543  16.864   1.080   8.884 -0.3206 -0.0420  0.1823
  284loPI   C4B 4544  16.600   1.100   8.481 -0.0851 -0.0482 -0.0772
  285loPI    C1 4545   0.844   2.680  10.990  0.2328  0.0602 -0.3160
  285loPI    C2 4546   1.215   2.592  11.111  0.0303 -0.0992  0.2176
  285loPI    C3 4547   1.094   2.973  11.097  0.2896 -0.0259 -0.2113
  285loPI   PO4 4548   0.753   2.495  10.596 -0.1323 -0.2172 -0.0121
  285loPI   GL1 4549   0.834   2.681  10.246 -0.2923  0.1606 -0.2452
  285loPI   GL2 4550   1.001   2.531  10.080 -0.0830 -0.0003 -0.0265
  285loPI   C1A 4551   0.538   2.846   9.976  0.0753 -0.1529  0.0545
  285loPI   C2A 4552   0.497   2.892   9.453  0.1776 -0.1257  0.0828
  285loPI   C3A 4553   0.574   2.933   8.994  0.1405  0.3273  0.0023
  285loPI   C4A 4554   0.410   2.798   8.636  0.0439  0.1343 -0.1037
  285loPI   C5A 4555   0.368   2.998   8.140 -0.0567 -0.1838 -0.2041
  285loPI   C6A 4556   0.309   3.046   7.705 -0.0730  0.1434 -0.0572
  285loPI   C1B 4557   0.940   2.687   9.623  0.0990  0.1132 -0.0079
  285loPI   C2B 4558   1.000   2.640   9.163 -0.1940 -0.0910 -0.0702
  285loPI   C3B 4559   0.968   2.732   8.722 -0.0256 -0.0177  0.0147
  285loPI   C4B 4560   0.847   2.943   8.377  0.3334  0.0618  0.1816
  286loPI    C1 4561  11.650   8.251  10.647  0.0840 -0.0464  0.0029
  286loPI    C2 4562  11.639   8.611  10.821 -0.0754  0.0232 -0.1471
  286loPI    C3 4563  11.704   8.581  10.428  0.0668 -0.1207 -0.1142
  286loPI   PO4 4564  11.390   8.127  10.682 -0.0175  0.2054  0.0969
  286loPI   GL1 4565  11.199   8.043  10.338  0.0685 -0.0826  0.0688
  286loPI   GL2 4566  11.298   8.472  10.184 -0.2443  0.0611  0.1528
  286loPI   C1A 4567  11.168   8.015   9.889  0.2792 -0.1337 -0.2018
  286loPI   C2A 4568  11.413   7.938   9.613  0.0056  0.1027 -0.3312
  286loPI   C3A 4569  11.466   7.988   9.294  0.1122 -0.0963 -0.0563
  286loPI   C4A 4570  11.523   7.967   8.920  0.2285  0.0903  0.0987
  286loPI   C5A 4571  11.647   7.831   8.530  0.3293 -0.4592  0.1684
  286loPI   C6A 4572  11.824   7.803   8.153  0.0764  0.0739 -0.1088
  286loPI   C1B 4573  11.339   8.446   9.799  0.0234  0.2235 -0.2980
  286loPI   C2B 4574  11.458   8.516   9.419  0.0810  0.0228 -0.0064
  286loPI   C3B 4575  11.516   8.659   9.037 -0.1703 -0.0169  0.2189
  286loPI   C4B 4576  11.655   8.375   8.661  0.1789  0.1540  0.1423
  287loPI    C1 4577   3.293   4.536  10.928  0.1980 -0.0188  0.0651
  287loPI    C2 4578   3.501   4.722  11.215  0.0765  0.1793  0.0267
  287loPI    C3 4579   3.565   4.334  11.141 -0.0307  0.0744  0.4568
  287loPI   PO4 4580   3.248   4.642  10.754  0.1536 -0.0204 -0.2100
  287loPI   GL1 4581   3.303   4.923  10.356 -0.1007  0.0006  0.2905
  287loPI   GL2 4582   3.489   4.582  10.342 -0.3072 -0.1134  0.1231
  287loPI   C1A 4583   3.286   4.868   9.948  0.1584 -0.4066  0.1366
  287loPI   C2A 4584   3.531   4.713   9.539 -0.2392  0.3916  0.0217
  287loPI   C3A 4585   3.464   4.716   9.124 -0.0650  0.1938  0.3360
  287loPI   C4A 4586   3.545   4.735   8.646 -0.0538 -0.0588 -0.2442
  287loPI   C5A 4587   3.630   4.695   8.219  0.0177 -0.3177 -0.1763
  287loPI   C6A 4588   3.493   4.474   7.946  0.0942 -0.0177 -0.1737
  287loPI   C1B 4589   3.640   4.370   9.970  0.0724  0.0572  0.2380
  287loPI   C2B 4590   3.645   4.254   9.562  0.0642  0.0089  0.0686
  287loPI   C3B 4591   3.787   4.299   9.125  0.2444 -0.2968  0.0412
  287loPI   C4B 4592   3.757   4.267   8.691  0.0931 -0.1408  0.0477
  288loPI    C1 4593   7.036  14.616  10.662 -0.0839 -0.2384 -0.2873
  288loPI    C2 4594   7.330  14.733  10.417  0.1829 -0.1585  0.0638
  288loPI    C3 4595   7.026  14.980  10.497  0.2017 -0.1069 -0.0236
  288loPI   PO4 4596   7.017  14.426  10.612  0.2760 -0.0360 -0.3086
  288loPI   GL1 4597   6.987  14.146  10.289  0.0029  0.1977  0.0704
  288loPI   GL2 4598   7.279  14.281  10.215  0.0618 -0.0422  0.4650
  288loPI   C1A 4599   6.620  14.029   9.969 -0.0205  0.0471 -0.2479
  288loPI   C2A 4600   6.724  14.057   9.565 -0.2355 -0.2019  0.0974
  288loPI   C3A 4601   6.504  14.007   9.198 -0.1570  0.0383 -0.1200
  288loPI   C4A 4602   6.511  13.991   8.687  0.1245  0.1017 -0.1479
  288loPI   C5A 4603   6.601  13.906   8.263  0.2782 -0.2142  0.1353
  288loPI   C6A 4604   6.642  14.091   7.925 -0.0403  0.0048 -0.1573
  288loPI   C1B 4605   7.170  14.233   9.782 -0.2398 -0.0263 -0.0034
  288loPI   C2B 4606   7.154  14.253   9.362 -0.1050 -0.0274 -0.1133
  288loPI   C3B 4607   6.993  14.183   8.931 -0.1318  0.0908 -0.0611
  288loPI   C4B 4608   6.836  14.292   8.476 -0.0268 -0.0668 -0.0738
  289loPI    C1 4609   5.210  15.793  10.628  0.0458 -0.2324 -0.2138
  289loPI    C2 4610   5.447  15.525  10.807  0.0600  0.0601  0.2229
  289loPI    C3 4611   5.282  15.819  11.021 -0.2219  0.2100 -0.1877
  289loPI   PO4 4612   5.320  15.863  10.424 -0.0847 -0.2968  0.1851
  289loPI   GL1 4613   5.361  16.046  10.119 -0.0766  0.2724  0.0700
  289loPI   GL2 4614   5.375  15.642   9.978  0.0709  0.0785 -0.1827
  289loPI   C1A 4615   5.374  16.144   9.589  0.2821  0.1153  0.1790
  289loPI   C2A 4616   5.468  15.941   9.250 -0.1351  0.0538  0.0222
  289loPI   C3A 4617   5.374  15.516   9.042 -0.0669 -0.0329  0.1171
  289loPI   C4A 4618   5.718  15.234   8.924 -0.0078  0.3617 -0.1475
  289loPI   C5A 4619   5.943  15.058   8.601  0.0466 -0.1799  0.2266
  289loPI   C6A 4620   6.232  14.861   8.425  0.1638 -0.3966 -0.3240
  289loPI   C1B 4621   5.400  15.517   9.537 -0.3965 -0.0710  0.0116
  289loPI   C2B 4622   5.427  15.080   9.442 -0.0425 -0.1135 -0.1015
  289loPI   C3B 4623   5.748  14.797   9.292  0.0820 -0.0633  0.1019
  289loPI   C4B 4624   6.048  14.810   9.020  0.4589  0.3215 -0.1129
  290loPI    C1 4625   1.923  13.338  11.138  0.2000 -0.0596 -0.2219
  290loPI    C2 4626   1.917  13.717  11.265 -0.0972 -0.0209 -0.3424
  290loPI    C3 4627   1.790  13.423  11.505  0.2240 -0.0583 -0.2135
  290loPI   PO4 4628   1.867  13.343  10.953 -0.0084 -0.2552 -0.1539
  290loPI   GL1 4629   1.773  13.346  10.555  0.0333 -0.3732 -0.0121
  290loPI   GL2 4630   1.536  13.524  10.554 -0.0350  0.3192  0.0731
  290loPI   C1A 4631   1.869  13.152  10.138 -0.2943 -0.0649  0.2362
  290loPI   C2A 4632   1.922  13.202   9.678  0.1989 -0.2802 -0.1616
  290loPI   C3A 4633   1.992  13.131   9.240  0.0885 -0.2638  0.0580
  290loPI   C4A 4634   2.187  12.893   8.859 -0.1170 -0.2854 -0.0185
  290loPI   C5A 4635   2.094  12.955   8.386 -0.2173 -0.3684  0.3568
  290loPI   C6A 4636   2.102  12.726   7.983  0.3474 -0.0051 -0.0470
  290loPI   C1B 4637   1.433  13.510  10.167 -0.0052  0.1009  0.1695
  290loPI   C2B 4638   1.468  13.532   9.697 -0.2478  0.0384 -0.3692
  290loPI   C3B 4639   1.492  13.595   9.241  0.2381 -0.4107  0.2162
  290loPI   C4B 4640   1.489  13.596   8.791 -0.1725 -0.1996 -0.0109
  291loPI    C1 4641   1.409  14.141  11.188 -0.0460 -0.0637  0.2003
  291loPI    C2 4642   1.185  13.954  10.914  0.1723  0.0426 -0.0550
  291loPI    C3 4643   1.022  14.234  11.148 -0.0021 -0.0061 -0.1165
  291loPI   PO4 4644   1.634  14.088  11.071  0.2749 -0.0321  0.2394
  291loPI   GL1 4645   1.713  13.956  10.651 -0.0503  0.0800 -0.1640
  291loPI   GL2 4646   1.456  14.098  10.413  0.2170  0.2524 -0.3730
  291loPI   C1A 4647   1.959  13.753  10.319 -0.1520  0.0787  0.1518
  291loPI   C2A 4648   1.912  13.712   9.941 -0.0417  0.2293  0.1763
  291loPI   C3A 4649   1.992  13.629   9.431  0.2595  0.1833 -0.2037
  291loPI   C4A 4650   1.995  13.640   9.081 -0.3301  0.0805 -0.0471
  291loPI   C5A 4651   1.963  13.707   8.615  0.1347 -0.2050 -0.0521
  291loPI   C6A 4652   1.750  13.483   8.361  0.2677  0.1401 -0.0322
  291loPI   C1B 4653   1.610  14.126  10.022 -0.1173  0.0611 -0.0709
  291loPI   C2B 4654   1.563  14.007   9.673  0.2328 -0.3488 -0.1701
  291loPI   C3B 4655   1.511  14.147   9.301 -0.0358 -0.1814 -0.2948
  291loPI   C4B 4656   1.595  14.071   8.825 -0.3072  0.4276 -0.1422
  292loPI    C1 4657  10.834   2.763  10.552  0.1191  0.2741 -0.2805
  292loPI    C2 4658  10.981   2.676  10.913 -0.1062  0.1146 -0.2252
  292loPI    C3 4659  11.040   3.039  10.756 -0.1309  0.2337  0.0346
  292loPI   PO4 4660  10.590   2.631  10.552 -0.0675  0.0235 -0.1005
  292loPI   GL1 4661  10.450   2.546   9.974 -0.0394 -0.0983 -0.1053
  292loPI   GL2 4662  10.836   2.503  10.046 -0.0226 -0.1924 -0.1199
  292loPI   C1A 4663  10.443   2.335   9.611  0.3883 -0.2912 -0.0872
  292loPI   C2A 4664  10.152   1.896   9.453 -0.4757 -0.2090 -0.2038
  292loPI   C3A 4665  10.058   1.501   9.235 -0.2469 -0.0906  0.2512
  292loPI   C4A 4666  10.022   1.506   8.813  0.0813 -0.1016  0.2669
  292loPI   C5A 4667  10.221   1.463   8.487  0.1300 -0.0605  0.0045
  292loPI   C6A 4668  10.114   1.506   8.084 -0.0572  0.1222  0.1913
  292loPI   C1B 4669  11.105   2.336   9.605  0.0614  0.0557  0.1416
  292loPI   C2B 4670  11.169   2.072   9.132  0.0145  0.0434  0.0621
  292loPI   C3B 4671  10.875   1.961   8.847 -0.3186  0.0897 -0.1758
  292loPI   C4B 4672  10.523   1.699   8.851  0.2147 -0.0339  0.2722
  293loPI    C1 4673   9.738  17.665  10.563 -0.0239 -0.0560 -0.1454
  293loPI    C2 4674   9.738  17.316  10.759  0.0260  0.1446  0.2202
  293loPI    C3 4675   9.922  17.347  10.405 -0.1467 -0.2474  0.0909
  293loPI   PO4 4676   9.600  17.729  10.520 -0.0325 -0.0998  0.1633
  293loPI   GL1 4677   9.496  17.819  10.114 -0.0312  0.2102 -0.2932
  293loPI   GL2 4678   9.816  17.719  10.070 -0.2223  0.0043  0.2043
  293loPI   C1A 4679   9.377  18.062   9.725  0.1424 -0.0683 -0.0902
  293loPI   C2A 4680   9.271  18.131   9.295 -0.2838 -0.0201  0.3741
  293loPI   C3A 4681   9.366  18.131   8.872 -0.1318 -0.2632  0.0309
  293loPI   C4A 4682   9.280  18.149   8.433 -0.0734  0.3446  0.1149
  293loPI   C5A 4683   9.096  17.811   8.216 -0.0005  0.0316 -0.4158
  293loPI   C6A 4684   9.081  17.530   7.875 -0.0519  0.0423  0.0013
  293loPI   C1B 4685   9.792  17.836   9.614 -0.3056  0.0026  0.0980
  293loPI   C2B 4686   9.667  17.764   9.198  0.3007  0.4582  0.0821
  293loPI   C3B 4687   9.754  17.772   8.792  0.0993 -0.0830  0.0297
  293loPI   C4B 4688   9.741  17.888   8.336  0.2651 -0.1499  0.2121
  294loPI    C1 4689   8.957   6.449  10.877 -0.0684  0.2940 -0.0489
  294loPI    C2 4690   8.708   6.530  10.575 -0.1058  0.0636 -0.0822
  294loPI    C3 4691   8.564   6.390  10.921 -0.0517  0.2198  0.0046
  294loPI   PO4 4692   9.189   6.396  10.692  0.0015 -0.1466 -0.1390
  294loPI   GL1 4693   9.133   6.744  10.347 -0.2484  0.1508  0.0501
  294loPI   GL2 4694   9.047   6.337  10.238  0.0849 -0.1048 -0.0281
  294loPI   C1A 4695   9.322   6.977   9.966  0.0674 -0.0340 -0.3167
  294loPI   C2A 4696   9.336   7.061   9.532 -0.1376 -0.1187 -0.3397
  294loPI   C3A 4697   9.331   6.927   9.018 -0.2753  0.0655  0.1984
  294loPI   C4A 4698   9.318   6.934   8.675  0.0456  0.0588 -0.3427
  294loPI   C5A 4699   9.179   6.948   8.397  0.0590 -0.1305 -0.0377
  294loPI   C6A 4700   8.987   6.823   7.950 -0.0943 -0.1480  0.1282
  294loPI   C1B 4701   9.080   6.542   9.840  0.1817 -0.0219  0.0614
  294loPI   C2B 4702   9.088   6.637   9.399 -0.2247 -0.4997  0.4159
  294loPI   C3B 4703   9.109   6.505   8.950 -0.2674  0.1925 -0.0702
  294loPI   C4B 4704   9.034   6.473   8.441 -0.1176  0.1069 -0.0031
  295loPI    C1 4705  12.680   2.707  10.612  0.0525 -0.0733 -0.1588
  295loPI    C2 4706  12.432   2.452  10.795  0.1906  0.0827  0.2567
  295loPI    C3 4707  12.825   2.435  10.866  0.2546  0.1130 -0.0721
  295loPI   PO4 4708  12.576   2.796  10.436  0.2159  0.0346 -0.0676
  295loPI   GL1 4709  12.485   2.882  10.099 -0.1976  0.0865  0.4304
  295loPI   GL2 4710  12.727   3.015   9.887  0.5249 -0.0588 -0.0949
  295loPI   C1A 4711  12.170   3.029   9.756  0.0736  0.0825 -0.0325
  295loPI   C2A 4712  12.303   2.974   9.395 -0.1774  0.0644  0.4370
  295loPI   C3A 4713  12.439   2.903   8.905 -0.2276  0.0327  0.0491
  295loPI   C4A 4714  12.463   2.693   8.501 -0.2559 -0.1718 -0.0775
  295loPI   C5A 4715  12.772   2.712   8.145  0.0223  0.0438 -0.1388
  295loPI   C6A 4716  13.214   2.657   8.033  0.1199 -0.0873 -0.0188
  295loPI   C1B 4717  12.835   2.960   9.338  0.0680 -0.1103 -0.1272
  295loPI   C2B 4718  12.893   3.057   8.850 -0.2405  0.1897 -0.5531
  295loPI   C3B 4719  12.927   3.024   8.497 -0.0099 -0.1324  0.1610
  295loPI   C4B 4720  12.962   3.197   8.031 -0.2106  0.0593 -0.0791
  296loPI    C1 4721   4.052   1.527  11.020  0.0188 -0.1464 -0.0469
  296loPI    C2 4722   4.414   1.356  11.027  0.1397  0.1026 -0.1134
  296loPI    C3 4723   4.369   1.734  11.150 -0.1221  0.0307  0.0183
  296loPI   PO4 4724   3.938   1.382  10.760 -0.1332  0.1041  0.0525
  296loPI   GL1 4725   3.903   1.397  10.388 -0.0131  0.0130  0.1448
  296loPI   GL2 4726   4.033   1.511  10.231  0.3145 -0.1571 -0.0160
  296loPI   C1A 4727   3.590   1.296  10.037 -0.2047 -0.0446  0.2557
  296loPI   C2A 4728   3.629   1.269   9.532  0.0357  0.0569  0.1199
  296loPI   C3A 4729   3.524   1.306   9.189 -0.2273  0.1251  0.1065
  296loPI   C4A 4730   3.589   1.367   8.716  0.2003  0.0893 -0.0466
  296loPI   C5A 4731   3.479   1.606   8.229 -0.0878  0.2383  0.0617
  296loPI   C6A 4732   3.396   1.902   7.997  0.0590 -0.0404  0.0278
  296loPI   C1B 4733   4.025   1.522   9.788  0.1465  0.4355  0.3328
  296loPI   C2B 4734   4.051   1.478   9.300 -0.0677  0.1393 -0.0670
  296loPI   C3B 4735   4.011   1.477   8.916  0.0293 -0.0027 -0.0799
  296loPI   C4B 4736   3.981   1.585   8.501  0.0214  0.1911  0.0551
  297loPI    C1 4737   3.859  18.180  10.744  0.0792  0.0757 -0.0965
  297loPI    C2 4738   3.618  18.266  11.051  0.1984  0.1995 -0.0363
  297loPI    C3 4739   3.861  17.950  11.071 -0.1356 -0.0749 -0.1989
  297loPI   PO4 4740   3.755  18.243  10.589 -0.0468 -0.1480  0.1003
  297loPI   GL1 4741   3.623  18.345  10.159  0.0746 -0.0085 -0.2206
  297loPI   GL2 4742   3.948  18.355  10.115 -0.5273 -0.4393  0.0415
  297loPI   C1A 4743   3.479  18.567   9.873 -0.0651  0.0885 -0.0955
  297loPI   C2A 4744   3.508  18.599   9.370 -0.3111  0.1415 -0.0395
  297loPI   C3A 4745   3.496  18.540   8.904  0.3394  0.0300 -0.1300
  297loPI   C4A 4746   3.429  18.691   8.550  0.3859  0.0415 -0.1853
  297loPI   C5A 4747   3.383  19.033   8.171  0.0025  0.1793  0.2558
  297loPI   C6A 4748   2.977  18.903   7.978 -0.2064  0.0359 -0.0251
  297loPI   C1B 4749   3.842  18.361   9.668  0.0382 -0.0091  0.0774
  297loPI   C2B 4750   3.914  18.239   9.159 -0.1115 -0.0549  0.1791
  297loPI   C3B 4751   3.903  18.180   8.787 -0.0370  0.3296 -0.0327
  297loPI   C4B 4752   3.841  18.464   8.397  0.0941  0.1288  0.0080
  298loPI    C1 4753  17.536   8.650  11.385  0.2733 -0.0521 -0.1021
  298loPI    C2 4754  17.750   8.411  11.625  0.4518  0.2040 -0.0014
  298loPI    C3 4755  17.543   8.716  11.780  0.1566  0.0682 -0.1198
  298loPI   PO4 4756  17.601   8.609  11.184 -0.1728 -0.2240 -0.0201
  298loPI   GL1 4757  17.918   8.625  10.937 -0.0146  0.2577 -0.3007
  298loPI   GL2 4758  17.904   8.923  10.912 -0.0335 -0.2215  0.0837
  298loPI   C1A 4759  18.205   8.552  10.624 -0.2748 -0.0510 -0.1449
  298loPI   C2A 4760  18.198   8.645  10.246 -0.2535 -0.1369 -0.0788
  298loPI   C3A 4761  18.248   8.676   9.856 -0.3246 -0.2540  0.2599
  298loPI   C4A 4762  18.231   8.660   9.393  0.0030  0.0266  0.2481
  298loPI   C5A 4763  18.306   8.915   8.982  0.1147 -0.3322 -0.2280
  298loPI   C6A 4764  18.308   9.254   8.828  0.2586  0.0874 -0.4756
  298loPI   C1B 4765  17.785   8.847  10.488  0.0749  0.1409  0.3317
  298loPI   C2B 4766  17.822   8.835   9.975  0.1470 -0.1270 -0.0004
  298loPI   C3B 4767  17.794   8.811   9.564 -0.2746 -0.0323  0.1924
  298loPI   C4B 4768  17.859   8.971   9.139  0.0742 -0.0593 -0.3760
  299loPI    C1 4769   9.179   2.722  10.601  0.0027  0.2322  0.0231
  299loPI    C2 4770   8.991   2.644  10.946 -0.0644 -0.0601 -0.0767
  299loPI    C3 4771   9.317   2.435  10.843 -0.0394  0.0318 -0.1871
  299loPI   PO4 4772   9.050   2.657  10.391  0.1550  0.0076 -0.1446
  299loPI   GL1 4773   8.808   2.825  10.025 -0.2710  0.0773  0.1266
  299loPI   GL2 4774   8.595   2.910   9.962  0.3250 -0.3359 -0.3230
  299loPI   C1A 4775   9.004   2.591   9.766 -0.0996 -0.0749  0.1816
  299loPI   C2A 4776   9.048   2.566   9.282 -0.3437  0.0311 -0.1338
  299loPI   C3A 4777   9.024   2.523   8.884 -0.1979  0.1815 -0.0298
  299loPI   C4A 4778   9.114   2.543   8.481  0.1404 -0.0783  0.2363
  299loPI   C5A 4779   9.335   2.485   8.084  0.2611  0.0968  0.0889
  299loPI   C6A 4780   9.452   2.689   7.768  0.3231 -0.0145  0.1089
  299loPI   C1B 4781   8.816   2.990   9.592 -0.0041 -0.0856  0.1083
  299loPI   C2B 4782   8.887   3.006   9.142 -0.3080 -0.1391  0.0100
  299loPI   C3B 4783   8.842   2.975   8.820 -0.0343 -0.0164 -0.1421
  299loPI   C4B 4784   8.609   2.680   8.560 -0.0927  0.2015 -0.1216
  300loPI    C1 4785   4.847   1.138  10.820 -0.0172  0.0608  0.1222
  300loPI    C2 4786   4.929   1.330  11.161  0.0649 -0.0490  0.1651
  300loPI    C3 4787   5.226   1.173  10.943  0.0110  0.0031  0.0531
  300loPI   PO4 4788   4.737   1.279  10.691 -0.1650  0.0991 -0.0600
  300loPI   GL1 4789   4.698   1.384  10.313  0.0641 -0.0346  0.1215
  300loPI   GL2 4790   5.053   1.303  10.237  0.0555 -0.1061  0.0391
  300loPI   C1A 4791   4.442   1.329  10.005  0.0666 -0.2833  0.0129
  300loPI   C2A 4792   4.445   1.243   9.642 -0.2156  0.2530 -0.1995
  300loPI   C3A 4793   4.405   1.210   9.217 -0.4588  0.1853 -0.1492
  300loPI   C4A 4794   4.477   1.232   8.815 -0.3137 -0.2516  0.0141
  300loPI   C5A 4795   4.337   1.161   8.425  0.1432 -0.0645  0.1773
  300loPI   C6A 4796   4.130   1.223   8.000 -0.1112  0.0685  0.1268
  300loPI   C1B 4797   4.866   1.020   9.877 -0.1918 -0.2618  0.1002
  300loPI   C2B 4798   4.879   0.911   9.485 -0.2041 -0.0247 -0.2567
  300loPI   C3B 4799   4.871   0.902   9.079 -0.0408 -0.0378 -0.1201
  300loPI   C4B 4800   4.757   0.853   8.603  0.1287  0.0958  0.2788
  301loPI    C1 4801  11.177  10.090  10.739  0.0888  0.1503 -0.2444
  301loPI    C2 4802  11.279   9.956  11.102 -0.1153 -0.1768 -0.3037
  301loPI    C3 4803  11.562  10.074  10.845  0.0388 -0.0786 -0.0918
  301loPI   PO4 4804  11.012   9.958  10.569  0.0365  0.0047 -0.0040
  301loPI   GL1 4805  10.784  10.084  10.226  0.0371 -0.0320 -0.1038
  301loPI   GL2 4806  11.002  10.194  10.127  0.0125  0.3477 -0.0918
  301loPI   C1A 4807  10.727   9.747   9.968  0.3980  0.3735 -0.3604
  301loPI   C2A 4808  10.766   9.699   9.486  0.0240  0.0441 -0.3257
  301loPI   C3A 4809  10.660   9.553   9.111  0.2194  0.1364  0.0046
  301loPI   C4A 4810  10.694   9.678   8.696 -0.1625 -0.0722 -0.1067
  301loPI   C5A 4811  10.573   9.887   8.322  0.1454  0.1062  0.0423
  301loPI   C6A 4812  10.340   9.756   8.026 -0.0345  0.0671 -0.3666
  301loPI   C1B 4813  10.959  10.174   9.717  0.0574  0.1806 -0.0751
  301loPI   C2B 4814  10.870  10.121   9.311  0.2269 -0.2143  0.0072
  301loPI   C3B 4815  10.881  10.087   8.911 -0.1083  0.3111  0.0762
  301loPI   C4B 4816  11.055  10.078   8.432  0.0718  0.2130  0.1105
  302loPI    C1 4817  14.652  12.345  11.285 -0.1442  0.0343  0.0122
  302loPI    C2 4818  14.606  12.578  11.608  0.0084  0.0084  0.0537
  302loPI    C3 4819  14.850  12.262  11.623 -0.1763 -0.1395 -0.0110
  302loPI   PO4 4820  14.496  12.444  11.088 -0.1985 -0.0566 -0.0985
  302loPI   GL1 4821  14.517  12.453  10.689  0.0136  0.0542 -0.0598
  302loPI   GL2 4822  14.226  12.324  10.636  0.0904  0.1072  0.3169
  302loPI   C1A 4823  14.603  12.347  10.160 -0.0176 -0.1853  0.0356
  302loPI   C2A 4824  14.598  12.357   9.744 -0.1000  0.0240 -0.0511
  302loPI   C3A 4825  14.527  12.350   9.299  0.0181  0.0742  0.0650
  302loPI   C4A 4826  14.484  12.298   8.865  0.4082 -0.0857 -0.1559
  302loPI   C5A 4827  14.297  12.396   8.460 -0.1536  0.3242  0.4577
  302loPI   C6A 4828  13.954  12.148   8.239  0.2471 -0.2135 -0.1562
  302loPI   C1B 4829  14.138  12.275  10.209  0.1668 -0.1464 -0.3876
  302loPI   C2B 4830  14.065  12.130   9.742  0.2668  0.2995  0.0439
  302loPI   C3B 4831  14.019  12.144   9.294 -0.0896 -0.0403  0.1525
  302loPI   C4B 4832  13.990  12.107   8.880 -0.0600 -0.0509 -0.0708
  303loPI    C1 4833   7.200   5.024  10.758 -0.0913  0.1582  0.0068
  303loPI    C2 4834   6.918   5.074  11.037  0.0685  0.1389  0.1732
  303loPI    C3 4835   7.281   4.942  11.141  0.0216 -0.2134 -0.0922
  303loPI   PO4 4836   7.027   4.773  10.589  0.2494  0.0513 -0.0378
  303loPI   GL1 4837   6.809   4.708  10.283  0.1534  0.2419  0.2430
  303loPI   GL2 4838   6.836   4.971  10.074 -0.1151  0.1425  0.3069
  303loPI   C1A 4839   6.653   4.532   9.920  0.2399  0.2257 -0.2165
  303loPI   C2A 4840   6.620   4.396   9.416  0.1594  0.1928 -0.2637
  303loPI   C3A 4841   6.589   4.278   9.085 -0.2886 -0.2782  0.2105
  303loPI   C4A 4842   6.578   4.362   8.658  0.0667  0.0877  0.1663
  303loPI   C5A 4843   6.674   4.310   8.204  0.0875 -0.0229 -0.0161
  303loPI   C6A 4844   6.522   4.097   7.783 -0.1305 -0.0529 -0.0667
  303loPI   C1B 4845   6.924   4.802   9.652  0.1547  0.1811 -0.1449
  303loPI   C2B 4846   6.928   4.797   9.260 -0.2967 -0.0371  0.2398
  303loPI   C3B 4847   6.963   4.751   8.898  0.0093  0.2134  0.0723
  303loPI   C4B 4848   6.910   4.684   8.519  0.0204  0.1552 -0.0573
  304loPI    C1 4849   2.463   3.120  10.730  0.1262 -0.0328  0.1796
  304loPI    C2 4850   2.143   2.970  10.918  0.0170 -0.1025 -0.0580
  304loPI    C3 4851   2.504   2.948  11.089 -0.0622 -0.2661  0.0922
  304loPI   PO4 4852   2.406   3.106  10.467  0.1142  0.1629 -0.1031
  304loPI   GL1 4853   2.606   3.138  10.172  0.1619  0.0648 -0.0802
  304loPI   GL2 4854   2.530   3.455  10.135  0.1445 -0.0912  0.1689
  304loPI   C1A 4855   2.831   3.001   9.787  0.1340 -0.1182  0.0196
  304loPI   C2A 4856   3.126   3.128   9.486  0.0700  0.2265  0.2587
  304loPI   C3A 4857   2.999   3.429   9.157  0.1822  0.0287 -0.1393
  304loPI   C4A 4858   3.250   3.645   8.854 -0.0827  0.0040 -0.1212
  304loPI   C5A 4859   3.405   3.837   8.576 -0.1439  0.2258 -0.0428
  304loPI   C6A 4860   3.514   4.119   8.243  0.0447  0.2438 -0.2602
  304loPI   C1B 4861   2.624   3.896   9.857  0.2509 -0.1408 -0.3586
  304loPI   C2B 4862   2.474   4.045   9.514 -0.2140  0.2540 -0.0219
  304loPI   C3B 4863   2.423   4.157   9.147  0.0698  0.0841  0.4383
  304loPI   C4B 4864   2.340   4.350   8.702  0.1716  0.1228  0.0550
  305loPI    C1 4865   8.303   3.602  10.651  0.2148 -0.1787 -0.0879
  305loPI    C2 4866   8.035   3.688  10.936  0.2835  0.2765 -0.1534
  305loPI    C3 4867   8.010   3.343  10.736  0.0526  0.0882  0.1901
  305loPI   PO4 4868   8.266   3.779  10.470  0.1482 -0.0922  0.0906
  305loPI   GL1 4869   7.906   3.907  10.127  0.0158 -0.0763 -0.1100
  305loPI   GL2 4870   8.167   3.795   9.984 -0.1611 -0.0518 -0.1556
  305loPI   C1A 4871   7.961   3.994   9.621 -0.0711  0.2513 -0.0172
  305loPI   C2A 4872   7.969   3.908   9.233 -0.0387 -0.0081  0.1115
  305loPI   C3A 4873   7.930   3.844   8.794  0.3862 -0.1995  0.1620
  305loPI   C4A 4874   8.039   3.834   8.305 -0.3260  0.1185 -0.0117
  305loPI   C5A 4875   7.959   4.007   7.841  0.2202  0.1199 -0.0636
  305loPI   C6A 4876   7.746   4.220   7.626  0.0061  0.1978 -0.1972
  305loPI   C1B 4877   8.513   3.817   9.670  0.0540  0.1217  0.1543
  305loPI   C2B 4878   8.512   3.900   9.206 -0.0773  0.1552  0.0181
  305loPI   C3B 4879   8.421   3.870   8.732  0.0948 -0.1611 -0.2134
  305loPI   C4B 4880   8.596   3.762   8.235 -0.1013 -0.0080 -0.0247
  306loPI    C1 4881   9.637  16.506  11.079  0.2539  0.0834 -0.0759
  306loPI    C2 4882   9.455  16.459  10.726  0.0411 -0.0963  0.0543
  306loPI    C3 4883   9.238  16.476  11.062  0.2194  0.3673  0.1538
  306loPI   PO4 4884   9.899  16.509  11.043 -0.2050  0.1063  0.0258
  306loPI   GL1 4885   9.954  16.518  10.611 -0.3017  0.0484 -0.0942
  306loPI   GL2 4886   9.940  16.830  10.565 -0.1358 -0.0883 -0.0827
  306loPI   C1A 4887   9.675  16.475  10.286  0.0566  0.2887 -0.1435
  306loPI   C2A 4888   9.468  16.375   9.849  0.2608  0.2144 -0.0613
  306loPI   C3A 4889   9.435  16.304   9.432  0.2465  0.1135 -0.0708
  306loPI   C4A 4890   9.472  16.276   8.957  0.1638 -0.1624 -0.1078
  306loPI   C5A 4891   9.311  16.266   8.552  0.2516  0.0532  0.0891
  306loPI   C6A 4892   9.034  16.197   8.083 -0.4639 -0.0475 -0.1548
  306loPI   C1B 4893  10.016  16.961  10.157  0.4995  0.0366 -0.0167
  306loPI   C2B 4894   9.984  17.026   9.743  0.2389 -0.0728 -0.1051
  306loPI   C3B 4895  10.026  16.943   9.287  0.0684 -0.0287 -0.2650
  306loPI   C4B 4896   9.924  16.992   8.851 -0.0337  0.0106 -0.0678
  307loPI    C1 4897  10.392  12.097  10.784 -0.0495 -0.0660  0.0782
  307loPI    C2 4898  10.239  11.831  11.041 -0.0647 -0.1195  0.0140
  307loPI    C3 4899  10.189  12.222  11.106 -0.0649 -0.1326  0.0947
  307loPI   PO4 4900  10.294  12.051  10.557  0.1740  0.1712 -0.0970
  307loPI   GL1 4901  10.391  11.925  10.166 -0.1575  0.0344 -0.1704
  307loPI   GL2 4902  10.199  11.685  10.114  0.2634 -0.1167 -0.0147
  307loPI   C1A 4903  10.508  12.258   9.952  0.4152 -0.0927  0.1393
  307loPI   C2A 4904  10.481  12.334   9.548  0.0261 -0.0829 -0.2937
  307loPI   C3A 4905  10.419  12.369   9.104  0.0983  0.0677  0.0920
  307loPI   C4A 4906  10.304  12.352   8.688  0.0360  0.0973  0.1181
  307loPI   C5A 4907  10.276  12.470   8.329 -0.0108  0.2118 -0.1174
  307loPI   C6A 4908  10.088  12.443   7.976  0.1272 -0.1138  0.0186
  307loPI   C1B 4909  10.303  11.829   9.664 -0.3197 -0.3090  0.3487
  307loPI   C2B 4910  10.259  11.850   9.203  0.2314 -0.1847 -0.0313
  307loPI   C3B 4911  10.247  11.833   8.757  0.2818  0.0129  0.5989
  307loPI   C4B 4912  10.150  11.951   8.343  0.0599  0.0063 -0.0464
  308loPI    C1 4913   3.111   5.083  10.888  0.0505 -0.1793 -0.1240
  308loPI    C2 4914   3.499   5.056  10.796  0.0600  0.1043 -0.1765
  308loPI    C3 4915   3.378   5.309  11.082 -0.0507 -0.2355  0.0833
  308loPI   PO4 4916   3.002   5.090  10.726 -0.3089 -0.1266 -0.2715
  308loPI   GL1 4917   2.849   5.124  10.362 -0.3308  0.0412  0.0351
  308loPI   GL2 4918   2.528   5.173  10.425  0.1351  0.0084 -0.0166
  308loPI   C1A 4919   2.732   4.935  10.015  0.3045 -0.0991 -0.2915
  308loPI   C2A 4920   2.981   4.735   9.623  0.0242 -0.3780 -0.0757
  308loPI   C3A 4921   3.011   4.835   9.181  0.0238 -0.0056 -0.0032
  308loPI   C4A 4922   3.097   4.892   8.746 -0.0875 -0.0747 -0.0840
  308loPI   C5A 4923   3.120   4.987   8.332 -0.1664  0.1164 -0.1609
  308loPI   C6A 4924   3.338   4.988   7.876  0.1626  0.0645  0.2914
  308loPI   C1B 4925   2.579   5.385  10.027 -0.1793  0.1792 -0.0963
  308loPI   C2B 4926   2.651   5.543   9.564  0.2447 -0.1723  0.4734
  308loPI   C3B 4927   2.652   5.757   9.162 -0.1726  0.1506 -0.2331
  308loPI   C4B 4928   2.753   5.691   8.752 -0.3884 -0.0804  0.0373
  309loPI    C1 4929   9.792   0.609  10.690 -0.0935 -0.1318 -0.0719
  309loPI    C2 4930   9.654   0.949  10.530  0.0053 -0.0616 -0.0097
  309loPI    C3 4931   9.832   0.954  10.889 -0.3721 -0.2444  0.1866
  309loPI   PO4 4932   9.588   0.423  10.606 -0.1268 -0.1289 -0.1551
  309loPI   GL1 4933   9.301   0.579  10.316  0.2350 -0.1764  0.2480
  309loPI   GL2 4934   9.402   0.242  10.147  0.3073 -0.1245 -0.1044
  309loPI   C1A 4935   9.070   0.597   9.921  0.2615  0.0810  0.2241
  309loPI   C2A 4936   8.974   0.585   9.420  0.3773 -0.0868  0.2014
  309loPI   C3A 4937   8.906   0.593   8.971 -0.0932  0.1746  0.0913
  309loPI   C4A 4938   8.941   0.647   8.521  0.0635  0.0501  0.2133
  309loPI   C5A 4939   8.943   0.503   8.104 -0.0114  0.1207 -0.2184
  309loPI   C6A 4940   8.696   0.241   7.720 -0.0657  0.1259  0.0574
  309loPI   C1B 4941   9.382   0.273   9.674 -0.1702  0.2482 -0.0255
  309loPI   C2B 4942   9.397   0.282   9.204  0.2094  0.0567  0.1624
  309loPI   C3B 4943   9.354   0.385   8.778 -0.2443 -0.1797 -0.1428
  309loPI   C4B 4944   9.418   0.404   8.378  0.0419 -0.2283 -0.3301
  310loPI    C1 4945  10.807   6.743  10.789  0.0840  0.0758  0.3108
  310loPI    C2 4946  10.799   6.997  11.098  0.1788  0.3203  0.1147
  310loPI    C3 4947  11.135   6.950  10.886  0.1815 -0.0196  0.1883
  310loPI   PO4 4948  10.520   6.732  10.679  0.1248  0.2700  0.0518
  310loPI   GL1 4949  10.504   6.509  10.429 -0.0617 -0.2107  0.0888
  310loPI   GL2 4950  10.868   6.522  10.306  0.0324  0.2215  0.2150
  310loPI   C1A 4951  10.532   6.609   9.998 -0.1295  0.3183 -0.0173
  310loPI   C2A 4952  10.551   6.494   9.585  0.3392 -0.1438  0.1346
  310loPI   C3A 4953  10.504   6.563   9.202  0.2267 -0.2377  0.1129
  310loPI   C4A 4954  10.497   6.488   8.797  0.0068 -0.2421 -0.1013
  310loPI   C5A 4955  10.171   6.378   8.501 -0.0996 -0.0573  0.0093
  310loPI   C6A 4956   9.989   6.696   8.301  0.2825 -0.2541 -0.0850
  310loPI   C1B 4957  10.970   6.537   9.858  0.1690  0.1662  0.0088
  310loPI   C2B 4958  11.228   6.625   9.611  0.3037  0.2029 -0.1267
  310loPI   C3B 4959  11.216   6.603   9.251  0.0315  0.1905  0.0282
  310loPI   C4B 4960  11.146   6.515   8.845 -0.0584  0.1213 -0.0658
  311loPI    C1 4961   8.530   2.508  10.611 -0.0124  0.0957 -0.0726
  311loPI    C2 4962   8.149   2.540  10.727  0.0122  0.1872 -0.0158
  311loPI    C3 4963   8.442   2.659  10.971  0.0792  0.0780 -0.0426
  311loPI   PO4 4964   8.565   2.569  10.385 -0.0766 -0.1367 -0.0453
  311loPI   GL1 4965   8.691   2.322  10.070 -0.2173  0.2563 -0.0480
  311loPI   GL2 4966   8.450   2.424   9.896  0.1323  0.2302  0.0555
  311loPI   C1A 4967   8.750   2.060   9.763  0.3176  0.2616 -0.2830
  311loPI   C2A 4968   8.838   2.018   9.293  0.2082 -0.0210 -0.2227
  311loPI   C3A 4969   8.755   1.996   8.951  0.2283  0.2157 -0.0937
  311loPI   C4A 4970   8.660   1.844   8.522  0.1666  0.1856 -0.1439
  311loPI   C5A 4971   8.598   2.026   8.140  0.0071  0.1791 -0.0623
  311loPI   C6A 4972   8.284   2.312   8.053 -0.1850 -0.2429  0.1914
  311loPI   C1B 4973   8.561   2.479   9.492  0.1520  0.2437 -0.0230
  311loPI   C2B 4974   8.542   2.431   9.056  0.1045 -0.0237  0.1837
  311loPI   C3B 4975   8.375   2.251   8.553  0.1956 -0.2706  0.1345
  311loPI   C4B 4976   7.977   2.031   8.417  0.0333  0.1359  0.1627
  312loPI    C1 4977  11.575   7.265  11.037  0.1854  0.0604  0.0627
  312loPI    C2 4978  11.760   7.072  11.335 -0.1952 -0.0076  0.2610
  312loPI    C3 4979  11.618   7.441  11.394  0.0080  0.1046  0.0632
  312loPI   PO4 4980  11.689   7.259  10.854 -0.1678 -0.1450  0.2836
  312loPI   GL1 4981  11.827   6.989  10.525  0.1945  0.0130  0.0514
  312loPI   GL2 4982  12.023   6.757  10.435  0.2580 -0.0939 -0.0058
  312loPI   C1A 4983  11.758   6.960  10.082  0.0066  0.0862  0.0520
  312loPI   C2A 4984  11.661   7.004   9.626 -0.1648 -0.1089 -0.1807
  312loPI   C3A 4985  11.532   6.957   9.270 -0.2205 -0.3217 -0.0074
  312loPI   C4A 4986  11.401   6.928   8.828  0.1366  0.0620 -0.1607
  312loPI   C5A 4987  11.414   7.032   8.409  0.0346  0.1824 -0.2314
  312loPI   C6A 4988  11.425   7.345   8.190  0.1801 -0.2489  0.1103
  312loPI   C1B 4989  12.220   6.756  10.026 -0.1681 -0.3204 -0.1333
  312loPI   C2B 4990  12.146   6.721   9.611 -0.3065  0.0954 -0.0037
  312loPI   C3B 4991  12.166   6.755   9.099  0.1001  0.0047  0.2189
  312loPI   C4B 4992  11.912   6.915   8.779 -0.2645 -0.1451  0.2981
  313loPI    C1 4993  12.057  13.993  10.677 -0.1610  0.0080  0.0156
  313loPI    C2 4994  12.136  13.816  11.027  0.0555 -0.2224 -0.1462
  313loPI    C3 4995  11.811  13.712  10.820 -0.0904 -0.0625 -0.0011
  313loPI   PO4 4996  12.406  14.089  10.557  0.1418  0.2448 -0.0172
  313loPI   GL1 4997  12.605  14.422  10.293  0.2243  0.0125  0.1040
  313loPI   GL2 4998  12.960  14.432  10.215 -0.0245 -0.1628 -0.1106
  313loPI   C1A 4999  12.359  14.488  10.007  0.2814  0.1307 -0.0639
  313loPI   C2A 5000  12.331  14.361   9.538 -0.4075  0.0555  0.1567
  313loPI   C3A 5001  12.256  14.334   9.228  0.0229  0.1234  0.0709
  313loPI   C4A 5002  12.283  14.354   8.817  0.3079 -0.4453  0.0442
  313loPI   C5A 5003  12.123  14.383   8.338  0.0513  0.0254 -0.3881
  313loPI   C6A 5004  12.409  14.624   8.073 -0.1359  0.1083  0.0273
  313loPI   C1B 5005  13.512  14.417  10.045  0.2507  0.0922  0.1281
  313loPI   C2B 5006  13.567  14.468   9.638  0.0233  0.0324 -0.1350
  313loPI   C3B 5007  13.588  14.304   9.226  0.0375  0.3601 -0.0563
  313loPI   C4B 5008  13.606  14.294   8.793 -0.0472  0.0459  0.3006
  314loPI    C1 5009  11.232   7.664  10.760 -0.0845 -0.0407 -0.0807
  314loPI    C2 5010  11.105   7.457  11.078 -0.0111  0.0379  0.0001
  314loPI    C3 5011  11.189   7.847  11.113  0.0138  0.0429 -0.1117
  314loPI   PO4 5012  11.295   7.440  10.611  0.0406 -0.0614 -0.0249
  314loPI   GL1 5013  11.342   7.404  10.113  0.1328  0.1132 -0.2013
  314loPI   GL2 5014  11.028   7.437  10.192  0.1582 -0.0616 -0.0998
  314loPI   C1A 5015  11.607   7.458   9.885 -0.0189 -0.0469  0.0115
  314loPI   C2A 5016  11.612   7.472   9.468  0.1855  0.1999  0.0420
  314loPI   C3A 5017  11.623   7.418   9.057  0.1493  0.1910  0.0183
  314loPI   C4A 5018  11.740   7.350   8.574 -0.3315 -0.3549 -0.1905
  314loPI   C5A 5019  11.906   7.265   8.227 -0.0622 -0.2344  0.0043
  314loPI   C6A 5020  12.237   7.167   7.971  0.0821  0.0765  0.1507
  314loPI   C1B 5021  10.982   7.583   9.754 -0.1794 -0.2252 -0.3494
  314loPI   C2B 5022  10.992   7.780   9.363 -0.1270  0.1328 -0.1358
  314loPI   C3B 5023  10.871   7.801   8.947 -0.1541 -0.2474 -0.1975
  314loPI   C4B 5024  11.121   7.957   8.657  0.0127  0.1093  0.1658
  315loPI    C1 5025  12.959  12.874  10.731  0.1342  0.2693 -0.1132
  315loPI    C2 5026  13.001  13.036  11.095  0.1882  0.0845 -0.0365
  315loPI    C3 5027  12.975  12.639  11.054 -0.2725  0.1250 -0.1923
  315loPI   PO4 5028  13.100  12.915  10.598  0.0923 -0.1639 -0.4693
  315loPI   GL1 5029  13.081  13.059  10.239  0.3170 -0.1862  0.2719
  315loPI   GL2 5030  13.331  13.398  10.379 -0.0319 -0.2965 -0.0944
  315loPI   C1A 5031  12.859  13.144   9.761  0.1029  0.0601 -0.0001
  315loPI   C2A 5032  12.893  13.191   9.388  0.1430  0.1317 -0.2612
  315loPI   C3A 5033  12.917  13.187   8.973 -0.3776 -0.1713  0.0385
  315loPI   C4A 5034  12.901  13.232   8.522  0.2688  0.2335  0.2448
  315loPI   C5A 5035  12.997  13.171   8.179 -0.0945  0.1606  0.1087
  315loPI   C6A 5036  13.275  13.064   7.946  0.1541  0.2639 -0.0216
  315loPI   C1B 5037  13.447  13.370   9.958 -0.1139 -0.1030 -0.1389
  315loPI   C2B 5038  13.358  13.284   9.541 -0.0495  0.0014  0.0567
  315loPI   C3B 5039  13.443  13.272   9.135 -0.2693 -0.0058 -0.2392
  315loPI   C4B 5040  13.436  13.333   8.572  0.2216  0.3217 -0.2293
  316loPI    C1 5041   5.136   3.466  10.761  0.2087  0.1994 -0.0083
  316loPI    C2 5042   4.790   3.642  10.856  0.0443  0.0121 -0.2493
  316loPI    C3 5043   4.934   3.347  11.085  0.1522  0.2292 -0.0325
  316loPI   PO4 5044   5.193   3.596  10.636 -0.0694  0.0843  0.0574
  316loPI   GL1 5045   5.085   3.591  10.207 -0.0056  0.1545 -0.2063
  316loPI   GL2 5046   5.220   3.309  10.026 -0.0056 -0.2214 -0.2120
  316loPI   C1A 5047   4.953   3.640   9.816  0.1355  0.0739 -0.0915
  316loPI   C2A 5048   4.856   3.744   9.419  0.0818 -0.0873 -0.4462
  316loPI   C3A 5049   4.908   3.728   9.018  0.2460  0.2524  0.0241
  316loPI   C4A 5050   4.901   3.707   8.594 -0.0658  0.0783  0.1782
  316loPI   C5A 5051   4.978   3.473   8.148  0.2428 -0.2317 -0.1108
  316loPI   C6A 5052   4.693   3.311   7.891  0.1208 -0.2108  0.0096
  316loPI   C1B 5053   5.210   3.216   9.673 -0.0946  0.1753  0.2620
  316loPI   C2B 5054   5.175   3.273   9.246 -0.1711 -0.2302  0.0785
  316loPI   C3B 5055   4.913   2.931   8.948  0.0788 -0.1828 -0.0306
  316loPI   C4B 5056   4.582   2.701   8.702  0.3935  0.3253 -0.1451
  317loPI    C1 5057  12.721  17.913  10.404 -0.1764  0.0209 -0.0224
  317loPI    C2 5058  12.718  17.813  10.791 -0.0271  0.1154  0.0036
  317loPI    C3 5059  12.406  17.721  10.559 -0.0387 -0.1050  0.1040
  317loPI   PO4 5060  12.750  18.205  10.396  0.2711  0.2659 -0.3312
  317loPI   GL1 5061  12.867  18.316  10.083  0.1469  0.1220 -0.4120
  317loPI   GL2 5062  13.023  18.398   9.955  0.2294  0.0964  0.0263
  317loPI   C1A 5063  12.670  18.084   9.753  0.0388  0.0580 -0.5235
  317loPI   C2A 5064  12.648  17.906   9.337  0.0173  0.2891 -0.2306
  317loPI   C3A 5065  12.457  17.764   8.954  0.2299  0.1445 -0.0493
  317loPI   C4A 5066  12.508  17.548   8.580  0.0248 -0.1594 -0.3616
  317loPI   C5A 5067  12.281  17.353   8.289  0.4822  0.1413 -0.4803
  317loPI   C6A 5068  11.970  17.072   8.104 -0.2297 -0.2259  0.1088
  317loPI   C1B 5069  13.341  18.467   9.648  0.2120 -0.1334 -0.0093
  317loPI   C2B 5070  13.175  18.621   9.208 -0.0288  0.0927 -0.0495
  317loPI   C3B 5071  13.098  18.408   8.814 -0.1687  0.1112 -0.1146
  317loPI   C4B 5072  13.030  18.361   8.435 -0.2528 -0.1436  0.2437
  318loPI    C1 5073   7.911   7.794  10.703  0.0965 -0.2025  0.1085
  318loPI    C2 5074   8.011   7.928  11.066 -0.1073 -0.1363  0.1410
  318loPI    C3 5075   7.675   7.717  11.016 -0.1962  0.0465 -0.0463
  318loPI   PO4 5076   7.997   8.017  10.563 -0.0274  0.1626 -0.0047
  318loPI   GL1 5077   7.981   8.097  10.180 -0.0625  0.2794  0.1613
  318loPI   GL2 5078   7.972   8.337  10.034  0.1281  0.0664 -0.0211
  318loPI   C1A 5079   7.884   7.964   9.794 -0.2746  0.2595 -0.0691
  318loPI   C2A 5080   7.864   7.829   9.415 -0.2637  0.3231  0.1351
  318loPI   C3A 5081   7.854   7.819   8.959  0.1030 -0.1087 -0.0560
  318loPI   C4A 5082   7.972   7.700   8.537  0.0657  0.1676 -0.0164
  318loPI   C5A 5083   8.089   7.924   8.219 -0.0440  0.1781 -0.0506
  318loPI   C6A 5084   8.390   7.998   7.892  0.1969 -0.1747 -0.0971
  318loPI   C1B 5085   7.897   8.449   9.602 -0.0515 -0.2810  0.0826
  318loPI   C2B 5086   7.744   8.336   9.201 -0.1388 -0.0321 -0.3897
  318loPI   C3B 5087   7.822   8.303   8.813 -0.1066 -0.1494 -0.2709
  318loPI   C4B 5088   7.765   8.189   8.421 -0.0579  0.2876 -0.0544
  319loPI    C1 5089   0.662   1.644  10.669  0.1406 -0.0982  0.1000
  319loPI    C2 5090   0.465   1.389  10.905 -0.0554 -0.0908 -0.0535
  319loPI    C3 5091   0.547   1.758  11.034  0.0277 -0.1565  0.0832
  319loPI   PO4 5092   0.543   1.757  10.472  0.2473  0.2813 -0.0771
  319loPI   GL1 5093   0.706   2.138  10.253 -0.3498 -0.0202 -0.4960
  319loPI   GL2 5094   0.953   1.976  10.067  0.4001 -0.0897 -0.0282
  319loPI   C1A 5095   0.515   2.295   9.952 -0.0354  0.0162 -0.0756
  319loPI   C2A 5096   0.625   2.287   9.620  0.2910  0.2733  0.0716
  319loPI   C3A 5097   1.029   2.163   9.620 -0.1389 -0.1417  0.0494
  319loPI   C4A 5098   1.268   1.903   9.402  0.0256  0.1184  0.0187
  319loPI   C5A 5099   1.184   1.647   9.138  0.1391 -0.0148 -0.1850
  319loPI   C6A 5100   1.107   1.675   8.614 -0.1084 -0.0464  0.0322
  319loPI   C1B 5101   1.026   1.715   9.782  0.0448  0.1055 -0.0387
  319loPI   C2B 5102   0.906   1.378   9.495  0.2540 -0.0556 -0.0094
  319loPI   C3B 5103   0.985   1.170   9.214  0.1622  0.4557  0.1851
  319loPI   C4B 5104   0.847   1.308   8.766 -0.0928  0.3053  0.3751
  320loPI    C1 5105   0.438   7.588  11.252  0.0971  0.3934  0.1995
  320loPI    C2 5106   0.268   7.779  10.944 -0.1656 -0.0530  0.0585
  320loPI    C3 5107   0.092   7.783  11.304 -0.1434  0.0128  0.0688
  320loPI   PO4 5108   0.703   7.616  11.146  0.2858  0.1402 -0.0261
  320loPI   GL1 5109   0.754   7.665  10.817  0.1871  0.0478  0.1243
  320loPI   GL2 5110   1.070   7.692  10.729 -0.1262 -0.1058 -0.0297
  320loPI   C1A 5111   0.403   7.624  10.506  0.2093 -0.2775 -0.0485
  320loPI   C2A 5112   0.393   7.398  10.099 -0.2521 -0.0895  0.0183
  320loPI   C3A 5113   0.382   7.471   9.618  0.0732 -0.1335  0.1528
  320loPI   C4A 5114   0.459   7.486   9.236  0.3256  0.0302  0.2103
  320loPI   C5A 5115   0.509   7.541   8.795 -0.0093  0.0771 -0.1923
  320loPI   C6A 5116   0.347   7.286   8.417  0.0274 -0.0855 -0.0346
  320loPI   C1B 5117   0.895   7.753  10.227 -0.5112  0.1190  0.0080
  320loPI   C2B 5118   0.819   7.771   9.815  0.1183  0.1996  0.0966
  320loPI   C3B 5119   0.889   7.764   9.378  0.0106  0.0042 -0.1995
  320loPI   C4B 5120   0.820   7.891   9.014  0.0768  0.1247 -0.0985
  321loPI    C1 5121   5.711  17.669  10.626 -0.0720 -0.0169  0.0892
  321loPI    C2 5122   5.584  18.048  10.634  0.2051  0.0785  0.0579
  321loPI    C3 5123   5.784  17.897  10.946  0.1973 -0.0056  0.0224
  321loPI   PO4 5124   5.701  17.623  10.338 -0.0682  0.2166  0.0878
  321loPI   GL1 5125   5.427  17.936  10.134 -0.2157  0.1518 -0.1898
  321loPI   GL2 5126   5.579  18.156  10.120  0.1496 -0.1062 -0.0292
  321loPI   C1A 5127   5.202  17.976   9.803  0.1345 -0.1060 -0.3408
  321loPI   C2A 5128   5.151  17.925   9.413 -0.0909 -0.2437 -0.0793
  321loPI   C3A 5129   5.199  17.886   9.061 -0.1456 -0.2740  0.2514
  321loPI   C4A 5130   5.143  17.759   8.584  0.0457  0.0690 -0.2511
  321loPI   C5A 5131   5.311  17.953   8.217 -0.1714  0.2554 -0.0109
  321loPI   C6A 5132   5.361  17.950   7.756  0.0638 -0.1032 -0.1135
  321loPI   C1B 5133   5.630  18.200   9.685 -0.2618 -0.1211 -0.1279
  321loPI   C2B 5134   5.601  18.158   9.313  0.0680  0.1860  0.0732
  321loPI   C3B 5135   5.647  18.071   8.949  0.1307 -0.1012  0.2277
  321loPI   C4B 5136   5.631  18.205   8.583  0.0103 -0.1925 -0.0295
  322loPI    C1 5137   3.365  14.831  10.818 -0.0377 -0.1576 -0.0090
  322loPI    C2 5138   3.224  15.148  11.016  0.2350 -0.0366 -0.0045
  322loPI    C3 5139   3.351  14.827  11.218  0.1623 -0.0623  0.0003
  322loPI   PO4 5140   3.347  14.981  10.520 -0.3680 -0.1633 -0.0331
  322loPI   GL1 5141   3.216  15.214  10.309  0.3051  0.0393 -0.0825
  322loPI   GL2 5142   2.830  15.216  10.193 -0.1582  0.0737  0.1440
  322loPI   C1A 5143   3.184  15.099   9.869 -0.1634  0.1080 -0.1308
  322loPI   C2A 5144   3.211  15.046   9.455  0.1071 -0.2067 -0.0524
  322loPI   C3A 5145   3.102  14.954   9.006  0.1308 -0.2175  0.1129
  322loPI   C4A 5146   3.078  15.013   8.642 -0.1082  0.0147  0.0204
  322loPI   C5A 5147   2.947  15.221   8.266 -0.0036 -0.0045  0.0987
  322loPI   C6A 5148   2.725  15.429   7.850  0.1201  0.4537 -0.1893
  322loPI   C1B 5149   2.736  15.343   9.751  0.0587  0.1031  0.2385
  322loPI   C2B 5150   2.773  15.313   9.401  0.2209 -0.1241 -0.3217
  322loPI   C3B 5151   2.730  15.312   8.909  0.2297 -0.1838  0.0347
  322loPI   C4B 5152   2.552  15.411   8.593 -0.0300 -0.2441  0.1526
  323loPI    C1 5153   4.934  11.404  10.701 -0.4954  0.1341  0.2684
  323loPI    C2 5154   4.588  11.501  10.527 -0.3490  0.0256 -0.0915
  323loPI    C3 5155   4.605  11.189  10.776 -0.5122  0.0395 -0.0616
  323loPI   PO4 5156   5.163  11.412  10.416  0.1214 -0.0841 -0.1558
  323loPI   GL1 5157   5.346  11.188  10.068  0.0010 -0.1260 -0.1627
  323loPI   GL2 5158   5.034  11.345   9.905  0.1197 -0.2898  0.0236
  323loPI   C1A 5159   5.452  10.901   9.757  0.3837  0.0164 -0.0480
  323loPI   C2A 5160   5.635  10.858   9.333 -0.2643  0.0735 -0.0555
  323loPI   C3A 5161   6.025  11.066   9.054  0.0384  0.0245 -0.1445
  323loPI   C4A 5162   6.126  10.932   8.569  0.0373 -0.1972  0.1057
  323loPI   C5A 5163   5.763  10.815   8.301  0.1731 -0.1289 -0.3045
  323loPI   C6A 5164   5.385  10.963   8.333 -0.1589  0.0761 -0.0515
  323loPI   C1B 5165   5.229  11.245   9.435 -0.1398  0.0773  0.1332
  323loPI   C2B 5166   5.190  10.953   9.023 -0.0292  0.0275  0.3050
  323loPI   C3B 5167   4.926  10.988   8.607 -0.2776 -0.0232  0.0129
  323loPI   C4B 5168   4.952  11.096   8.199  0.1870  0.2891  0.1187
  324loPI    C1 5169  13.378  13.680  10.840 -0.1152 -0.1944 -0.0102
  324loPI    C2 5170  13.058  13.441  10.831 -0.1282 -0.1717 -0.1910
  324loPI    C3 5171  13.424  13.283  10.858 -0.1469 -0.2034 -0.1203
  324loPI   PO4 5172  13.250  13.918  10.598  0.1053  0.2684  0.2396
  324loPI   GL1 5173  13.282  13.980  10.206 -0.1595  0.1993 -0.0539
  324loPI   GL2 5174  13.638  13.815  10.172  0.2108  0.1053  0.0759
  324loPI   C1A 5175  13.055  14.171   9.807  0.2849  0.0561  0.0435
  324loPI   C2A 5176  13.119  14.168   9.304 -0.1710  0.0948  0.1411
  324loPI   C3A 5177  13.087  14.140   8.910  0.0136 -0.2048 -0.2908
  324loPI   C4A 5178  13.167  14.213   8.464  0.0889  0.0740 -0.1141
  324loPI   C5A 5179  12.907  14.164   8.137 -0.0807  0.1414  0.3056
  324loPI   C6A 5180  12.671  14.194   7.656 -0.1415 -0.1488  0.0266
  324loPI   C1B 5181  13.474  13.916   9.787  0.0890  0.0682 -0.2375
  324loPI   C2B 5182  13.496  13.824   9.397 -0.0813 -0.0294 -0.3272
  324loPI   C3B 5183  13.520  13.754   9.004 -0.0545  0.2394  0.0847
  324loPI   C4B 5184  13.526  13.814   8.585  0.0304 -0.0142 -0.2603
  325loPI    C1 5185   9.373  14.697  11.033 -0.1884  0.1924  0.1659
  325loPI    C2 5186   9.593  15.029  11.064  0.0396  0.0509  0.0885
  325loPI    C3 5187   9.262  14.987  11.286  0.2555  0.1362  0.4349
  325loPI   PO4 5188   9.328  14.654  10.778  0.0245  0.3098 -0.1314
  325loPI   GL1 5189   9.521  14.431  10.494  0.1535 -0.2460 -0.0736
  325loPI   GL2 5190   9.552  14.107  10.597 -0.0012 -0.0295 -0.1412
  325loPI   C1A 5191   9.628  14.433  10.067 -0.1311  0.0324  0.2587
  325loPI   C2A 5192   9.596  14.444   9.554  0.1995 -0.3106 -0.0734
  325loPI   C3A 5193   9.535  14.457   9.090  0.0344 -0.0929  0.1419
  325loPI   C4A 5194   9.411  14.565   8.703  0.0001 -0.3454  0.0671
  325loPI   C5A 5195   9.111  14.784   8.442 -0.1295 -0.1716  0.1333
  325loPI   C6A 5196   8.711  14.868   8.492  0.0565  0.0849  0.0985
  325loPI   C1B 5197   9.501  13.918  10.150 -0.0666  0.0476 -0.0191
  325loPI   C2B 5198   9.494  13.914   9.673  0.0170 -0.0462 -0.2190
  325loPI   C3B 5199   9.452  13.918   9.276  0.2338  0.0102  0.1466
  325loPI   C4B 5200   9.372  14.021   8.858  0.4755  0.1962 -0.0102
  326loPI    C1 5201  16.331   6.169  10.983  0.0359 -0.2067  0.2987
  326loPI    C2 5202  16.262   6.399  11.304 -0.1853 -0.0150  0.1175
  326loPI    C3 5203  16.577   6.474  11.068 -0.1192 -0.0503  0.1940
  326loPI   PO4 5204  16.115   6.085  10.885  0.0121 -0.0631  0.2760
  326loPI   GL1 5205  16.016   5.927  10.419  0.5168 -0.2473 -0.0330
  326loPI   GL2 5206  16.038   6.232  10.431  0.0544  0.1236  0.1319
  326loPI   C1A 5207  16.284   5.992  10.102 -0.1894  0.0720 -0.0004
  326loPI   C2A 5208  16.380   6.039   9.653 -0.2652 -0.2180 -0.0193
  326loPI   C3A 5209  16.345   5.990   9.283  0.3241 -0.0720 -0.1103
  326loPI   C4A 5210  16.464   6.011   8.835 -0.2355 -0.1241  0.3196
  326loPI   C5A 5211  16.489   6.192   8.384 -0.2820  0.0302 -0.0918
  326loPI   C6A 5212  16.519   6.155   7.952  0.0214 -0.0461  0.2761
  326loPI   C1B 5213  15.852   6.204  10.001  0.0924 -0.1461  0.1426
  326loPI   C2B 5214  15.858   6.174   9.537  0.1195  0.1363  0.4557
  326loPI   C3B 5215  15.960   6.224   9.079  0.2322  0.0954  0.0571
  326loPI   C4B 5216  15.803   6.241   8.707 -0.1148  0.3929 -0.0399
  327loPI    C1 5217   0.273   3.285  10.888  0.0604  0.1800 -0.1545
  327loPI    C2 5218   0.030   3.020  11.062  0.1241  0.1111 -0.1702
  327loPI    C3 5219   0.427   2.978  11.093  0.1345  0.1858 -0.2010
  327loPI   PO4 5220   0.233   3.300  10.693  0.0364 -0.1573  0.0020
  327loPI   GL1 5221   0.352   3.414  10.165 -0.1601 -0.0826  0.0384
  327loPI   GL2 5222   0.324   3.783  10.269  0.4597  0.2896  0.0842
  327loPI   C1A 5223   0.339   3.294   9.767 -0.0626 -0.0594 -0.2611
  327loPI   C2A 5224   0.309   3.324   9.319  0.0237 -0.1234  0.1434
  327loPI   C3A 5225   0.259   3.392   8.817 -0.3877  0.1969 -0.3056
  327loPI   C4A 5226   0.100   3.349   8.417 -0.0424  0.0762  0.1226
  327loPI   C5A 5227  -0.170   3.415   8.153  0.0487 -0.1985 -0.0226
  327loPI   C6A 5228  -0.554   3.466   8.105 -0.0582 -0.2904 -0.2412
  327loPI   C1B 5229   0.322   3.814   9.844  0.0652 -0.1292  0.0057
  327loPI   C2B 5230   0.180   3.780   9.472 -0.2033 -0.0761  0.1392
  327loPI   C3B 5231   0.148   3.803   9.078 -0.0060 -0.0525  0.0826
  327loPI   C4B 5232   0.146   3.829   8.525 -0.0418 -0.4390 -0.3805
  328loPI    C1 5233   4.831  10.443  10.743  0.0198 -0.1219  0.0337
  328loPI    C2 5234   4.583  10.663  10.967  0.0256 -0.0879  0.0067
  328loPI    C3 5235   4.905  10.493  11.133  0.0384 -0.0499  0.0210
  328loPI   PO4 5236   4.932  10.601  10.483  0.1541  0.2581  0.0217
  328loPI   GL1 5237   4.679  10.672  10.042 -0.2234  0.2873  0.0840
  328loPI   GL2 5238   5.003  10.825   9.938  0.0413 -0.0645 -0.0424
  328loPI   C1A 5239   4.481  10.478   9.699 -0.0748 -0.1973 -0.1272
  328loPI   C2A 5240   4.446  10.175   9.410  0.0603  0.0466 -0.2500
  328loPI   C3A 5241   4.503  10.140   8.971 -0.0588 -0.0185 -0.2104
  328loPI   C4A 5242   4.319  10.141   8.548  0.1211  0.3832 -0.1019
  328loPI   C5A 5243   3.867  10.395   8.385 -0.4652  0.2188  0.3839
  328loPI   C6A 5244   3.439  10.552   8.294 -0.0489  0.4067 -0.0235
  328loPI   C1B 5245   4.814  10.877   9.568  0.0499  0.1476 -0.1415
  328loPI   C2B 5246   4.710  10.770   9.133 -0.2140  0.3008 -0.4022
  328loPI   C3B 5247   4.486  10.675   8.745 -0.2319 -0.3401 -0.0716
  328loPI   C4B 5248   4.298  10.701   8.336 -0.0976 -0.0651  0.0366
  329loPI    C1 5249   4.374  13.450  10.644 -0.0895  0.1697 -0.0053
  329loPI    C2 5250   4.359  13.380  11.037 -0.2088  0.0603 -0.0283
  329loPI    C3 5251   4.706  13.344  10.841 -0.2262 -0.2781 -0.0030
  329loPI   PO4 5252   4.137  13.355  10.550  0.2043 -0.0964  0.2380
  329loPI   GL1 5253   4.044  13.184  10.238 -0.1387 -0.3185  0.0226
  329loPI   GL2 5254   3.823  13.423  10.162  0.1143 -0.2516  0.1529
  329loPI   C1A 5255   4.147  13.145   9.844 -0.5509  0.0113  0.0818
  329loPI   C2A 5256   4.239  13.152   9.353  0.2026 -0.3152  0.2391
  329loPI   C3A 5257   4.153  13.098   8.975 -0.2516  0.1425  0.0405
  329loPI   C4A 5258   4.112  13.238   8.474 -0.1007  0.2608 -0.2559
  329loPI   C5A 5259   4.064  13.229   8.033  0.1643  0.1757  0.0396
  329loPI   C6A 5260   3.932  13.059   7.603 -0.0432 -0.2961  0.3873
  329loPI   C1B 5261   3.724  13.483   9.704  0.1691  0.0063  0.1057
  329loPI   C2B 5262   3.826  13.430   9.225  0.0362 -0.2591  0.1341
  329loPI   C3B 5263   3.739  13.352   8.777 -0.0819  0.1033  0.2887
  329loPI   C4B 5264   3.606  13.027   8.496  0.0836  0.2755 -0.1215
  330loPI    C1 5265   7.598  14.238  10.621  0.0691  0.0182  0.1661
  330loPI    C2 5266   7.389  14.344  10.945 -0.1882  0.1562 -0.0415
  330loPI    C3 5267   7.281  14.022  10.734 -0.0518  0.0959 -0.0202
  330loPI   PO4 5268   7.708  14.441  10.496  0.0192 -0.1462 -0.2323
  330loPI   GL1 5269   7.765  14.602  10.154 -0.1496 -0.3160 -0.1816
  330loPI   GL2 5270   7.748  14.937  10.182  0.0182  0.0338  0.0709
  330loPI   C1A 5271   7.761  14.429   9.794 -0.1832 -0.0899  0.0153
  330loPI   C2A 5272   7.625  14.477   9.309  0.0574 -0.0383 -0.2813
  330loPI   C3A 5273   7.437  14.463   8.964  0.2588 -0.0218  0.1613
  330loPI   C4A 5274   7.339  14.472   8.449 -0.0959 -0.1306 -0.7635
  330loPI   C5A 5275   7.182  14.243   8.054  0.0153  0.2185  0.3405
  330loPI   C6A 5276   7.351  14.113   7.604  0.1410 -0.0099 -0.0764
  330loPI   C1B 5277   7.399  14.829   9.906 -0.1257 -0.0394 -0.0683
  330loPI   C2B 5278   7.222  14.698   9.588 -0.0709  0.3429 -0.0847
  330loPI   C3B 5279   7.048  14.740   9.273  0.4109 -0.0201  0.0178
  330loPI   C4B 5280   6.890  14.709   8.804 -0.2565 -0.0845  0.1400
  331loPI    C1 5281  13.657   9.589  11.433 -0.2463  0.0600  0.0990
  331loPI    C2 5282  13.710   9.428  11.796  0.0102  0.2038  0.1277
  331loPI    C3 5283  13.344   9.538  11.677 -0.1218 -0.1175  0.2247
  331loPI   PO4 5284  13.756   9.417  11.225 -0.2830  0.3710  0.2084
  331loPI   GL1 5285  13.977   9.585  10.886 -0.0585  0.1907 -0.4729
  331loPI   GL2 5286  14.023   9.955  10.663  0.2298 -0.2832  0.0497
  331loPI   C1A 5287  14.028   9.455  10.357 -0.1587 -0.2313 -0.3245
  331loPI   C2A 5288  14.112   9.335   9.952  0.0156 -0.0065 -0.1066
  331loPI   C3A 5289  14.067   9.332   9.473 -0.0003  0.3418  0.2144
  331loPI   C4A 5290  14.212   9.382   8.988  0.2120  0.2650 -0.1606
  331loPI   C5A 5291  14.083   9.604   8.532  0.1622 -0.0600 -0.1582
  331loPI   C6A 5292  13.652   9.728   8.262  0.0919 -0.1234  0.4495
  331loPI   C1B 5293  13.915  10.043  10.226  0.0816  0.0121  0.2642
  331loPI   C2B 5294  13.996   9.805   9.822 -0.1712 -0.2252 -0.2869
  331loPI   C3B 5295  14.049   9.914   9.382  0.0387 -0.0696 -0.2567
  331loPI   C4B 5296  14.002   9.842   9.002  0.1987  0.0435 -0.0315
  332loPI    C1 5297   4.646  12.347  10.918 -0.1105  0.0519  0.2633
  332loPI    C2 5298   4.925  12.404  11.199 -0.0700  0.1404  0.2054
  332loPI    C3 5299   4.554  12.541  11.256 -0.0716  0.1250  0.2321
  332loPI   PO4 5300   4.734  12.464  10.676 -0.3059 -0.0171  0.0164
  332loPI   GL1 5301   4.518  12.583  10.179 -0.2620 -0.0748  0.3379
  332loPI   GL2 5302   4.518  12.316   9.984  0.1337  0.1636  0.1529
  332loPI   C1A 5303   4.656  12.930   9.809  0.0038 -0.0302  0.1607
  332loPI   C2A 5304   4.681  13.242   9.526  0.1488  0.2422 -0.0085
  332loPI   C3A 5305   4.678  13.234   9.145  0.1477  0.0209  0.0732
  332loPI   C4A 5306   4.638  13.302   8.732  0.0848 -0.1271 -0.2789
  332loPI   C5A 5307   4.579  13.233   8.194 -0.2384 -0.4717 -0.1733
  332loPI   C6A 5308   4.557  13.369   7.813  0.2974 -0.1085  0.0397
  332loPI   C1B 5309   4.456  12.535   9.617  0.1690 -0.0987 -0.2055
  332loPI   C2B 5310   4.629  12.635   9.329  0.0504 -0.3784 -0.0263
  332loPI   C3B 5311   4.576  12.704   8.875 -0.1260  0.0753 -0.0502
  332loPI   C4B 5312   4.437  12.799   8.513 -0.2081 -0.2848 -0.1504
  333loPI    C1 5313  12.023  10.014  10.218 -0.0519 -0.1096 -0.1251
  333loPI    C2 5314  11.940   9.905  10.594  0.0971  0.0975 -0.0301
  333loPI    C3 5315  11.884   9.647  10.294  0.2145 -0.1553  0.1616
  333loPI   PO4 5316  11.891  10.317  10.208  0.3439  0.0462 -0.1009
  333loPI   GL1 5317  11.921  10.458   9.880 -0.0018 -0.2209  0.1846
  333loPI   GL2 5318  12.287  10.325   9.718 -0.1379  0.2615  0.2096
  333loPI   C1A 5319  11.848  10.495   9.439 -0.1133 -0.1536 -0.2161
  333loPI   C2A 5320  11.830  10.416   9.038 -0.3576  0.2455  0.1052
  333loPI   C3A 5321  12.029  10.221   8.705  0.1476 -0.2216 -0.3876
  333loPI   C4A 5322  12.291   9.802   8.531  0.1909  0.0011 -0.0664
  333loPI   C5A 5323  12.545   9.772   8.198 -0.1859  0.2252  0.2066
  333loPI   C6A 5324  12.411   9.991   7.786  0.0047 -0.0640  0.1023
  333loPI   C1B 5325  12.545  10.605   9.541 -0.0106 -0.3696 -0.2623
  333loPI   C2B 5326  12.824  10.758   9.379  0.1176  0.4795 -0.1775
  333loPI   C3B 5327  12.872  10.823   8.942  0.2575 -0.1559  0.0727
  333loPI   C4B 5328  12.880  10.705   8.447 -0.0486  0.1877 -0.3042
  334loPI    C1 5329   2.449   9.448  10.890 -0.1180 -0.4079  0.0900
  334loPI    C2 5330   2.658   9.612  11.189  0.1053  0.0201 -0.2887
  334loPI    C3 5331   2.261   9.657  11.174  0.0617 -0.2104  0.0660
  334loPI   PO4 5332   2.539   9.184  10.848 -0.1018 -0.0936 -0.3467
  334loPI   GL1 5333   2.434   8.855  10.601 -0.0049 -0.0279 -0.1297
  334loPI   GL2 5334   2.728   8.640  10.572 -0.1188  0.1096 -0.0084
  334loPI   C1A 5335   2.303   8.772  10.172  0.0540 -0.0984 -0.0771
  334loPI   C2A 5336   2.138   8.833   9.876  0.0434 -0.1596 -0.0272
  334loPI   C3A 5337   2.158   8.698   9.508 -0.1516  0.1276 -0.1059
  334loPI   C4A 5338   2.240   8.367   9.411  0.0244  0.5646  0.1690
  334loPI   C5A 5339   2.091   8.109   9.089 -0.1613 -0.2301  0.0146
  334loPI   C6A 5340   2.439   7.890   8.718  0.1395 -0.1893  0.0639
  334loPI   C1B 5341   2.683   8.491  10.146 -0.1010 -0.1552 -0.0071
  334loPI   C2B 5342   2.558   8.596   9.761 -0.0715  0.0416 -0.1433
  334loPI   C3B 5343   2.779   8.471   9.311 -0.4488  0.3616 -0.2334
  334loPI   C4B 5344   2.592   8.164   9.114 -0.0838 -0.1295  0.0554
  335loPI    C1 5345   1.487  15.008  10.979 -0.1665 -0.2080 -0.0871
  335loPI    C2 5346   1.155  15.139  11.160 -0.0566 -0.0104 -0.0246
  335loPI    C3 5347   1.496  15.107  11.367  0.0429  0.1083 -0.1689
  335loPI   PO4 5348   1.379  15.049  10.705  0.0527  0.0312 -0.0773
  335loPI   GL1 5349   1.339  15.250  10.369  0.1509 -0.3048  0.1628
  335loPI   GL2 5350   1.651  15.187  10.293 -0.1023  0.0725 -0.1310
  335loPI   C1A 5351   1.334  15.427   9.942  0.1604  0.1413 -0.2889
  335loPI   C2A 5352   1.451  15.480   9.526 -0.0390  0.1760 -0.1247
  335loPI   C3A 5353   1.445  15.396   9.058  0.2489 -0.0296 -0.0184
  335loPI   C4A 5354   1.691  15.426   8.686  0.1517  0.2871 -0.0559
  335loPI   C5A 5355   1.632  15.490   8.223 -0.0284  0.1554 -0.0037
  335loPI   C6A 5356   1.773  15.838   7.946 -0.2019 -0.0767 -0.0349
  335loPI   C1B 5357   1.735  15.171   9.851  0.0982 -0.1037 -0.1171
  335loPI   C2B 5358   1.756  15.089   9.411  0.2561 -0.1306 -0.1595
  335loPI   C3B 5359   1.780  15.007   8.957 -0.1035  0.0479 -0.2555
  335loPI   C4B 5360   1.741  15.030   8.447 -0.0581  0.0368 -0.0561
  336loPI    C1 5361   6.372   2.032  10.733 -0.2473 -0.0322 -0.1626
  336loPI    C2 5362   6.402   1.973  11.128 -0.0379  0.0029 -0.1721
  336loPI    C3 5363   6.190   2.281  10.987  0.1442  0.1744 -0.0759
  336loPI   PO4 5364   6.427   1.757  10.648 -0.1135  0.1598  0.3329
  336loPI   GL1 5365   6.507   1.676  10.230 -0.0465 -0.1240  0.1137
  336loPI   GL2 5366   6.881   1.575  10.252 -0.3295 -0.2124 -0.3617
  336loPI   C1A 5367   6.476   1.563   9.813 -0.0771  0.0228 -0.0190
  336loPI   C2A 5368   6.391   1.631   9.397  0.0988 -0.0514  0.0302
  336loPI   C3A 5369   6.280   1.576   9.059  0.1659  0.3490  0.3443
  336loPI   C4A 5370   6.269   1.435   8.764  0.0401  0.2546 -0.1429
  336loPI   C5A 5371   6.202   1.577   8.405  0.2330  0.2389 -0.1252
  336loPI   C6A 5372   6.101   1.648   7.952 -0.1221  0.2852 -0.1567
  336loPI   C1B 5373   6.961   1.641   9.861  0.0949  0.1399 -0.2037
  336loPI   C2B 5374   6.874   1.705   9.433  0.0187  0.1486  0.0722
  336loPI   C3B 5375   6.790   1.867   9.107 -0.0398 -0.0979 -0.2281
  336loPI   C4B 5376   6.619   1.769   8.718  0.1474  0.0830 -0.0464
  337loPI    C1 5377  11.447   2.346  10.898 -0.0224  0.0279  0.2012
  337loPI    C2 5378  11.658   2.010  10.948 -0.0368  0.0090  0.1352
  337loPI    C3 5379  11.519   2.207  11.267  0.0832  0.0234  0.1792
  337loPI   PO4 5380  11.211   2.218  10.681  0.0042 -0.0551  0.2592
  337loPI   GL1 5381  11.179   2.272  10.315  0.1276  0.3274 -0.0719
  337loPI   GL2 5382  11.031   2.051  10.086  0.0699  0.0664  0.1379
  337loPI   C1A 5383  11.297   2.610   9.974 -0.2794 -0.1045 -0.0483
  337loPI   C2A 5384  11.193   2.876   9.626  0.0134 -0.2385 -0.1569
  337loPI   C3A 5385  11.034   3.111   9.236  0.4284  0.2337 -0.2150
  337loPI   C4A 5386  10.816   3.372   8.859  0.2142  0.0575  0.3310
  337loPI   C5A 5387  10.900   3.621   8.554  0.1407 -0.0442 -0.2915
  337loPI   C6A 5388  10.915   3.455   8.114  0.0989 -0.0614 -0.1425
  337loPI   C1B 5389  10.844   1.974   9.779 -0.1727  0.1259 -0.0002
  337loPI   C2B 5390  10.739   1.909   9.352  0.0761 -0.1829  0.0548
  337loPI   C3B 5391  10.443   2.161   9.094 -0.4058 -0.1328 -0.1589
  337loPI   C4B 5392  10.339   2.532   8.970 -0.1909  0.1283  0.1220
  338loPI    C1 5393  16.898  10.959  11.633 -0.1710  0.0961 -0.1072
  338loPI    C2 5394  17.025  11.338  11.618  0.2983 -0.0529 -0.0777
  338loPI    C3 5395  17.021  11.142  11.966  0.0784 -0.0852 -0.0966
  338loPI   PO4 5396  16.925  10.985  11.271 -0.2536  0.1453 -0.0907
  338loPI   GL1 5397  16.859  11.001  10.771  0.1268 -0.0587  0.1142
  338loPI   GL2 5398  16.942  10.703  10.821  0.2630  0.0657 -0.0148
  338loPI   C1A 5399  16.994  11.067  10.383  0.0951  0.4307  0.0188
  338loPI   C2A 5400  16.991  11.113   9.881 -0.0056  0.0706 -0.1657
  338loPI   C3A 5401  17.035  11.243   9.494 -0.2484 -0.1035 -0.1964
  338loPI   C4A 5402  17.074  11.246   9.043  0.3591 -0.5506  0.0109
  338loPI   C5A 5403  17.017  11.107   8.630  0.0028 -0.0492 -0.1904
  338loPI   C6A 5404  17.155  11.356   8.288 -0.3059 -0.1260  0.2308
  338loPI   C1B 5405  17.161  10.562  10.356  0.2141  0.1209 -0.3386
  338loPI   C2B 5406  17.011  10.560   9.949 -0.0468 -0.2189 -0.1594
  338loPI   C3B 5407  16.899  10.697   9.510  0.0567 -0.0580 -0.1353
  338loPI   C4B 5408  16.918  10.712   9.064 -0.0963 -0.1166  0.0257
  339loPI    C1 5409   0.583   8.722  11.252 -0.0921  0.2588  0.1178
  339loPI    C2 5410   0.555   8.849  11.631  0.1117  0.0815  0.1942
  339loPI    C3 5411   0.574   8.457  11.552 -0.1660  0.1074 -0.0169
  339loPI   PO4 5412   0.499   8.923  11.138 -0.1248  0.0076 -0.2492
  339loPI   GL1 5413   0.578   8.815  10.730 -0.2353 -0.0511  0.0036
  339loPI   GL2 5414   0.629   8.581  10.734  0.0231  0.1612 -0.0087
  339loPI   C1A 5415   0.412   9.008  10.399  0.0071  0.2801  0.1079
  339loPI   C2A 5416   0.405   8.965   9.943 -0.2680  0.0310  0.0150
  339loPI   C3A 5417   0.312   8.971   9.587  0.1739  0.0132 -0.3550
  339loPI   C4A 5418   0.370   9.217   9.249 -0.0000  0.0885  0.0001
  339loPI   C5A 5419   0.553   9.164   8.793 -0.1342  0.0409  0.2827
  339loPI   C6A 5420   0.658   9.055   8.308  0.1528  0.4665 -0.1194
  339loPI   C1B 5421   0.830   8.666  10.331  0.0373  0.5171 -0.3418
  339loPI   C2B 5422   0.852   8.733   9.968  0.0626 -0.1963 -0.0429
  339loPI   C3B 5423   0.803   8.915   9.595  0.1039 -0.0268 -0.2117
  339loPI   C4B 5424   0.793   8.936   9.180  0.0772  0.1747  0.0236
  340loPI    C1 5425  14.217  16.029  11.023 -0.0152 -0.1704 -0.1169
  340loPI    C2 5426  14.242  15.660  11.176  0.0199 -0.0158  0.2613
  340loPI    C3 5427  14.326  15.977  11.405 -0.1499  0.2361 -0.0185
  340loPI   PO4 5428  14.214  15.909  10.736  0.0376  0.3380  0.0910
  340loPI   GL1 5429  14.295  15.937  10.343 -0.3038 -0.1813  0.3786
  340loPI   GL2 5430  14.237  16.281  10.342  0.0046  0.1618 -0.0202
  340loPI   C1A 5431  14.333  15.650   9.989 -0.1567 -0.0055 -0.0775
  340loPI   C2A 5432  14.345  15.506   9.592  0.1093  0.0824 -0.1738
  340loPI   C3A 5433  14.285  15.510   9.211 -0.1568  0.0836 -0.0606
  340loPI   C4A 5434  14.308  15.558   8.740  0.4302 -0.2553 -0.0667
  340loPI   C5A 5435  14.221  15.836   8.408 -0.0965 -0.4374 -0.3054
  340loPI   C6A 5436  14.300  16.135   8.089 -0.0220  0.0469  0.1281
  340loPI   C1B 5437  14.385  16.210   9.937 -0.0737 -0.0490  0.1776
  340loPI   C2B 5438  14.331  16.089   9.542  0.1657 -0.3417  0.0684
  340loPI   C3B 5439  14.395  16.054   9.200 -0.4227 -0.0134  0.5655
  340loPI   C4B 5440  14.391  16.031   8.824 -0.0282  0.1033  0.0045
  341loPI    C1 5441  16.292   3.013  10.495  0.0927 -0.1052  0.1430
  341loPI    C2 5442  16.310   3.335  10.258 -0.0703 -0.0328  0.2279
  341loPI    C3 5443  16.224   3.377  10.647 -0.5028 -0.2133  0.1575
  341loPI   PO4 5444  16.336   2.771  10.285 -0.1790  0.0232  0.4682
  341loPI   GL1 5445  16.133   2.583   9.987 -0.1996 -0.1877 -0.1279
  341loPI   GL2 5446  16.476   2.427   9.935  0.1436 -0.0300 -0.0774
  341loPI   C1A 5447  16.036   2.426   9.548 -0.1666  0.1102 -0.0437
  341loPI   C2A 5448  16.145   2.365   9.155  0.1187  0.0630  0.3355
  341loPI   C3A 5449  16.219   2.398   8.701  0.0668  0.0608  0.0415
  341loPI   C4A 5450  16.306   2.535   8.292  0.0868  0.0085  0.1789
  341loPI   C5A 5451  16.111   2.730   7.958  0.2192 -0.3154 -0.1488
  341loPI   C6A 5452  16.315   2.947   7.589 -0.2730  0.1066 -0.3212
  341loPI   C1B 5453  16.426   2.686   9.582 -0.2638 -0.1818  0.1344
  341loPI   C2B 5454  16.474   2.718   9.135 -0.0878 -0.0958  0.1141
  341loPI   C3B 5455  16.546   2.806   8.737 -0.0678  0.1283 -0.2097
  341loPI   C4B 5456  16.794   2.693   8.423 -0.1578  0.0522  0.3974
  342loPI    C1 5457   3.294  17.296  10.411  0.0682  0.1588  0.1887
  342loPI    C2 5458   3.063  17.350  10.733 -0.3140  0.0175 -0.0553
  342loPI    C3 5459   3.061  16.999  10.542  0.3247 -0.0844  0.1024
  342loPI   PO4 5460   3.480  17.426  10.412 -0.1223  0.0904 -0.1381
  342loPI   GL1 5461   3.702  17.386   9.936  0.1951 -0.1316  0.0042
  342loPI   GL2 5462   3.957  17.422  10.034 -0.0926 -0.3024  0.2392
  342loPI   C1A 5463   3.754  17.211   9.541  0.3471 -0.0632  0.1436
  342loPI   C2A 5464   3.696  17.156   9.090 -0.1241 -0.0503  0.2005
  342loPI   C3A 5465   3.732  17.204   8.663 -0.1322  0.3151 -0.3038
  342loPI   C4A 5466   3.623  17.138   8.161  0.0636 -0.0631  0.1528
  342loPI   C5A 5467   3.689  17.079   7.696 -0.2242 -0.0905 -0.0782
  342loPI   C6A 5468   3.966  16.835   7.604  0.2240  0.0058  0.0297
  342loPI   C1B 5469   4.124  17.507   9.618 -0.0311  0.1168 -0.0213
  342loPI   C2B 5470   4.312  17.489   9.274  0.1990  0.2346 -0.1221
  342loPI   C3B 5471   4.218  17.392   8.792  0.0165  0.1619 -0.2859
  342loPI   C4B 5472   4.230  17.439   8.335  0.0918 -0.0785  0.0270
  343loPI    C1 5473   6.998   8.931  10.620 -0.0596 -0.0999  0.0548
  343loPI    C2 5474   7.068   9.314  10.532 -0.0643 -0.1287 -0.0762
  343loPI    C3 5475   7.000   9.206  10.911 -0.3302  0.0412 -0.0727
  343loPI   PO4 5476   7.081   8.802  10.407 -0.1416  0.0252 -0.0338
  343loPI   GL1 5477   7.002   8.848   9.993  0.1248  0.0019  0.0355
  343loPI   GL2 5478   7.058   9.139  10.031  0.1124  0.1328 -0.0276
  343loPI   C1A 5479   7.023   8.818   9.489  0.0810 -0.0621  0.4618
  343loPI   C2A 5480   7.193   8.869   9.019 -0.0493  0.1504  0.0634
  343loPI   C3A 5481   7.364   8.848   8.554  0.1894  0.1591 -0.1122
  343loPI   C4A 5482   7.654   8.613   8.187 -0.1348 -0.1774 -0.0539
  343loPI   C5A 5483   7.327   8.589   7.906 -0.3831 -0.0964  0.1001
  343loPI   C6A 5484   7.044   8.400   7.595  0.0547 -0.0235 -0.0186
  343loPI   C1B 5485   7.118   9.258   9.647  0.3395 -0.0376 -0.2426
  343loPI   C2B 5486   6.952   9.314   9.248  0.0307 -0.1281  0.0706
  343loPI   C3B 5487   7.044   9.292   8.790  0.1338 -0.0072 -0.1509
  343loPI   C4B 5488   7.133   9.446   8.497 -0.1524  0.1904 -0.1371
  344loPI    C1 5489  17.963   2.836  10.920  0.2584 -0.0093  0.0618
  344loPI    C2 5490  17.893   3.094  11.218 -0.0642 -0.1596  0.1204
  344loPI    C3 5491  17.951   2.706  11.298 -0.1414 -0.1990 -0.0102
  344loPI   PO4 5492  17.798   2.875  10.759  0.2001 -0.1659 -0.0849
  344loPI   GL1 5493  17.760   3.033  10.360  0.2257 -0.3294 -0.0950
  344loPI   GL2 5494  17.562   3.372  10.218 -0.2759  0.0062 -0.1250
  344loPI   C1A 5495  17.769   3.026   9.863 -0.0778  0.0763  0.2090
  344loPI   C2A 5496  17.761   3.148   9.482 -0.4408 -0.2394  0.2461
  344loPI   C3A 5497  17.745   3.167   9.021  0.1999 -0.1194  0.3520
  344loPI   C4A 5498  17.411   3.013   8.772 -0.0986 -0.1942 -0.1662
  344loPI   C5A 5499  17.223   2.952   8.450  0.2460  0.1700 -0.2067
  344loPI   C6A 5500  17.208   2.809   8.055  0.2886 -0.1082 -0.0563
  344loPI   C1B 5501  17.677   3.597   9.831  0.0993  0.0572 -0.0261
  344loPI   C2B 5502  17.613   3.612   9.413 -0.0433  0.2291 -0.4642
  344loPI   C3B 5503  17.616   3.678   8.946  0.2537  0.1836 -0.1094
  344loPI   C4B 5504  17.679   3.712   8.513 -0.1112 -0.1673 -0.1480
  345loPI    C1 5505   1.842   7.026  10.920 -0.2581  0.0376 -0.0782
  345loPI    C2 5506   2.153   6.878  11.123 -0.2126 -0.0560 -0.2143
  345loPI    C3 5507   1.809   6.955  11.312 -0.0791  0.1363 -0.0442
  345loPI   PO4 5508   1.860   7.031  10.722  0.2187  0.1294  0.1928
  345loPI   GL1 5509   1.774   7.239  10.287 -0.3523  0.0733  0.0080
  345loPI   GL2 5510   1.902   6.930  10.224 -0.0902  0.0113  0.1819
  345loPI   C1A 5511   1.726   7.408   9.925  0.2111 -0.0792 -0.0376
  345loPI   C2A 5512   1.909   7.266   9.582  0.0467 -0.1129  0.0911
  345loPI   C3A 5513   1.878   7.221   9.193 -0.0575 -0.1325 -0.0604
  345loPI   C4A 5514   1.952   7.075   8.744  0.0240 -0.1227  0.1695
  345loPI   C5A 5515   1.947   6.709   8.416  0.0365 -0.3048  0.1658
  345loPI   C6A 5516   2.217   6.317   8.363  0.0603  0.1548  0.0568
  345loPI   C1B 5517   1.970   6.798   9.857 -0.3038 -0.0296 -0.0411
  345loPI   C2B 5518   2.048   6.805   9.441 -0.0077  0.0168  0.4067
  345loPI   C3B 5519   2.130   6.621   9.090  0.2487 -0.0082 -0.1468
  345loPI   C4B 5520   1.995   6.387   8.800 -0.0390 -0.0563 -0.0505
  346loPI    C1 5521   9.901   4.545  10.609 -0.0028  0.2987  0.0080
  346loPI    C2 5522   9.715   4.872  10.744 -0.1019  0.1460  0.2495
  346loPI    C3 5523   9.731   4.544  10.972 -0.1592 -0.0771 -0.0612
  346loPI   PO4 5524   9.798   4.519  10.350 -0.0029  0.1451 -0.1519
  346loPI   GL1 5525   9.722   4.322  10.027  0.2848 -0.0371  0.0846
  346loPI   GL2 5526   9.589   3.977  10.096  0.0822 -0.1596 -0.4188
  346loPI   C1A 5527   9.780   4.380   9.553  0.1989 -0.0144 -0.1304
  346loPI   C2A 5528   9.789   4.382   9.132 -0.0795  0.3901  0.1028
  346loPI   C3A 5529   9.756   4.312   8.737 -0.3277 -0.2606 -0.2615
  346loPI   C4A 5530   9.689   4.156   8.363 -0.2883 -0.0201 -0.0017
  346loPI   C5A 5531   9.710   3.772   8.173 -0.0652 -0.0797  0.1286
  346loPI   C6A 5532   9.549   3.306   8.257 -0.4107 -0.0910 -0.0228
  346loPI   C1B 5533   9.492   3.913   9.732 -0.1628 -0.1327 -0.1935
  346loPI   C2B 5534   9.461   4.038   9.297 -0.0418  0.1621 -0.1449
  346loPI   C3B 5535   9.535   3.831   8.903  0.1169  0.0585  0.3952
  346loPI   C4B 5536   9.452   3.687   8.597  0.0567  0.2108 -0.0730
  347loPI    C1 5537  12.556  17.313  10.929 -0.1346 -0.0775 -0.0015
  347loPI    C2 5538  12.816  17.121  11.164 -0.1694 -0.0654  0.0469
  347loPI    C3 5539  12.454  17.218  11.304 -0.1721 -0.0138  0.0045
  347loPI   PO4 5540  12.603  17.225  10.680  0.1087  0.2600 -0.0166
  347loPI   GL1 5541  12.528  17.324  10.309  0.0248 -0.0219  0.1989
  347loPI   GL2 5542  12.613  17.152  10.067 -0.0678 -0.1401 -0.0439
  347loPI   C1A 5543  12.101  17.370  10.050 -0.1107 -0.2850  0.0821
  347loPI   C2A 5544  11.950  17.176   9.685  0.1582 -0.0433 -0.3251
  347loPI   C3A 5545  11.984  17.097   9.327 -0.2269 -0.1147  0.0605
  347loPI   C4A 5546  11.790  16.990   8.930 -0.0748 -0.2888  0.0563
  347loPI   C5A 5547  11.652  16.986   8.484  0.0905  0.2729 -0.2089
  347loPI   C6A 5548  11.285  16.695   8.376  0.0680  0.0198 -0.0924
  347loPI   C1B 5549  12.605  17.151   9.645  0.0139 -0.1900 -0.1227
  347loPI   C2B 5550  12.689  16.885   9.286  0.1516 -0.0160  0.0729
  347loPI   C3B 5551  12.761  16.885   8.915 -0.1754  0.0238 -0.0426
  347loPI   C4B 5552  12.591  17.040   8.540  0.1523 -0.2204  0.0621
  348loPI    C1 5553   4.203  17.847  10.482  0.0610 -0.1072  0.0167
  348loPI    C2 5554   3.955  17.558  10.605  0.0167 -0.0309  0.1075
  348loPI    C3 5555   4.236  17.700  10.852 -0.1143  0.1675  0.1450
  348loPI   PO4 5556   4.207  17.837  10.260 -0.0693  0.2580  0.3204
  348loPI   GL1 5557   4.030  17.947   9.892 -0.0412 -0.1893  0.0884
  348loPI   GL2 5558   4.298  18.086   9.800 -0.2077 -0.2643  0.1075
  348loPI   C1A 5559   3.799  17.875   9.459 -0.2750  0.0254 -0.0394
  348loPI   C2A 5560   3.803  17.681   9.090 -0.0696 -0.2191  0.2110
  348loPI   C3A 5561   3.853  17.666   8.682 -0.0536 -0.0512 -0.2096
  348loPI   C4A 5562   3.789  17.622   8.154  0.3431 -0.1832  0.3885
  348loPI   C5A 5563   3.701  17.698   7.787 -0.3722  0.2079  0.1943
  348loPI   C6A 5564   3.568  17.682   7.435  0.0330  0.0895 -0.0394
  348loPI   C1B 5565   4.322  18.005   9.428  0.0996  0.4992 -0.2144
  348loPI   C2B 5566   4.344  17.986   9.007  0.0612  0.0749 -0.2024
  348loPI   C3B 5567   4.295  17.875   8.643  0.1333 -0.0842  0.0596
  348loPI   C4B 5568   4.051  18.026   8.267  0.2383 -0.1100  0.3560
  349loPI    C1 5569   4.527  10.195  10.486 -0.1491  0.1922  0.0845
  349loPI    C2 5570   4.269  10.290  10.776 -0.0917 -0.2081  0.2748
  349loPI    C3 5571   4.309   9.909  10.662  0.0210 -0.0783 -0.1357
  349loPI   PO4 5572   4.452  10.327  10.333  0.0511 -0.0151 -0.1158
  349loPI   GL1 5573   4.145  10.668  10.099 -0.0658 -0.3806  0.2256
  349loPI   GL2 5574   3.868  10.738  10.139 -0.0911  0.1895 -0.0483
  349loPI   C1A 5575   3.925  10.548   9.722 -0.1925 -0.0798  0.3312
  349loPI   C2A 5576   3.578  10.407   9.526 -0.0927 -0.0905  0.1049
  349loPI   C3A 5577   3.227  10.309   9.213  0.0210 -0.0453  0.0358
  349loPI   C4A 5578   3.168  10.471   8.729  0.1151  0.0657 -0.3309
  349loPI   C5A 5579   2.855  10.575   8.365 -0.1557  0.0695  0.1605
  349loPI   C6A 5580   2.452  10.646   8.301 -0.3003  0.2625  0.1852
  349loPI   C1B 5581   3.862  11.028   9.787 -0.0357  0.1290 -0.3947
  349loPI   C2B 5582   4.058  11.383   9.422 -0.1915 -0.0650 -0.2054
  349loPI   C3B 5583   3.819  11.633   9.207  0.2568  0.1758  0.0609
  349loPI   C4B 5584   3.488  11.947   9.109 -0.1544 -0.1210 -0.0589
  350loPI    C1 5585  11.896  13.384  11.206 -0.0146 -0.0565  0.2216
  350loPI    C2 5586  11.660  13.386  11.528 -0.2930 -0.0309  0.0213
  350loPI    C3 5587  11.701  13.717  11.308 -0.1225 -0.0548  0.0155
  350loPI   PO4 5588  11.783  13.150  11.068  0.1666 -0.0683  0.0756
  350loPI   GL1 5589  11.719  13.067  10.713  0.2239  0.0318  0.1055
  350loPI   GL2 5590  11.449  13.030  10.619  0.0372 -0.0731  0.2153
  350loPI   C1A 5591  11.899  12.779  10.259 -0.0802  0.1283 -0.0610
  350loPI   C2A 5592  11.975  12.852   9.853 -0.0343  0.1649  0.2455
  350loPI   C3A 5593  11.993  12.895   9.367 -0.0464 -0.0835  0.1386
  350loPI   C4A 5594  11.914  12.902   8.986 -0.1842 -0.3199 -0.3456
  350loPI   C5A 5595  11.843  12.951   8.617 -0.0866  0.1019 -0.2434
  350loPI   C6A 5596  11.610  13.258   8.385  0.1657 -0.0998  0.1437
  350loPI   C1B 5597  11.431  13.062  10.142 -0.1480 -0.0004  0.0432
  350loPI   C2B 5598  11.659  13.181   9.626  0.2069  0.0662  0.0611
  350loPI   C3B 5599  11.563  13.278   9.237  0.0234 -0.1912 -0.0552
  350loPI   C4B 5600  11.486  13.117   8.895  0.1338 -0.1255  0.2090
  351loPI    C1 5601  15.111  16.210  10.849 -0.0469  0.2480  0.2132
  351loPI    C2 5602  15.192  16.399  10.505 -0.3379  0.1871  0.1084
  351loPI    C3 5603  15.377  16.509  10.842  0.1040  0.1118 -0.1026
  351loPI   PO4 5604  15.142  15.925  10.785 -0.1232 -0.0453  0.0688
  351loPI   GL1 5605  15.273  15.646  10.478  0.0963 -0.3786  0.0615
  351loPI   GL2 5606  15.161  15.482  10.245 -0.2815  0.1354  0.2360
  351loPI   C1A 5607  15.257  15.953  10.184  0.0440  0.2565 -0.0828
  351loPI   C2A 5608  15.273  15.926   9.782 -0.0086  0.0045  0.3211
  351loPI   C3A 5609  15.246  15.884   9.367  0.0963  0.0359  0.2913
  351loPI   C4A 5610  15.271  15.820   9.053 -0.1988  0.0770  0.0610
  351loPI   C5A 5611  15.327  15.877   8.605 -0.0144  0.1218 -0.0632
  351loPI   C6A 5612  15.073  15.940   8.262 -0.2800  0.1684  0.0941
  351loPI   C1B 5613  15.177  15.431   9.807  0.0563 -0.0716  0.2877
  351loPI   C2B 5614  15.113  15.377   9.349  0.5026 -0.0834 -0.1629
  351loPI   C3B 5615  15.140  15.372   8.818  0.0397  0.2306 -0.1228
  351loPI   C4B 5616  15.225  15.243   8.362  0.0910 -0.1430 -0.1044
  352loPI    C1 5617   7.773   2.966  10.515 -0.0879  0.1999  0.0219
  352loPI    C2 5618   7.740   2.587  10.390  0.1939  0.1732  0.0205
  352loPI    C3 5619   7.545   2.707  10.718 -0.1462  0.1117 -0.1538
  352loPI   PO4 5620   7.826   3.077  10.335  0.1563  0.0989 -0.1719
  352loPI   GL1 5621   7.668   2.940  10.016  0.1462  0.1375 -0.0276
  352loPI   GL2 5622   7.350   2.884  10.045  0.1198 -0.1179  0.1206
  352loPI   C1A 5623   7.684   2.889   9.595  0.2532  0.1321  0.1904
  352loPI   C2A 5624   7.834   2.880   9.158 -0.2632  0.2336  0.1437
  352loPI   C3A 5625   7.778   2.964   8.779 -0.0876  0.0383 -0.1601
  352loPI   C4A 5626   7.728   3.025   8.349 -0.0255  0.1379  0.0986
  352loPI   C5A 5627   7.836   2.903   7.956  0.1605  0.0872 -0.1668
  352loPI   C6A 5628   8.058   2.702   7.621 -0.0612 -0.0933 -0.2185
  352loPI   C1B 5629   7.297   3.190   9.796  0.0505  0.0267  0.1262
  352loPI   C2B 5630   7.529   3.379   9.431  0.1092  0.3811 -0.2223
  352loPI   C3B 5631   7.575   3.433   8.946  0.0021 -0.0857  0.0727
  352loPI   C4B 5632   7.523   3.518   8.464 -0.2116  0.2177 -0.2170
  353loPI    C1 5633   9.806   2.822  10.519 -0.0412  0.0951  0.1140
  353loPI    C2 5634   9.742   2.786  10.912  0.2353  0.2087  0.1717
  353loPI    C3 5635  10.110   2.732  10.764  0.1261  0.1339 -0.0767
  353loPI   PO4 5636   9.616   2.760  10.375  0.2037  0.0948  0.0877
  353loPI   GL1 5637   9.405   2.759  10.071 -0.1216 -0.0132 -0.4298
  353loPI   GL2 5638   9.315   2.997   9.891  0.0992 -0.0508  0.0370
  353loPI   C1A 5639   9.537   2.637   9.687  0.1948  0.0376  0.1273
  353loPI   C2A 5640   9.576   2.461   9.368  0.0461  0.0636 -0.0712
  353loPI   C3A 5641   9.655   2.470   8.850 -0.1360  0.0832 -0.0539
  353loPI   C4A 5642   9.730   2.344   8.427  0.1456 -0.0928  0.1186
  353loPI   C5A 5643   9.875   2.109   8.004  0.0298  0.2512 -0.1035
  353loPI   C6A 5644   9.878   1.997   7.521  0.1050 -0.2937 -0.2640
  353loPI   C1B 5645   9.358   3.039   9.422 -0.1899  0.0371 -0.2816
  353loPI   C2B 5646   9.358   2.913   9.026 -0.0753 -0.1652 -0.1844
  353loPI   C3B 5647   9.544   2.905   8.689  0.0280 -0.1881 -0.0851
  353loPI   C4B 5648   9.692   2.803   8.309 -0.1448  0.1453  0.1590
  354loPI    C1 5649  10.250   4.131  10.190  0.0321  0.1575 -0.1388
  354loPI    C2 5650  10.375   4.313  10.524  0.2539  0.0860 -0.1815
  354loPI    C3 5651  10.322   4.524  10.188  0.1096  0.1435 -0.1230
  354loPI   PO4 5652  10.069   3.999  10.273  0.3338 -0.3497 -0.0403
  354loPI   GL1 5653   9.955   3.688   9.921  0.0816 -0.1599  0.0057
  354loPI   GL2 5654  10.015   3.965   9.757 -0.0600  0.0899  0.1424
  354loPI   C1A 5655  10.280   3.476   9.504  0.1919  0.0999  0.1457
  354loPI   C2A 5656  10.296   3.402   9.140 -0.2424 -0.0747  0.1473
  354loPI   C3A 5657  10.331   3.423   8.725  0.2774 -0.0582 -0.0584
  354loPI   C4A 5658  10.538   3.239   8.378 -0.3341  0.1128  0.1251
  354loPI   C5A 5659  10.501   3.153   7.952 -0.1208 -0.2053  0.2707
  354loPI   C6A 5660  10.812   2.933   7.868  0.0728  0.1963  0.0210
  354loPI   C1B 5661   9.935   3.815   9.389 -0.1855 -0.0179  0.0535
  354loPI   C2B 5662  10.051   3.865   9.016  0.0537 -0.1984  0.2080
  354loPI   C3B 5663   9.988   3.901   8.619  0.3289  0.3389 -0.0517
  354loPI   C4B 5664  10.202   3.639   8.258 -0.0446  0.2011  0.1702
  355loPI    C1 5665  13.069   4.560  11.011  0.0543 -0.0331 -0.0051
  355loPI    C2 5666  12.803   4.273  11.099 -0.1352  0.0838 -0.1883
  355loPI    C3 5667  12.731   4.652  11.204  0.1216  0.0658  0.0665
  355loPI   PO4 5668  13.155   4.425  10.765 -0.1056  0.2656 -0.0816
  355loPI   GL1 5669  13.286   4.173  10.371  0.1074 -0.0480  0.2698
  355loPI   GL2 5670  13.118   3.953  10.139  0.0542  0.1753  0.1239
  355loPI   C1A 5671  13.468   4.363   9.985  0.3500 -0.0308 -0.2231
  355loPI   C2A 5672  13.459   4.307   9.507 -0.2740 -0.0948  0.0781
  355loPI   C3A 5673  13.481   4.355   9.055 -0.1904  0.2782 -0.0326
  355loPI   C4A 5674  13.545   4.324   8.639  0.1577  0.1588 -0.1056
  355loPI   C5A 5675  13.344   4.620   8.351 -0.0133 -0.1447 -0.1940
  355loPI   C6A 5676  13.214   4.955   8.282  0.1591 -0.3057 -0.1053
  355loPI   C1B 5677  12.985   4.225   9.740  0.1273 -0.0268 -0.0386
  355loPI   C2B 5678  12.972   4.374   9.333  0.0845  0.1485 -0.3656
  355loPI   C3B 5679  12.975   4.512   8.922  0.0548 -0.1200 -0.0389
  355loPI   C4B 5680  12.787   4.704   8.527 -0.0058  0.3629 -0.2247
  356loPI    C1 5681   5.923  11.275  10.873 -0.1171 -0.0898 -0.0375
  356loPI    C2 5682   6.207  11.222  11.150  0.0246 -0.0050 -0.1652
  356loPI    C3 5683   5.852  11.042  11.191  0.0307  0.0369  0.0903
  356loPI   PO4 5684   5.972  11.579  10.774  0.0517 -0.0431 -0.1705
  356loPI   GL1 5685   6.015  11.791  10.435 -0.1915  0.0240  0.2205
  356loPI   GL2 5686   6.052  11.588  10.214 -0.2702  0.0087 -0.3709
  356loPI   C1A 5687   6.209  11.997  10.059 -0.2374 -0.2016  0.1887
  356loPI   C2A 5688   6.300  12.050   9.548  0.0068  0.0624 -0.1134
  356loPI   C3A 5689   6.278  11.940   9.186 -0.1538 -0.2210 -0.0425
  356loPI   C4A 5690   6.212  11.974   8.745  0.4475 -0.3243 -0.0669
  356loPI   C5A 5691   6.152  11.978   8.253  0.1045  0.3829  0.0707
  356loPI   C6A 5692   5.937  11.986   7.974  0.3689 -0.0668  0.0800
  356loPI   C1B 5693   6.140  11.550   9.805  0.1444 -0.1647  0.0871
  356loPI   C2B 5694   6.108  11.451   9.406 -0.0760 -0.2082 -0.0087
  356loPI   C3B 5695   6.107  11.526   8.957  0.0674 -0.0314 -0.2098
  356loPI   C4B 5696   6.154  11.471   8.565  0.2288  0.0507  0.0755
  357loPI    C1 5697   8.433  13.806  11.049 -0.0329 -0.2894  0.1543
  357loPI    C2 5698   8.349  14.150  11.236  0.1181  0.0101 -0.3122
  357loPI    C3 5699   8.707  13.978  11.284  0.0139 -0.1303 -0.0149
  357loPI   PO4 5700   8.431  13.736  10.798  0.0482  0.0357 -0.0177
  357loPI   GL1 5701   8.293  13.678  10.418  0.0088  0.3629 -0.0832
  357loPI   GL2 5702   8.367  13.979  10.260  0.1260  0.1738 -0.2999
  357loPI   C1A 5703   8.038  13.539  10.027 -0.2782 -0.2266  0.2401
  357loPI   C2A 5704   7.995  13.519   9.616 -0.0402 -0.0781 -0.3352
  357loPI   C3A 5705   7.878  13.576   9.145 -0.1817 -0.0214 -0.0665
  357loPI   C4A 5706   7.926  13.765   8.765  0.1321  0.2380 -0.0479
  357loPI   C5A 5707   8.333  13.706   8.334  0.1147  0.0488 -0.0191
  357loPI   C6A 5708   8.709  13.869   8.215  0.0953 -0.0328  0.1479
  357loPI   C1B 5709   8.617  14.082  10.009  0.0113  0.0955  0.1562
  357loPI   C2B 5710   8.655  14.119   9.566 -0.1694 -0.1233 -0.1005
  357loPI   C3B 5711   8.502  14.098   9.063 -0.0125  0.0385  0.0818
  357loPI   C4B 5712   8.368  14.138   8.590  0.0406 -0.1258 -0.0863
  358loPI    C1 5713   5.948   6.186  10.853 -0.3582  0.0698 -0.2685
  358loPI    C2 5714   5.686   6.278  11.141 -0.2032  0.1049 -0.1376
  358loPI    C3 5715   5.956   5.989  11.201  0.0796  0.3715 -0.0994
  358loPI   PO4 5716   5.841   6.274  10.680 -0.0046  0.0038  0.0139
  358loPI   GL1 5717   5.644   6.341  10.229 -0.0439  0.0162 -0.2191
  358loPI   GL2 5718   5.354   6.281  10.146  0.1033 -0.1900 -0.1466
  358loPI   C1A 5719   5.705   6.313   9.763 -0.0803  0.1188  0.1403
  358loPI   C2A 5720   5.676   6.273   9.349 -0.4124 -0.0862  0.3259
  358loPI   C3A 5721   5.889   6.331   8.949  0.0162 -0.3251  0.1886
  358loPI   C4A 5722   5.693   6.340   8.585 -0.0442  0.1950  0.2755
  358loPI   C5A 5723   5.700   6.589   8.271  0.1543  0.3064 -0.2337
  358loPI   C6A 5724   5.734   6.981   8.093  0.1626  0.0113  0.0910
  358loPI   C1B 5725   5.242   6.262   9.694  0.2072 -0.1086  0.1590
  358loPI   C2B 5726   5.195   6.306   9.302 -0.0578 -0.1561 -0.1696
  358loPI   C3B 5727   5.291   6.477   8.915  0.1456 -0.0736  0.0616
  358loPI   C4B 5728   5.223   6.351   8.464 -0.0549  0.0089 -0.1704
  359loPI    C1 5729   8.818  16.782  11.021 -0.1362  0.0362  0.0247
  359loPI    C2 5730   9.108  16.863  11.285  0.1020 -0.0852 -0.1952
  359loPI    C3 5731   8.799  16.631  11.391  0.1761 -0.1021 -0.0126
  359loPI   PO4 5732   8.862  17.073  10.784  0.1382  0.0590 -0.2641
  359loPI   GL1 5733   8.928  17.155  10.432 -0.0452 -0.5983  0.1300
  359loPI   GL2 5734   8.639  17.301  10.318  0.2204  0.2693  0.2834
  359loPI   C1A 5735   9.081  17.088  10.098 -0.0529  0.0708 -0.0580
  359loPI   C2A 5736   9.115  17.093   9.638 -0.0990  0.0325  0.3518
  359loPI   C3A 5737   9.158  17.104   9.144 -0.1530  0.1047 -0.0504
  359loPI   C4A 5738   9.050  17.016   8.757 -0.0817  0.0630  0.3090
  359loPI   C5A 5739   8.958  17.235   8.301 -0.2619  0.0759 -0.1395
  359loPI   C6A 5740   8.618  17.426   8.031 -0.1338 -0.0944  0.3114
  359loPI   C1B 5741   8.611  17.382   9.943 -0.2158  0.2611 -0.2734
  359loPI   C2B 5742   8.692  17.466   9.545 -0.1228 -0.1002  0.1125
  359loPI   C3B 5743   8.761  17.461   9.203  0.1249 -0.0848 -0.0978
  359loPI   C4B 5744   8.653  17.435   8.791 -0.1197 -0.1516  0.0927
  360loPI    C1 5745  16.899  13.049  11.036  0.0763  0.0130  0.1639
  360loPI    C2 5746  16.842  13.309  11.334  0.1278  0.0759  0.1192
  360loPI    C3 5747  17.096  13.004  11.381  0.0228 -0.0009  0.1928
  360loPI   PO4 5748  16.960  13.134  10.787 -0.2582  0.0713 -0.1839
  360loPI   GL1 5749  17.015  13.165  10.426  0.0646  0.1263  0.3243
  360loPI   GL2 5750  16.890  12.945  10.295 -0.0605 -0.0952 -0.3506
  360loPI   C1A 5751  17.069  13.517  10.083  0.0122 -0.0232 -0.0163
  360loPI   C2A 5752  17.068  13.639   9.661 -0.0810 -0.1483 -0.0510
  360loPI   C3A 5753  17.060  13.638   9.335 -0.0586 -0.1521  0.2694
  360loPI   C4A 5754  17.088  13.638   8.872 -0.0674 -0.1052 -0.1124
  360loPI   C5A 5755  17.090  13.698   8.436 -0.1337 -0.1046  0.1189
  360loPI   C6A 5756  16.952  14.063   8.188  0.2242  0.2676  0.0023
  360loPI   C1B 5757  16.952  13.104   9.855 -0.0850  0.1766 -0.0091
  360loPI   C2B 5758  16.940  13.108   9.371  0.0452 -0.1475 -0.0639
  360loPI   C3B 5759  17.019  13.064   9.003  0.4951  0.0294 -0.0750
  360loPI   C4B 5760  17.110  12.946   8.557 -0.2787  0.0010 -0.4747
  361loPI    C1 5761   5.490  14.365  10.651 -0.0673  0.0031  0.0410
  361loPI    C2 5762   5.520  13.998  10.496 -0.0350  0.0453 -0.0531
  361loPI    C3 5763   5.637  14.066  10.872  0.1230 -0.0037 -0.0926
  361loPI   PO4 5764   5.246  14.497  10.530 -0.2750 -0.0419 -0.2458
  361loPI   GL1 5765   5.111  14.595  10.088  0.1837 -0.1408 -0.0285
  361loPI   GL2 5766   4.905  14.393  10.013 -0.3218  0.1428  0.3291
  361loPI   C1A 5767   5.241  14.549   9.681  0.0028  0.0152  0.0056
  361loPI   C2A 5768   5.294  14.655   9.279  0.0645  0.4532  0.1180
  361loPI   C3A 5769   5.349  14.983   8.967  0.0269 -0.1920  0.0740
  361loPI   C4A 5770   5.485  14.996   8.484 -0.0771 -0.3436  0.0122
  361loPI   C5A 5771   5.843  14.753   8.217  0.2395 -0.0697  0.1465
  361loPI   C6A 5772   6.055  14.558   7.964 -0.1507  0.0401  0.1271
  361loPI   C1B 5773   4.811  14.307   9.584  0.1199 -0.0716  0.0193
  361loPI   C2B 5774   4.801  14.322   9.153  0.1592 -0.0538  0.1182
  361loPI   C3B 5775   5.203  14.430   8.822  0.2836 -0.0444 -0.1681
  361loPI   C4B 5776   5.659  14.568   8.743 -0.0428  0.0088  0.2594
  362loPI    C1 5777  15.197   7.117  11.224 -0.0370  0.2182 -0.0441
  362loPI    C2 5778  15.352   7.298  11.545  0.0401  0.0854 -0.0058
  362loPI    C3 5779  14.959   7.229  11.525  0.0369  0.0823  0.0658
  362loPI   PO4 5780  15.362   7.220  10.996  0.0384 -0.2090 -0.0459
  362loPI   GL1 5781  15.462   7.300  10.585 -0.0474 -0.1990 -0.1200
  362loPI   GL2 5782  15.725   7.313  10.449 -0.0824 -0.2231 -0.2213
  362loPI   C1A 5783  15.264   7.520  10.198 -0.0868 -0.0266 -0.2127
  362loPI   C2A 5784  15.093   7.483   9.784 -0.2908 -0.0264  0.0380
  362loPI   C3A 5785  15.092   7.308   9.375  0.0292  0.0118  0.0717
  362loPI   C4A 5786  15.116   7.413   9.055 -0.0789  0.4352 -0.0351
  362loPI   C5A 5787  15.100   7.506   8.611  0.1322  0.0787  0.4098
  362loPI   C6A 5788  15.139   7.837   8.276  0.0964  0.0998  0.0276
  362loPI   C1B 5789  15.674   7.290   9.989  0.2939 -0.2138 -0.2253
  362loPI   C2B 5790  15.611   7.207   9.514 -0.2992  0.1498 -0.0226
  362loPI   C3B 5791  15.628   7.274   9.193 -0.1179  0.1377 -0.3538
  362loPI   C4B 5792  15.533   7.287   8.799 -0.0822 -0.2592 -0.1479
  363loPI    C1 5793  11.204   5.902  11.110 -0.2016 -0.1515 -0.1655
  363loPI    C2 5794  11.554   5.712  11.069 -0.0849  0.0514 -0.1202
  363loPI    C3 5795  11.545   6.110  11.106 -0.3079  0.0311  0.0680
  363loPI   PO4 5796  11.036   5.789  10.911 -0.3667  0.0074  0.0556
  363loPI   GL1 5797  10.891   5.663  10.464  0.0519  0.0151  0.1061
  363loPI   GL2 5798  10.910   5.916  10.254 -0.0741  0.1837 -0.1533
  363loPI   C1A 5799  11.123   5.450  10.118 -0.1557  0.3233 -0.2867
  363loPI   C2A 5800  10.929   5.303   9.692 -0.1178 -0.2451 -0.1395
  363loPI   C3A 5801  10.828   5.290   9.265  0.2163  0.0598 -0.1419
  363loPI   C4A 5802  10.845   5.092   8.897  0.0694  0.1496  0.2489
  363loPI   C5A 5803  10.793   5.102   8.400 -0.2539 -0.3601  0.3881
  363loPI   C6A 5804  11.015   5.233   8.013  0.0127  0.3708 -0.0604
  363loPI   C1B 5805  10.895   5.966   9.860  0.0456 -0.0380 -0.0569
  363loPI   C2B 5806  10.801   6.121   9.429  0.1558  0.1492  0.0095
  363loPI   C3B 5807  10.877   6.135   9.049 -0.1377 -0.1695 -0.0591
  363loPI   C4B 5808  10.947   6.062   8.655 -0.0498 -0.2616  0.2740
  364loPI    C1 5809  10.267   9.103  10.934 -0.3055 -0.0068  0.0857
  364loPI    C2 5810  10.422   8.823  11.173 -0.0164 -0.0032 -0.0917
  364loPI    C3 5811  10.409   9.204  11.294 -0.0308 -0.0279 -0.0145
  364loPI   PO4 5812  10.413   9.093  10.702  0.4107  0.0736  0.0392
  364loPI   GL1 5813  10.626   8.977  10.405 -0.3627  0.0036 -0.1200
  364loPI   GL2 5814  10.794   9.197  10.159  0.0267  0.1797 -0.0859
  364loPI   C1A 5815  10.819   8.753  10.023 -0.3176 -0.1035 -0.1290
  364loPI   C2A 5816  11.000   8.824   9.574  0.1627  0.3093 -0.1015
  364loPI   C3A 5817  11.056   8.852   9.160 -0.5125  0.0268 -0.2931
  364loPI   C4A 5818  10.986   9.196   8.856 -0.0391  0.2224 -0.2838
  364loPI   C5A 5819  10.751   9.201   8.417 -0.0001  0.0946 -0.1067
  364loPI   C6A 5820  10.636   9.291   7.965 -0.0617 -0.0158  0.0303
  364loPI   C1B 5821  10.601   9.119   9.718 -0.0530 -0.0227  0.1814
  364loPI   C2B 5822  10.584   9.074   9.293 -0.2075  0.0420  0.2960
  364loPI   C3B 5823  10.551   9.023   8.907 -0.1578  0.0294 -0.2650
  364loPI   C4B 5824  10.221   8.753   8.601  0.0065  0.1324 -0.3761
  365loPI    C1 5825  12.394   5.468  10.891 -0.0885  0.0245 -0.0350
  365loPI    C2 5826  12.108   5.414  11.165 -0.1660  0.0847 -0.1037
  365loPI    C3 5827  12.396   5.683  11.228 -0.2428  0.1730 -0.1275
  365loPI   PO4 5828  12.228   5.519  10.660 -0.0494 -0.1012 -0.1615
  365loPI   GL1 5829  12.247   5.712  10.329 -0.1062  0.3923 -0.2703
  365loPI   GL2 5830  11.888   5.678  10.264  0.0767 -0.1930 -0.1129
  365loPI   C1A 5831  12.322   5.782   9.834  0.2917  0.0776 -0.0337
  365loPI   C2A 5832  12.163   5.675   9.347  0.1273  0.1535  0.2201
  365loPI   C3A 5833  12.256   5.778   8.968 -0.0993 -0.2948  0.0685
  365loPI   C4A 5834  11.985   5.738   8.563  0.2704 -0.1494 -0.0233
  365loPI   C5A 5835  11.732   5.502   8.296 -0.1649  0.0697  0.1789
  365loPI   C6A 5836  11.498   5.237   8.194  0.1155  0.1360  0.0202
  365loPI   C1B 5837  11.852   5.511   9.969 -0.0249  0.2104 -0.0947
  365loPI   C2B 5838  11.935   5.261   9.634  0.1672 -0.1740  0.1334
  365loPI   C3B 5839  11.896   5.235   9.206  0.4692 -0.1403 -0.1756
  365loPI   C4B 5840  11.879   5.144   8.779  0.2205 -0.1006  0.0239
  366loPI    C1 5841   9.619  18.209  10.344  0.0921 -0.2545  0.0447
  366loPI    C2 5842   9.638  18.193  10.743  0.1136  0.0186  0.0562
  366loPI    C3 5843   9.302  18.316  10.563  0.1867  0.1343 -0.0022
  366loPI   PO4 5844   9.892  18.211  10.245 -0.1891 -0.0650 -0.0631
  366loPI   GL1 5845  10.209  18.410  10.032 -0.0029  0.0569  0.1778
  366loPI   GL2 5846   9.857  18.490   9.804 -0.2217  0.0923  0.1729
  366loPI   C1A 5847  10.325  18.454   9.628  0.0809  0.0587 -0.0815
  366loPI   C2A 5848  10.323  18.501   9.199  0.0701 -0.3821  0.0568
  366loPI   C3A 5849  10.273  18.461   8.721  0.1459  0.0715  0.1235
  366loPI   C4A 5850  10.190  18.610   8.318  0.0249 -0.1558  0.1269
  366loPI   C5A 5851  10.322  19.001   8.059 -0.0214 -0.1402 -0.2302
  366loPI   C6A 5852  10.212  19.365   7.937 -0.0791 -0.0148 -0.3668
  366loPI   C1B 5853   9.800  18.334   9.399  0.0372  0.4391  0.0669
  366loPI   C2B 5854   9.846  18.295   8.951 -0.0325 -0.1502 -0.0746
  366loPI   C3B 5855   9.745  18.356   8.543 -0.0216  0.2660 -0.3263
  366loPI   C4B 5856   9.633  18.417   8.107  0.0130  0.3989  0.0242
  367loPI    C1 5857  -0.079   3.786  10.898 -0.3979 -0.0941  0.0778
  367loPI    C2 5858   0.256   3.762  11.114 -0.2399 -0.2664 -0.1809
  367loPI    C3 5859  -0.037   3.497  11.171 -0.3241 -0.1312  0.0275
  367loPI   PO4 5860  -0.034   3.735  10.623  0.1020  0.0370 -0.0237
  367loPI   GL1 5861  -0.188   3.833  10.244 -0.0662 -0.1657 -0.1401
  367loPI   GL2 5862  -0.318   3.630  10.150  0.1638 -0.2190 -0.0865
  367loPI   C1A 5863  -0.257   4.021   9.722 -0.0908  0.0959  0.2117
  367loPI   C2A 5864  -0.368   3.953   9.256 -0.0505 -0.0805  0.0527
  367loPI   C3A 5865  -0.302   3.980   8.840  0.0203 -0.0238  0.0517
  367loPI   C4A 5866  -0.306   4.066   8.390 -0.1312 -0.1354 -0.2353
  367loPI   C5A 5867  -0.436   3.956   7.975  0.1456  0.0533 -0.1484
  367loPI   C6A 5868  -0.499   4.153   7.478  0.0778 -0.0305 -0.0866
  367loPI   C1B 5869  -0.209   3.485   9.682 -0.3004 -0.1249  0.0969
  367loPI   C2B 5870  -0.254   3.461   9.239  0.0431  0.2082 -0.1978
  367loPI   C3B 5871  -0.263   3.453   8.742 -0.1246 -0.1623 -0.2123
  367loPI   C4B 5872  -0.477   3.101   8.531  0.2767  0.0952 -0.3493
  368loPI    C1 5873  14.549   2.632  10.916 -0.1592  0.0220  0.0095
  368loPI    C2 5874  14.439   2.335  11.159  0.1407 -0.0388  0.0752
  368loPI    C3 5875  14.238   2.681  11.162  0.0096 -0.1151  0.2535
  368loPI   PO4 5876  14.566   2.686  10.550 -0.3099  0.1195  0.1785
  368loPI   GL1 5877  14.471   2.999  10.296  0.0198 -0.3539  0.1333
  368loPI   GL2 5878  14.234   3.240  10.177 -0.1032 -0.4137 -0.0600
  368loPI   C1A 5879  14.692   2.968   9.943  0.2200 -0.2538 -0.0914
  368loPI   C2A 5880  14.486   2.981   9.512  0.1005  0.1039  0.0956
  368loPI   C3A 5881  14.517   3.345   9.149  0.1377 -0.1519  0.1772
  368loPI   C4A 5882  14.512   3.354   8.756  0.0904  0.0226  0.1137
  368loPI   C5A 5883  14.724   3.326   8.435 -0.1629 -0.0288  0.2374
  368loPI   C6A 5884  15.031   3.353   8.160 -0.1292 -0.0280 -0.0880
  368loPI   C1B 5885  14.047   3.033   9.845  0.3166  0.1203 -0.1285
  368loPI   C2B 5886  13.661   3.105   9.615  0.1836  0.0005 -0.0257
  368loPI   C3B 5887  13.459   3.050   9.205  0.1493  0.0676  0.1541
  368loPI   C4B 5888  13.352   3.165   8.831  0.0623  0.0155  0.0655
  369loPI    C1 5889   0.526   5.033  11.348 -0.1758  0.0508 -0.0822
  369loPI    C2 5890   0.860   5.167  11.522 -0.0556 -0.0798 -0.2112
  369loPI    C3 5891   0.556   5.037  11.747  0.1277 -0.3181 -0.0963
  369loPI   PO4 5892   0.556   5.224  11.148 -0.0114  0.0984  0.1956
  369loPI   GL1 5893   0.557   5.621  10.790  0.0978  0.0934 -0.0185
  369loPI   GL2 5894   0.457   5.964  10.593 -0.1071  0.0079 -0.1050
  369loPI   C1A 5895   0.451   5.420  10.397  0.0933  0.0367  0.0216
  369loPI   C2A 5896   0.395   5.198  10.037  0.1138 -0.0843 -0.2028
  369loPI   C3A 5897   0.377   5.285   9.601 -0.0700 -0.0649 -0.1615
  369loPI   C4A 5898   0.431   5.198   9.146 -0.1858  0.0500  0.0789
  369loPI   C5A 5899   0.364   5.400   8.837  0.0194  0.0675 -0.0887
  369loPI   C6A 5900   0.250   5.772   8.937  0.3515 -0.2432 -0.0140
  369loPI   C1B 5901   0.361   5.877  10.223  0.2661  0.0960  0.0312
  369loPI   C2B 5902   0.200   6.165   9.801 -0.3594  0.2073 -0.1818
  369loPI   C3B 5903  -0.121   6.240   9.515 -0.0115 -0.1403  0.0013
  369loPI   C4B 5904  -0.232   6.411   9.136 -0.0411 -0.1692 -0.1321
  370loPI    C1 5905   5.431   0.202  10.821 -0.1561  0.0384  0.0188
  370loPI    C2 5906   5.242   0.258  11.169 -0.3457 -0.1327 -0.0541
  370loPI    C3 5907   5.354  -0.110  11.059  0.2487 -0.0075  0.0961
  370loPI   PO4 5908   5.345   0.384  10.583  0.1583 -0.4289 -0.2293
  370loPI   GL1 5909   5.413   0.310  10.106  0.1240  0.0072 -0.2223
  370loPI   GL2 5910   5.204   0.081   9.949  0.3176  0.0672 -0.0389
  370loPI   C1A 5911   5.725   0.319   9.751 -0.1130 -0.0296  0.0936
  370loPI   C2A 5912   5.697   0.267   9.272 -0.0052  0.2097 -0.1831
  370loPI   C3A 5913   5.565   0.337   8.819  0.0972 -0.1837 -0.1650
  370loPI   C4A 5914   5.726   0.308   8.337 -0.1792 -0.3729 -0.1468
  370loPI   C5A 5915   5.839   0.515   7.920  0.0380  0.2525  0.0543
  370loPI   C6A 5916   5.812   0.561   7.508 -0.1740 -0.1143 -0.2332
  370loPI   C1B 5917   5.212   0.082   9.506  0.2697 -0.1297  0.2411
  370loPI   C2B 5918   5.183   0.156   9.064  0.1414 -0.0493  0.0333
  370loPI   C3B 5919   5.231   0.117   8.613  0.1338 -0.0974  0.0777
  370loPI   C4B 5920   5.291   0.131   8.192 -0.2728 -0.1773 -0.0624
  371loPI    C1 5921   6.368  10.504  10.713  0.0236 -0.0838 -0.3155
  371loPI    C2 5922   6.476  10.853  10.876 -0.0452 -0.0546 -0.3325
  371loPI    C3 5923   6.121  10.692  10.966  0.1463 -0.3128 -0.0188
  371loPI   PO4 5924   6.450  10.482  10.534  0.1113 -0.0488  0.0008
  371loPI   GL1 5925   6.211  10.497  10.184 -0.0843 -0.2632 -0.0395
  371loPI   GL2 5926   5.941  10.556   9.976 -0.2509  0.0198  0.0076
  371loPI   C1A 5927   6.468  10.570   9.803 -0.2049  0.0588  0.1631
  371loPI   C2A 5928   6.371  10.629   9.430  0.0722  0.0361  0.0267
  371loPI   C3A 5929   6.371  10.650   8.997 -0.2535  0.0861  0.2904
  371loPI   C4A 5930   6.259  10.443   8.654 -0.0282 -0.1398  0.0298
  371loPI   C5A 5931   6.076  10.296   8.346 -0.0519  0.2742  0.2081
  371loPI   C6A 5932   5.940  10.035   8.025  0.2663 -0.1191  0.2830
  371loPI   C1B 5933   5.888  10.452   9.569  0.1658 -0.1021  0.1813
  371loPI   C2B 5934   5.978  10.412   9.115  0.0841  0.0380  0.0347
  371loPI   C3B 5935   5.706  10.792   8.804 -0.0032  0.4460  0.2106
  371loPI   C4B 5936   5.660  11.237   8.690 -0.3995 -0.2496  0.0635
  372loPI    C1 5937  15.255   0.255  10.918 -0.0357 -0.1396 -0.1520
  372loPI    C2 5938  15.461  -0.066  11.040 -0.0462 -0.1335 -0.1182
  372loPI    C3 5939  15.257   0.154  11.305 -0.0125 -0.0800 -0.1363
  372loPI   PO4 5940  15.215   0.256  10.684  0.0293 -0.3755  0.0608
  372loPI   GL1 5941  15.203   0.082  10.220  0.1923 -0.1012 -0.0388
  372loPI   GL2 5942  15.527  -0.072  10.113  0.0046  0.3038  0.1396
  372loPI   C1A 5943  15.339   0.287   9.817  0.0097  0.3523 -0.2169
  372loPI   C2A 5944  15.703   0.244   9.633  0.2956 -0.0868 -0.0269
  372loPI   C3A 5945  15.834   0.122   9.223 -0.0161  0.2096  0.0392
  372loPI   C4A 5946  15.643   0.081   8.793  0.1369 -0.2089 -0.1242
  372loPI   C5A 5947  15.501  -0.204   8.589  0.2316 -0.1000  0.1485
  372loPI   C6A 5948  15.241  -0.606   8.408  0.2849 -0.1446 -0.1093
  372loPI   C1B 5949  15.510  -0.316   9.742 -0.2998 -0.2047  0.1350
  372loPI   C2B 5950  15.573  -0.642   9.562  0.4012 -0.2108  0.2113
  372loPI   C3B 5951  15.509  -0.842   9.176 -0.0915  0.3912 -0.3299
  372loPI   C4B 5952  15.123  -1.070   9.174  0.0577  0.0424 -0.0592
  373loPI    C1 5953   4.696   0.297  10.577 -0.1237 -0.0343  0.0597
  373loPI    C2 5954   4.926   0.132  10.859  0.1661 -0.0500 -0.1800
  373loPI    C3 5955   4.564   0.274  10.954  0.1148 -0.3713  0.1273
  373loPI   PO4 5956   4.883   0.405  10.429  0.0100 -0.2996 -0.0858
  373loPI   GL1 5957   4.975   0.527  10.018  0.0217 -0.1129 -0.1800
  373loPI   GL2 5958   4.828   0.368   9.806  0.0005 -0.0355 -0.1024
  373loPI   C1A 5959   5.212   0.526   9.651  0.0568 -0.0566 -0.1037
  373loPI   C2A 5960   5.252   0.615   9.201  0.1800 -0.2777  0.0137
  373loPI   C3A 5961   5.182   0.626   8.756 -0.0772 -0.0048 -0.2033
  373loPI   C4A 5962   5.126   0.606   8.359 -0.1796 -0.2086  0.1148
  373loPI   C5A 5963   4.745   0.783   8.110  0.2192 -0.0820  0.0308
  373loPI   C6A 5964   4.603   0.951   7.796 -0.1091 -0.3268 -0.2639
  373loPI   C1B 5965   4.814   0.417   9.305 -0.3399 -0.0905  0.0940
  373loPI   C2B 5966   4.769   0.319   8.827  0.3365 -0.3713 -0.1783
  373loPI   C3B 5967   4.687   0.371   8.449 -0.0347  0.1583  0.0535
  373loPI   C4B 5968   4.842   0.113   8.002 -0.2771  0.2128 -0.0523
  374loPI    C1 5969   2.082  15.882  11.088  0.0532  0.0994 -0.0646
  374loPI    C2 5970   2.218  16.253  11.022  0.2287  0.0447 -0.0180
  374loPI    C3 5971   2.265  16.084  11.381 -0.0063  0.0410  0.0131
  374loPI   PO4 5972   2.180  15.689  10.845  0.0177  0.3133 -0.2231
  374loPI   GL1 5973   2.117  15.635  10.401 -0.4142  0.0748  0.0446
  374loPI   GL2 5974   2.117  15.290  10.353  0.1430 -0.0017  0.0943
  374loPI   C1A 5975   2.392  15.731  10.070 -0.0771 -0.3204  0.0629
  374loPI   C2A 5976   2.383  15.691   9.629 -0.3250  0.0919 -0.2426
  374loPI   C3A 5977   2.455  15.679   9.189 -0.2577 -0.0684 -0.1111
  374loPI   C4A 5978   2.472  15.868   8.702 -0.0835  0.2184  0.1624
  374loPI   C5A 5979   2.707  15.789   8.268 -0.0489  0.3293 -0.1439
  374loPI   C6A 5980   2.535  15.915   7.932 -0.3270  0.2907  0.1838
  374loPI   C1B 5981   2.179  15.291   9.914 -0.0942 -0.3433 -0.2015
  374loPI   C2B 5982   2.304  15.148   9.547 -0.0518 -0.1923 -0.1356
  374loPI   C3B 5983   2.256  15.149   9.149  0.0646 -0.3266 -0.1551
  374loPI   C4B 5984   2.161  15.226   8.736 -0.1892  0.0592 -0.1247
  375loPI    C1 5985   5.943  14.221  10.503  0.0286  0.0967  0.1163
  375loPI    C2 5986   5.990  13.824  10.504 -0.0195  0.0904  0.0142
  375loPI    C3 5987   6.130  14.043  10.808 -0.0512 -0.0115  0.1027
  375loPI   PO4 5988   5.922  14.232  10.218 -0.1117  0.3664 -0.1346
  375loPI   GL1 5989   6.170  13.879  10.048  0.2055 -0.3933 -0.0603
  375loPI   GL2 5990   5.759  13.801  10.077 -0.0823 -0.0355  0.0280
  375loPI   C1A 5991   6.182  13.844   9.611 -0.3135 -0.1336 -0.0366
  375loPI   C2A 5992   6.051  13.777   9.198  0.0988  0.1083 -0.0966
  375loPI   C3A 5993   6.029  13.798   8.705 -0.4186 -0.1870  0.0290
  375loPI   C4A 5994   6.085  13.823   8.228  0.1191 -0.2009  0.0313
  375loPI   C5A 5995   6.147  14.071   7.929 -0.0568  0.2791 -0.0010
  375loPI   C6A 5996   6.243  13.954   7.505 -0.1682 -0.0249  0.0094
  375loPI   C1B 5997   5.731  13.755   9.657 -0.0994 -0.0207  0.0485
  375loPI   C2B 5998   5.604  13.660   9.119  0.0090 -0.1094 -0.3618
  375loPI   C3B 5999   5.593  13.558   8.774  0.1686  0.0372 -0.0665
  375loPI   C4B 6000   5.682  13.627   8.381 -0.1866 -0.1269 -0.0985
  376loPI    C1 6001  15.796  15.383  10.982 -0.0205  0.0102  0.1585
  376loPI    C2 6002  15.526  15.679  10.977 -0.0144  0.0146 -0.1944
  376loPI    C3 6003  15.905  15.755  11.082 -0.0839  0.0657  0.0242
  376loPI   PO4 6004  15.856  15.294  10.761 -0.1046  0.1976  0.0281
  376loPI   GL1 6005  15.729  15.492  10.458  0.2446  0.2669 -0.2227
  376loPI   GL2 6006  15.742  15.830  10.297  0.4081  0.1886  0.1127
  376loPI   C1A 6007  15.534  15.144  10.242  0.1365 -0.2073  0.2593
  376loPI   C2A 6008  15.604  15.065   9.808 -0.0469  0.0266 -0.1593
  376loPI   C3A 6009  15.529  15.048   9.420 -0.0492  0.0738 -0.0629
  376loPI   C4A 6010  15.585  14.997   8.964 -0.1174 -0.0520  0.3171
  376loPI   C5A 6011  15.658  14.972   8.496 -0.1330  0.0404  0.0655
  376loPI   C6A 6012  15.909  14.687   8.266  0.2253  0.0638 -0.2597
  376loPI   C1B 6013  15.601  15.539   9.954 -0.3129 -0.2179  0.1820
  376loPI   C2B 6014  15.634  15.532   9.584  0.2003 -0.1434 -0.2012
  376loPI   C3B 6015  15.601  15.469   9.174 -0.0056  0.0155  0.0591
  376loPI   C4B 6016  15.594  15.488   8.776 -0.4371 -0.1882  0.1560
  377loPI    C1 6017  10.514   3.273  10.616  0.2645 -0.0584 -0.1202
  377loPI    C2 6018  10.726   3.455  10.902 -0.1471  0.0629  0.1149
  377loPI    C3 6019  10.594   3.081  10.958 -0.1732  0.0634  0.0564
  377loPI   PO4 6020  10.659   3.245  10.412 -0.0566 -0.0676 -0.1665
  377loPI   GL1 6021  10.558   3.159  10.014  0.0675  0.2177  0.0089
  377loPI   GL2 6022  10.264   3.140   9.842  0.3210 -0.1780 -0.4426
  377loPI   C1A 6023  10.733   2.899   9.776 -0.0113 -0.0618  0.3576
  377loPI   C2A 6024  10.737   2.626   9.434  0.2063 -0.1969 -0.1536
  377loPI   C3A 6025  10.887   2.442   9.007 -0.0834  0.0122 -0.2767
  377loPI   C4A 6026  11.222   2.340   8.730 -0.0764 -0.3344  0.0822
  377loPI   C5A 6027  11.473   2.499   8.377  0.2311 -0.1993  0.2299
  377loPI   C6A 6028  11.345   2.531   7.851 -0.0082 -0.0461  0.2153
  377loPI   C1B 6029   9.876   3.102   9.570  0.5518  0.1261  0.1279
  377loPI   C2B 6030   9.835   2.884   9.189 -0.1194 -0.2421  0.2919
  377loPI   C3B 6031  10.018   2.897   8.773 -0.1906 -0.1087  0.1372
  377loPI   C4B 6032  10.205   2.586   8.389  0.1829  0.0265 -0.1131
  378loPI    C1 6033   4.554   7.387  10.932  0.0618 -0.0159  0.0775
  378loPI    C2 6034   4.522   7.031  11.112 -0.1122 -0.0614 -0.0415
  378loPI    C3 6035   4.863   7.238  11.138 -0.0735 -0.1510  0.1846
  378loPI   PO4 6036   4.437   7.397  10.710 -0.0929 -0.3241  0.2202
  378loPI   GL1 6037   4.532   7.551  10.347 -0.1204 -0.0505 -0.2968
  378loPI   GL2 6038   4.869   7.449  10.324  0.0804 -0.3213 -0.0681
  378loPI   C1A 6039   4.501   7.636   9.919  0.2842  0.3908 -0.0659
  378loPI   C2A 6040   4.556   7.788   9.422  0.1028  0.1331  0.1899
  378loPI   C3A 6041   4.589   7.815   9.008 -0.2978 -0.2398  0.1339
  378loPI   C4A 6042   4.498   7.868   8.509 -0.0567  0.1105  0.1565
  378loPI   C5A 6043   4.711   7.935   8.087 -0.1359 -0.2720 -0.0715
  378loPI   C6A 6044   4.889   7.921   7.720  0.0661  0.0272  0.2215
  378loPI   C1B 6045   4.864   7.165  10.050  0.2627  0.0625 -0.1853
  378loPI   C2B 6046   4.815   7.299   9.595  0.2774 -0.0550  0.0579
  378loPI   C3B 6047   4.842   7.357   9.184 -0.0081 -0.1093  0.1607
  378loPI   C4B 6048   4.873   7.354   8.682 -0.1748 -0.1318  0.0731
  379loPI    C1 6049   1.786  10.835  11.020 -0.0020 -0.3100  0.3104
  379loPI    C2 6050   1.576  10.651  10.733  0.1071  0.0247  0.0080
  379loPI    C3 6051   1.957  10.756  10.666  0.1749 -0.0092  0.3248
  379loPI   PO4 6052   1.689  11.051  11.035 -0.1396  0.1278 -0.1584
  379loPI   GL1 6053   1.594  11.197  10.668 -0.0825  0.2771 -0.1137
  379loPI   GL2 6054   1.592  11.427  10.486  0.3002  0.0811 -0.0557
  379loPI   C1A 6055   1.509  10.899  10.347 -0.2834 -0.0237  0.0632
  379loPI   C2A 6056   1.533  10.688   9.901  0.1557 -0.0521 -0.2943
  379loPI   C3A 6057   1.445  10.548   9.469 -0.3448 -0.1309 -0.1980
  379loPI   C4A 6058   1.466  10.642   8.972 -0.2358  0.0743  0.0736
  379loPI   C5A 6059   1.359  10.681   8.505 -0.0778  0.1952 -0.0260
  379loPI   C6A 6060   1.281  11.086   8.361 -0.0502  0.0038  0.1811
  379loPI   C1B 6061   1.221  11.491  10.132 -0.2464  0.2683 -0.0407
  379loPI   C2B 6062   0.965  11.474   9.794 -0.0275 -0.1974 -0.0541
  379loPI   C3B 6063   0.819  11.329   9.447 -0.0398 -0.0999 -0.2893
  379loPI   C4B 6064   0.566  11.419   9.161  0.2580 -0.0530  0.2213
  380loPI    C1 6065   7.975  15.319  11.023  0.0650 -0.1290  0.0288
  380loPI    C2 6066   7.837  15.655  11.191  0.1745  0.0247 -0.1842
  380loPI    C3 6067   7.959  15.352  11.422  0.0528  0.1211  0.0091
  380loPI   PO4 6068   8.201  15.425  10.872  0.3129 -0.1341 -0.0444
  380loPI   GL1 6069   8.284  15.389  10.523  0.1240  0.3292  0.1390
  380loPI   GL2 6070   8.144  15.217  10.276 -0.0529 -0.0008 -0.0902
  380loPI   C1A 6071   8.535  15.489  10.166 -0.1509  0.1311  0.2194
  380loPI   C2A 6072   8.557  15.841   9.889 -0.1205 -0.0288  0.0926
  380loPI   C3A 6073   8.456  15.963   9.432  0.1823 -0.1105  0.0254
  380loPI   C4A 6074   8.504  15.927   8.978 -0.0762 -0.1867 -0.0681
  380loPI   C5A 6075   8.395  15.553   8.660  0.0302 -0.1666  0.0241
  380loPI   C6A 6076   8.830  15.336   8.470 -0.2556 -0.2373 -0.0040
  380loPI   C1B 6077   8.086  15.211   9.881  0.1211  0.0491  0.3446
  380loPI   C2B 6078   7.785  14.946   9.611  0.0414 -0.1709 -0.0642
  380loPI   C3B 6079   7.513  15.044   9.293  0.0537 -0.0268  0.0224
  380loPI   C4B 6080   7.405  15.001   8.798 -0.4645  0.0312 -0.2494
  381loPI    C1 6081  14.546   4.374  10.597 -0.1132  0.2472  0.1143
  381loPI    C2 6082  14.769   4.195  10.877 -0.0246  0.1328 -0.0275
  381loPI    C3 6083  14.373   4.228  10.927 -0.0132  0.0868  0.0972
  381loPI   PO4 6084  14.600   4.211  10.372  0.0647 -0.0442  0.1132
  381loPI   GL1 6085  14.784   4.018  10.067  0.2469  0.1729  0.0827
  381loPI   GL2 6086  14.974   3.795   9.926  0.0015 -0.2721 -0.0248
  381loPI   C1A 6087  14.779   4.198   9.696  0.0017 -0.2874 -0.2703
  381loPI   C2A 6088  14.928   4.107   9.308  0.2043  0.1334 -0.1343
  381loPI   C3A 6089  14.770   4.320   8.995 -0.0487  0.0729 -0.1808
  381loPI   C4A 6090  14.813   4.401   8.542 -0.0852 -0.1299  0.0477
  381loPI   C5A 6091  15.052   4.346   8.134 -0.0693  0.2117  0.0365
  381loPI   C6A 6092  15.154   4.083   7.724 -0.1977  0.0899 -0.0810
  381loPI   C1B 6093  14.854   3.622   9.502 -0.2466 -0.1452 -0.0029
  381loPI   C2B 6094  14.893   3.586   9.040 -0.2891  0.0979  0.1447
  381loPI   C3B 6095  14.863   3.887   8.631 -0.2019  0.0196  0.2095
  381loPI   C4B 6096  15.113   3.884   8.201 -0.0714  0.1776 -0.0026
  382loPI    C1 6097   0.872  16.370  11.096  0.2327 -0.0273  0.1448
  382loPI    C2 6098   0.566  16.552  11.279  0.1614  0.0430 -0.0420
  382loPI    C3 6099   0.694  16.196  11.409 -0.0564 -0.0272 -0.0160
  382loPI   PO4 6100   0.917  16.492  10.934 -0.3631 -0.1729  0.0247
  382loPI   GL1 6101   0.873  16.378  10.496  0.0362 -0.2633 -0.1454
  382loPI   GL2 6102   0.962  16.130  10.271  0.1581 -0.1147 -0.1203
  382loPI   C1A 6103   0.736  16.578  10.079 -0.0060 -0.1817  0.1706
  382loPI   C2A 6104   0.682  16.553   9.666 -0.1215 -0.1130 -0.2411
  382loPI   C3A 6105   0.737  16.587   9.155 -0.1227  0.1250 -0.0660
  382loPI   C4A 6106   0.917  16.608   8.665  0.0807 -0.0407  0.1547
  382loPI   C5A 6107   1.092  16.496   8.202  0.1491 -0.1005  0.0124
  382loPI   C6A 6108   1.498  16.298   8.044 -0.2964 -0.3776 -0.0302
  382loPI   C1B 6109   1.071  16.179   9.826  0.2360 -0.1197  0.1977
  382loPI   C2B 6110   1.069  16.215   9.436  0.1119  0.2087  0.0158
  382loPI   C3B 6111   1.139  16.315   8.934 -0.1541 -0.0243 -0.1376
  382loPI   C4B 6112   1.408  16.354   8.530  0.1670 -0.0320 -0.1643
  383loPI    C1 6113   2.249   7.893  10.895  0.0477  0.1675  0.0159
  383loPI    C2 6114   2.436   7.732  11.209 -0.0786  0.0489  0.0316
  383loPI    C3 6115   2.094   7.932  11.262 -0.1280 -0.0172 -0.0366
  383loPI   PO4 6116   2.283   7.743  10.702  0.0426 -0.3133  0.0380
  383loPI   GL1 6117   2.088   7.731  10.316  0.2077  0.0986  0.0533
  383loPI   GL2 6118   2.398   7.752  10.156  0.3322  0.1453 -0.1201
  383loPI   C1A 6119   1.885   7.928  10.013  0.1539 -0.0833  0.0668
  383loPI   C2A 6120   1.714   7.924   9.705  0.0039 -0.0256  0.2282
  383loPI   C3A 6121   1.833   7.767   9.290 -0.0450  0.0584  0.2345
  383loPI   C4A 6122   1.860   7.722   8.847  0.1494 -0.2219  0.1390
  383loPI   C5A 6123   1.560   7.832   8.478 -0.0616  0.0405 -0.2818
  383loPI   C6A 6124   1.224   7.941   8.198 -0.0430 -0.3600  0.0419
  383loPI   C1B 6125   2.563   7.593   9.786 -0.0252 -0.0840  0.1758
  383loPI   C2B 6126   2.785   7.557   9.292 -0.1185  0.1582 -0.3021
  383loPI   C3B 6127   2.735   7.456   8.834 -0.0265  0.0146 -0.0358
  383loPI   C4B 6128   2.783   7.236   8.437 -0.1479  0.4109 -0.1693
  384loPI    C1 6129   2.207   4.753  10.655 -0.0047 -0.1369  0.0016
  384loPI    C2 6130   2.389   4.595  10.975 -0.0338  0.0600  0.1166
  384loPI    C3 6131   1.990   4.625  10.966 -0.0322  0.0668  0.0673
  384loPI   PO4 6132   2.269   4.610  10.475 -0.1825 -0.3165  0.1647
  384loPI   GL1 6133   2.120   4.607  10.043 -0.1592 -0.1146  0.2052
  384loPI   GL2 6134   2.233   4.929  10.117 -0.3081  0.0399 -0.0849
  384loPI   C1A 6135   1.906   4.655   9.613  0.1679  0.1655  0.2305
  384loPI   C2A 6136   1.797   4.604   9.186  0.1418 -0.0112  0.0674
  384loPI   C3A 6137   1.914   4.585   8.764  0.3065 -0.0654  0.0422
  384loPI   C4A 6138   1.884   4.593   8.298 -0.0797 -0.5144 -0.0223
  384loPI   C5A 6139   2.048   5.040   8.114  0.0050 -0.0210  0.0291
  384loPI   C6A 6140   2.096   5.496   7.834 -0.0951  0.0802  0.1088
  384loPI   C1B 6141   2.339   5.063   9.698  0.2308  0.0394 -0.0023
  384loPI   C2B 6142   2.621   5.018   9.484  0.1191  0.0989 -0.0667
  384loPI   C3B 6143   2.783   5.278   9.181 -0.1162  0.0847  0.2978
  384loPI   C4B 6144   2.733   5.185   8.745 -0.2602  0.1305  0.0233
  385loPI    C1 6145   0.740  14.022  10.758  0.0034  0.0866  0.0652
  385loPI    C2 6146   0.521  14.202  11.040 -0.1306 -0.2244  0.1642
  385loPI    C3 6147   0.698  13.851  11.117  0.1521 -0.1250 -0.0155
  385loPI   PO4 6148   0.866  14.280  10.655  0.3570 -0.1956  0.2701
  385loPI   GL1 6149   1.018  14.354  10.257  0.0821 -0.0625 -0.0654
  385loPI   GL2 6150   0.810  14.166  10.167 -0.2605  0.0815  0.3138
  385loPI   C1A 6151   1.193  14.427   9.922 -0.4452 -0.0520  0.0214
  385loPI   C2A 6152   1.170  14.508   9.475  0.2483 -0.3412  0.1628
  385loPI   C3A 6153   1.187  14.424   9.003 -0.1828  0.1509 -0.0316
  385loPI   C4A 6154   1.090  14.588   8.661  0.0232  0.2910  0.1055
  385loPI   C5A 6155   1.265  14.349   8.307  0.1903  0.0456 -0.0491
  385loPI   C6A 6156   1.034  14.350   7.955 -0.0594  0.1603  0.0842
  385loPI   C1B 6157   0.704  14.306   9.776  0.1837  0.1647 -0.1756
  385loPI   C2B 6158   0.640  14.300   9.360 -0.0405 -0.1873 -0.0867
  385loPI   C3B 6159   0.728  14.231   8.941 -0.0215  0.0086  0.2129
  385loPI   C4B 6160   0.624  14.355   8.530  0.0437  0.0436  0.0642
  386loPI    C1 6161   5.156   2.086  10.891 -0.1714 -0.0077  0.1414
  386loPI    C2 6162   5.270   1.750  11.075 -0.1477 -0.2384 -0.2840
  386loPI    C3 6163   5.533   2.045  11.018 -0.1113 -0.2349 -0.1019
  386loPI   PO4 6164   5.082   2.102  10.695 -0.1719  0.1127  0.3268
  386loPI   GL1 6165   5.206   2.114  10.276 -0.4243 -0.0832  0.1503
  386loPI   GL2 6166   5.453   2.083  10.102  0.2240  0.0214  0.1306
  386loPI   C1A 6167   5.056   1.916   9.922  0.1887 -0.0007 -0.4394
  386loPI   C2A 6168   4.865   1.550   9.799 -0.0051 -0.0689 -0.0227
  386loPI   C3A 6169   4.817   1.458   9.407 -0.1382 -0.0862 -0.1827
  386loPI   C4A 6170   4.940   1.397   9.014 -0.0745  0.0691  0.1633
  386loPI   C5A 6171   4.830   1.375   8.519 -0.0821  0.0074 -0.1436
  386loPI   C6A 6172   4.651   1.371   8.038  0.1469  0.0277  0.0248
  386loPI   C1B 6173   5.678   1.880   9.681 -0.2433  0.1286 -0.0129
  386loPI   C2B 6174   5.845   1.856   9.203 -0.0513 -0.0073 -0.2425
  386loPI   C3B 6175   5.894   1.804   8.789  0.1883 -0.0358  0.2296
  386loPI   C4B 6176   5.764   1.817   8.347  0.0169  0.0088 -0.0379
  387loPI    C1 6177   8.542   1.567  10.477 -0.0662 -0.0870 -0.0938
  387loPI    C2 6178   8.686   1.645  10.842 -0.0068 -0.0402 -0.1271
  387loPI    C3 6179   8.331   1.465  10.802 -0.1000  0.1225 -0.0481
  387loPI   PO4 6180   8.586   1.784  10.372 -0.1144  0.2179  0.1511
  387loPI   GL1 6181   8.435   1.784   9.976  0.2087 -0.1367  0.0654
  387loPI   GL2 6182   8.290   1.503  10.030 -0.1776 -0.2100  0.2308
  387loPI   C1A 6183   8.248   1.992   9.590 -0.1638  0.1018  0.0150
  387loPI   C2A 6184   8.289   2.059   9.243  0.1818  0.1957  0.0774
  387loPI   C3A 6185   8.138   1.763   8.909  0.0797 -0.0462  0.0824
  387loPI   C4A 6186   7.765   1.648   8.614 -0.0768  0.0683 -0.0879
  387loPI   C5A 6187   7.727   1.586   8.202  0.1577 -0.1931  0.1269
  387loPI   C6A 6188   7.731   1.302   7.994  0.0330  0.2346 -0.1759
  387loPI   C1B 6189   8.152   1.311   9.674 -0.0663  0.2608  0.1157
  387loPI   C2B 6190   8.154   1.092   9.205  0.1149 -0.1006 -0.2432
  387loPI   C3B 6191   8.069   1.250   8.825  0.1722 -0.0090  0.0236
  387loPI   C4B 6192   8.004   1.172   8.467  0.2723 -0.2122  0.0665
  388loPI    C1 6193  11.053  15.918  11.005  0.1996 -0.2323  0.0519
  388loPI    C2 6194  11.267  15.944  11.342  0.1262  0.1820  0.0718
  388loPI    C3 6195  10.922  16.144  11.309  0.1846  0.2305 -0.2877
  388loPI   PO4 6196  11.171  15.958  10.818  0.0284 -0.1216  0.4311
  388loPI   GL1 6197  11.230  16.059  10.358  0.2132 -0.0370 -0.2186
  388loPI   GL2 6198  11.470  15.795  10.347 -0.2035  0.0551  0.0116
  388loPI   C1A 6199  11.060  15.983  10.012 -0.0372 -0.3366  0.2876
  388loPI   C2A 6200  10.827  15.892   9.700 -0.2858 -0.1538 -0.1537
  388loPI   C3A 6201  10.753  15.748   9.168  0.0044 -0.0449 -0.2202
  388loPI   C4A 6202  10.622  15.706   8.689 -0.2764  0.0551  0.1688
  388loPI   C5A 6203  10.843  15.740   8.409  0.0581  0.0501 -0.1452
  388loPI   C6A 6204  11.028  15.709   8.002 -0.1242  0.1012 -0.0963
  388loPI   C1B 6205  11.491  15.726   9.915 -0.1080 -0.0734  0.1405
  388loPI   C2B 6206  11.486  15.574   9.541 -0.1480 -0.0365  0.1787
  388loPI   C3B 6207  11.498  15.468   9.106 -0.1534  0.2310  0.3269
  388loPI   C4B 6208  11.692  15.472   8.697  0.1065  0.0558 -0.0324
  389loPI    C1 6209  15.778   3.448  11.038  0.0594  0.0186 -0.1092
  389loPI    C2 6210  15.392   3.441  11.142  0.0759 -0.1226 -0.0544
  389loPI    C3 6211  15.632   3.138  11.245  0.1416 -0.1630 -0.3182
  389loPI   PO4 6212  15.771   3.530  10.878 -0.3734  0.0759 -0.2909
  389loPI   GL1 6213  15.740   3.434  10.444 -0.0913 -0.0306  0.0451
  389loPI   GL2 6214  15.844   3.654  10.338 -0.0196  0.0567 -0.0847
  389loPI   C1A 6215  15.472   3.246  10.103 -0.2851 -0.1179  0.0296
  389loPI   C2A 6216  15.517   3.035   9.738  0.2625 -0.0481 -0.2011
  389loPI   C3A 6217  15.420   3.060   9.292  0.1787 -0.0876 -0.0452
  389loPI   C4A 6218  15.501   2.911   8.834  0.1238  0.0003 -0.3286
  389loPI   C5A 6219  15.493   3.008   8.381  0.1092 -0.1309  0.0654
  389loPI   C6A 6220  15.110   2.843   8.069  0.3001  0.0866 -0.1951
  389loPI   C1B 6221  15.910   3.469   9.906  0.2538 -0.0712  0.1648
  389loPI   C2B 6222  15.887   3.380   9.419  0.3420 -0.0145  0.2542
  389loPI   C3B 6223  15.892   3.311   9.033  0.2158 -0.1487  0.0758
  389loPI   C4B 6224  15.852   3.291   8.570 -0.2911  0.1940 -0.1924
  390loPI    C1 6225  -0.036  12.293  11.451  0.1786  0.2315 -0.0005
  390loPI    C2 6226   0.227  12.525  11.642  0.1706  0.2248  0.0187
  390loPI    C3 6227   0.178  12.144  11.754  0.2275  0.1962 -0.0521
  390loPI   PO4 6228  -0.017  12.348  11.194  0.2536  0.2140 -0.1222
  390loPI   GL1 6229  -0.173  12.347  10.735 -0.1047  0.2430  0.0488
  390loPI   GL2 6230  -0.019  12.125  10.621 -0.0683  0.1440  0.1112
  390loPI   C1A 6231  -0.015  12.594  10.331 -0.2447  0.0957  0.0769
  390loPI   C2A 6232  -0.053  12.614   9.909  0.0883 -0.0399 -0.0379
  390loPI   C3A 6233  -0.086  12.550   9.530 -0.1154  0.2808 -0.3007
  390loPI   C4A 6234  -0.123  12.623   9.078 -0.0541  0.0732  0.1407
  390loPI   C5A 6235  -0.131  12.578   8.655 -0.0945  0.0983 -0.0620
  390loPI   C6A 6236   0.167  12.363   8.367 -0.3850 -0.2176  0.0022
  390loPI   C1B 6237   0.015  12.131  10.159  0.0118  0.2327 -0.2104
  390loPI   C2B 6238   0.244  12.164   9.748  0.1160  0.0194  0.1390
  390loPI   C3B 6239   0.332  12.226   9.305  0.0267 -0.0480 -0.2023
  390loPI   C4B 6240   0.239  12.235   8.843 -0.1995  0.2083 -0.0131
  391loPI    C1 6241  16.031  17.872  10.571 -0.4144 -0.0597 -0.1285
  391loPI    C2 6242  15.959  18.234  10.417  0.1804  0.0669 -0.1307
  391loPI    C3 6243  15.965  18.183  10.814  0.2294  0.0908 -0.1283
  391loPI   PO4 6244  16.237  17.776  10.442  0.1063 -0.1218  0.0252
  391loPI   GL1 6245  16.295  17.847  10.086  0.0347 -0.1977 -0.1107
  391loPI   GL2 6246  16.020  17.949   9.922 -0.1445 -0.0071 -0.1715
  391loPI   C1A 6247  16.515  18.106   9.749  0.4050  0.0332 -0.2344
  391loPI   C2A 6248  16.731  18.209   9.379 -0.0799 -0.3045 -0.1232
  391loPI   C3A 6249  16.700  18.351   8.973 -0.0214  0.0643  0.1870
  391loPI   C4A 6250  16.677  18.412   8.514 -0.3497 -0.1123  0.2012
  391loPI   C5A 6251  16.486  18.429   8.227 -0.0823  0.0262 -0.2096
  391loPI   C6A 6252  16.731  18.555   7.901  0.0887 -0.1514 -0.3828
  391loPI   C1B 6253  16.016  18.100   9.591 -0.2333  0.0846  0.0301
  391loPI   C2B 6254  16.182  18.128   9.101 -0.1161 -0.1348  0.0561
  391loPI   C3B 6255  16.187  18.372   8.696 -0.0464 -0.0394  0.0225
  391loPI   C4B 6256  15.994  18.403   8.237  0.0191  0.0498  0.1496
  392loPI    C1 6257   8.116   4.614  10.392  0.1368  0.1173  0.0378
  392loPI    C2 6258   7.994   4.581  10.771  0.2483 -0.0117  0.0634
  392loPI    C3 6259   8.030   4.254  10.544  0.2061  0.0627 -0.0509
  392loPI   PO4 6260   8.349   4.762  10.482  0.1598  0.3412  0.1295
  392loPI   GL1 6261   8.624   4.847  10.221  0.0818 -0.1109 -0.1413
  392loPI   GL2 6262   8.470   4.708   9.972 -0.5466 -0.1232  0.1401
  392loPI   C1A 6263   8.742   5.163  10.078 -0.0833  0.0617 -0.1409
  392loPI   C2A 6264   8.740   5.265   9.605 -0.0092  0.0819 -0.0907
  392loPI   C3A 6265   8.826   5.242   9.178  0.1244  0.1316  0.1314
  392loPI   C4A 6266   8.769   5.151   8.682 -0.1866  0.0145  0.0041
  392loPI   C5A 6267   8.706   5.215   8.159 -0.0405  0.3608 -0.0075
  392loPI   C6A 6268   8.557   4.926   7.809 -0.4345 -0.1600  0.2490
  392loPI   C1B 6269   8.436   4.794   9.465 -0.1130 -0.0886  0.0490
  392loPI   C2B 6270   8.515   4.757   9.012 -0.0205 -0.1026 -0.4167
  392loPI   C3B 6271   8.483   4.686   8.648 -0.0522  0.2167  0.1497
  392loPI   C4B 6272   8.376   4.703   8.227 -0.1336 -0.1983 -0.0052
  393loPI    C1 6273  12.133   0.691  11.010 -0.0511 -0.0073 -0.0467
  393loPI    C2 6274  11.916   0.449  11.242 -0.0192  0.1483  0.1481
  393loPI    C3 6275  11.848   0.843  11.247 -0.1992  0.1291 -0.3068
  393loPI   PO4 6276  12.095   0.624  10.741 -0.2575  0.0031 -0.2609
  393loPI   GL1 6277  11.969   0.384  10.361  0.3396 -0.2752 -0.1629
  393loPI   GL2 6278  11.893   0.709  10.193  0.0880 -0.2719 -0.0109
  393loPI   C1A 6279  12.021   0.299   9.884 -0.1833 -0.3074 -0.0142
  393loPI   C2A 6280  12.128   0.333   9.530  0.0919 -0.0006  0.2356
  393loPI   C3A 6281  12.185   0.418   9.082 -0.3901 -0.2488  0.2090
  393loPI   C4A 6282  12.157   0.249   8.646  0.3013 -0.1285  0.3854
  393loPI   C5A 6283  12.014   0.071   8.267 -0.0217  0.0107  0.2567
  393loPI   C6A 6284  12.031  -0.168   7.820  0.0064 -0.0276 -0.0235
  393loPI   C1B 6285  11.615   0.815   9.890  0.0131 -0.0849  0.1424
  393loPI   C2B 6286  11.439   0.838   9.550  0.1531 -0.5788  0.0283
  393loPI   C3B 6287  11.250   1.042   9.186  0.2254  0.1889 -0.1831
  393loPI   C4B 6288  11.388   1.043   8.797  0.0217 -0.1319  0.1900
  394loPI    C1 6289   4.776   3.262  10.428 -0.2076  0.0690  0.0760
  394loPI    C2 6290   4.855   2.893  10.294  0.0891  0.2440 -0.2453
  394loPI    C3 6291   4.810   2.958  10.686  0.0994 -0.1206 -0.1805
  394loPI   PO4 6292   4.610   3.343  10.280 -0.0877  0.3172  0.1596
  394loPI   GL1 6293   4.441   3.136  10.009  0.2855 -0.0691  0.1506
  394loPI   GL2 6294   4.736   3.223   9.777  0.3755  0.0695 -0.2264
  394loPI   C1A 6295   4.439   2.859   9.630  0.0500  0.0618 -0.1076
  394loPI   C2A 6296   4.457   2.864   9.214 -0.1194 -0.2379 -0.0979
  394loPI   C3A 6297   4.180   2.979   8.814 -0.1743  0.1401 -0.0553
  394loPI   C4A 6298   4.111   3.293   8.576  0.1373 -0.0756  0.0320
  394loPI   C5A 6299   3.931   3.660   8.431  0.1898 -0.1740 -0.0518
  394loPI   C6A 6300   3.886   3.782   7.976 -0.0389 -0.0131 -0.0719
  394loPI   C1B 6301   4.513   3.321   9.378  0.2330  0.1359 -0.0562
  394loPI   C2B 6302   4.529   3.392   8.876  0.1300 -0.0123 -0.3008
  394loPI   C3B 6303   4.689   3.138   8.549 -0.0894  0.4405 -0.0876
  394loPI   C4B 6304   4.899   3.010   8.262  0.3440 -0.0054  0.1348
  395loPI    C1 6305  14.101  14.751  10.868 -0.0924  0.0873 -0.0690
  395loPI    C2 6306  13.882  14.738  11.202  0.0474  0.0271  0.0214
  395loPI    C3 6307  14.280  14.708  11.223  0.0649  0.1313 -0.1420
  395loPI   PO4 6308  14.014  14.951  10.731 -0.0972 -0.0237 -0.1766
  395loPI   GL1 6309  13.838  15.278  10.315 -0.0557 -0.1134  0.0919
  395loPI   GL2 6310  14.210  15.338  10.320 -0.0318  0.2141 -0.0825
  395loPI   C1A 6311  13.856  15.428   9.871  0.1659  0.2673  0.0534
  395loPI   C2A 6312  13.822  15.443   9.404 -0.0465 -0.1507  0.2374
  395loPI   C3A 6313  13.832  15.351   9.040  0.0473  0.0433  0.1875
  395loPI   C4A 6314  13.697  15.398   8.575 -0.0567  0.0307 -0.1438
  395loPI   C5A 6315  13.724  15.710   8.233 -0.1330 -0.2368 -0.0512
  395loPI   C6A 6316  13.580  16.108   7.990  0.2942  0.3818  0.1387
  395loPI   C1B 6317  14.207  15.122   9.882 -0.0890 -0.0495  0.1274
  395loPI   C2B 6318  14.186  15.023   9.451 -0.0879 -0.0662  0.1603
  395loPI   C3B 6319  14.178  14.974   9.037  0.1933  0.0476  0.0066
  395loPI   C4B 6320  14.045  15.029   8.637  0.2087  0.1647 -0.2668
  396loPI    C1 6321   7.149   3.411  10.763 -0.0713  0.0383 -0.0513
  396loPI    C2 6322   7.516   3.290  10.868 -0.1378 -0.0848  0.0419
  396loPI    C3 6323   7.307   3.085  10.594 -0.0843  0.0627 -0.1109
  396loPI   PO4 6324   7.220   3.710  10.665  0.2065 -0.1011  0.1350
  396loPI   GL1 6325   7.195   3.988  10.354 -0.2340  0.0514 -0.1455
  396loPI   GL2 6326   6.905   4.074  10.257 -0.0367  0.0063  0.0302
  396loPI   C1A 6327   7.417   3.930   9.946 -0.1430  0.0601  0.0879
  396loPI   C2A 6328   7.383   3.898   9.513  0.1597 -0.1435 -0.0658
  396loPI   C3A 6329   7.434   3.851   9.170  0.1901 -0.1081  0.0194
  396loPI   C4A 6330   7.367   3.896   8.758 -0.3147  0.0279 -0.0335
  396loPI   C5A 6331   7.229   3.889   8.332  0.0196  0.1972 -0.2433
  396loPI   C6A 6332   6.861   3.733   8.002  0.2136 -0.2872 -0.3294
  396loPI   C1B 6333   6.805   4.027   9.769  0.0143 -0.1450 -0.0946
  396loPI   C2B 6334   6.909   3.986   9.340 -0.1800 -0.2665 -0.0128
  396loPI   C3B 6335   6.882   3.963   8.870 -0.1620 -0.0835  0.1221
  396loPI   C4B 6336   6.767   3.888   8.453 -0.0747 -0.2096 -0.0805
  397loPI    C1 6337   0.892   2.061  10.732  0.1766 -0.0711 -0.0361
  397loPI    C2 6338   1.205   2.055  10.981  0.1089 -0.1253  0.0479
  397loPI    C3 6339   0.844   2.166  11.115  0.1249  0.0959 -0.0871
  397loPI   PO4 6340   1.088   1.823  10.520 -0.0762  0.0446 -0.0296
  397loPI   GL1 6341   1.393   1.649  10.220  0.4038 -0.3347  0.3371
  397loPI   GL2 6342   1.419   1.365  10.136 -0.1625 -0.0426 -0.3932
  397loPI   C1A 6343   1.605   1.883   9.840 -0.1200  0.2793  0.2371
  397loPI   C2A 6344   1.907   1.914   9.562 -0.1158 -0.1875  0.3491
  397loPI   C3A 6345   1.719   2.106   9.210 -0.0443 -0.3165  0.2080
  397loPI   C4A 6346   1.472   1.938   8.883 -0.3806 -0.3870 -0.3694
  397loPI   C5A 6347   1.494   2.074   8.454 -0.4115  0.1809 -0.5874
  397loPI   C6A 6348   1.667   2.216   8.152  0.3985 -0.3102  0.0950
  397loPI   C1B 6349   1.352   1.328   9.709 -0.2585 -0.0999  0.1360
  397loPI   C2B 6350   1.454   1.236   9.300  0.0284 -0.5310 -0.1522
  397loPI   C3B 6351   1.349   1.308   8.832  0.2986 -0.1062  0.0235
  397loPI   C4B 6352   1.497   1.346   8.415  0.0743  0.1428  0.0412
  398loPI    C1 6353   7.556  10.612  10.772 -0.1307 -0.1306 -0.1425
  398loPI    C2 6354   7.540  10.840  11.100 -0.1340 -0.0565 -0.1939
  398loPI    C3 6355   7.494  10.444  11.129  0.1773 -0.0861 -0.0656
  398loPI   PO4 6356   7.386  10.731  10.605  0.0680  0.0865  0.1484
  398loPI   GL1 6357   7.510  10.889  10.241 -0.0058  0.2924  0.0742
  398loPI   GL2 6358   7.204  11.011  10.195 -0.5388  0.1721 -0.3129
  398loPI   C1A 6359   7.769  11.124   9.952  0.0637  0.2248  0.2586
  398loPI   C2A 6360   7.901  11.114   9.548 -0.0611 -0.0314  0.0981
  398loPI   C3A 6361   7.879  11.122   9.182  0.1271 -0.1868  0.0466
  398loPI   C4A 6362   7.829  11.074   8.771  0.0549 -0.0053 -0.0176
  398loPI   C5A 6363   7.719  11.306   8.439  0.3125 -0.0256  0.2615
  398loPI   C6A 6364   7.433  11.316   8.177 -0.0615 -0.0213  0.0484
  398loPI   C1B 6365   7.370  11.006   9.696 -0.1690  0.1992 -0.0950
  398loPI   C2B 6366   7.472  10.934   9.297 -0.2684 -0.0766 -0.1902
  398loPI   C3B 6367   7.414  10.847   8.900 -0.0061 -0.2239  0.1389
  398loPI   C4B 6368   7.186  10.434   8.734  0.0875  0.0222  0.0572
  399loPI    C1 6369   4.408   0.760  10.899 -0.1503  0.2187  0.0122
  399loPI    C2 6370   4.319   0.614  11.261 -0.3987  0.3131 -0.0089
  399loPI    C3 6371   4.593   0.903  11.224  0.0109 -0.0568  0.0454
  399loPI   PO4 6372   4.294   0.589  10.692  0.0784  0.1412  0.0223
  399loPI   GL1 6373   4.291   0.624  10.259  0.3901 -0.0991  0.2126
  399loPI   GL2 6374   3.968   0.495  10.077  0.2759 -0.2023  0.2524
  399loPI   C1A 6375   4.469   0.693   9.787 -0.2650 -0.3553  0.2018
  399loPI   C2A 6376   4.404   0.669   9.367 -0.1583  0.1685 -0.0887
  399loPI   C3A 6377   4.379   0.787   8.957  0.1682 -0.0029  0.0666
  399loPI   C4A 6378   4.296   0.677   8.445  0.1000  0.4001 -0.3081
  399loPI   C5A 6379   4.192   0.750   8.042  0.2459 -0.0551 -0.0102
  399loPI   C6A 6380   4.094   0.849   7.571 -0.1202 -0.0218  0.0170
  399loPI   C1B 6381   3.961   0.487   9.674 -0.1908 -0.3412 -0.1665
  399loPI   C2B 6382   3.974   0.410   9.240  0.3778  0.1854  0.3142
  399loPI   C3B 6383   3.956   0.415   8.808 -0.0875  0.0558  0.1706
  399loPI   C4B 6384   3.833   0.608   8.386 -0.2406  0.1606 -0.0825
  400loPI    C1 6385  13.110   7.651  11.245 -0.2465  0.3820  0.0677
  400loPI    C2 6386  13.280   7.832  10.932 -0.2154  0.0722 -0.0983
  400loPI    C3 6387  13.351   7.965  11.303  0.2643  0.0485 -0.1742
  400loPI   PO4 6388  13.103   7.406  11.126 -0.1657  0.0949  0.1421
  400loPI   GL1 6389  13.049   7.395  10.641  0.3591  0.2255 -0.1886
  400loPI   GL2 6390  12.955   7.142  10.672  0.1418 -0.4357 -0.4179
  400loPI   C1A 6391  13.287   7.698  10.420  0.0817 -0.1576  0.2563
  400loPI   C2A 6392  13.373   7.806   9.876  0.2371  0.0144  0.0139
  400loPI   C3A 6393  13.391   7.683   9.477 -0.1133  0.0838  0.2001
  400loPI   C4A 6394  13.306   7.766   9.100 -0.1053  0.1627  0.0811
  400loPI   C5A 6395  13.342   7.746   8.688 -0.1121 -0.3800  0.3314
  400loPI   C6A 6396  13.461   7.527   8.286  0.0877 -0.0177  0.1533
  400loPI   C1B 6397  13.075   6.953  10.304 -0.1313  0.0376 -0.1647
  400loPI   C2B 6398  13.075   6.920   9.841 -0.0737  0.2126 -0.0818
  400loPI   C3B 6399  13.003   6.921   9.450  0.1156 -0.0366 -0.3939
  400loPI   C4B 6400  13.052   6.967   9.078  0.0066  0.1413  0.3317
  401loPI    C1 6401  17.211  11.705  10.887  0.1169  0.0317  0.0275
  401loPI    C2 6402  16.901  11.513  10.723  0.2680 -0.1585 -0.0387
  401loPI    C3 6403  16.958  11.500  11.118 -0.1101  0.3208  0.0404
  401loPI   PO4 6404  17.197  11.961  10.824  0.0604  0.1289 -0.0925
  401loPI   GL1 6405  17.185  12.160  10.376 -0.0543 -0.1505 -0.2143
  401loPI   GL2 6406  17.110  11.873  10.351  0.1445 -0.0940 -0.0295
  401loPI   C1A 6407  17.358  12.300   9.964 -0.1441  0.1145 -0.3150
  401loPI   C2A 6408  17.318  12.344   9.495 -0.2871 -0.0938 -0.0659
  401loPI   C3A 6409  17.345  12.231   9.048 -0.1016 -0.1984  0.1054
  401loPI   C4A 6410  17.360  12.084   8.723  0.0006 -0.2457  0.0736
  401loPI   C5A 6411  17.728  11.792   8.634  0.1335  0.1563  0.3902
  401loPI   C6A 6412  18.046  11.563   8.796  0.0540  0.2220 -0.4633
  401loPI   C1B 6413  17.165  11.780   9.934  0.2413  0.1818  0.2771
  401loPI   C2B 6414  17.216  11.748   9.464 -0.0198  0.0969 -0.0411
  401loPI   C3B 6415  17.199  11.719   9.112  0.1742 -0.3129  0.0452
  401loPI   C4B 6416  17.166  11.599   8.727 -0.1756  0.0806  0.2139
  402loPI    C1 6417  15.425   5.260  10.952 -0.0861  0.1842 -0.1273
  402loPI    C2 6418  15.585   5.506  11.225  0.0520  0.0568 -0.0922
  402loPI    C3 6419  15.349   5.652  10.937 -0.2004  0.1764  0.1706
  402loPI   PO4 6420  15.622   5.138  10.813  0.1786  0.1801 -0.3271
  402loPI   GL1 6421  15.635   5.352  10.416 -0.1423 -0.0887  0.1276
  402loPI   GL2 6422  15.391   5.495  10.474 -0.0175  0.0776  0.5137
  402loPI   C1A 6423  15.552   5.343  10.002 -0.3733  0.0686  0.3176
  402loPI   C2A 6424  15.558   5.372   9.524 -0.0491  0.0540  0.0179
  402loPI   C3A 6425  15.493   5.389   9.119 -0.0612 -0.0881 -0.2378
  402loPI   C4A 6426  15.510   5.401   8.711 -0.0790  0.0483 -0.1171
  402loPI   C5A 6427  15.460   5.340   8.239  0.1643  0.1153 -0.1016
  402loPI   C6A 6428  15.391   5.495   7.833 -0.4495 -0.0966 -0.3232
  402loPI   C1B 6429  15.188   5.612  10.194 -0.0951 -0.2506  0.1212
  402loPI   C2B 6430  15.121   5.589   9.772 -0.1586  0.1442  0.0783
  402loPI   C3B 6431  15.019   5.582   9.297  0.3513 -0.4081  0.3312
  402loPI   C4B 6432  15.059   5.582   8.774  0.1828 -0.0619 -0.2345
  403loPI    C1 6433  17.851  11.037  11.182 -0.1648  0.1152 -0.0222
  403loPI    C2 6434  18.203  11.177  11.312 -0.0834 -0.0406 -0.0720
  403loPI    C3 6435  17.875  11.221  11.537 -0.0003 -0.0459  0.0521
  403loPI   PO4 6436  17.779  11.120  10.958 -0.0485 -0.1168 -0.2712
  403loPI   GL1 6437  17.656  11.066  10.556 -0.1270  0.1474  0.0953
  403loPI   GL2 6438  17.443  10.924  10.512 -0.1282  0.0343 -0.0779
  403loPI   C1A 6439  17.908  11.168  10.087  0.0251  0.1330  0.0193
  403loPI   C2A 6440  17.887  11.104   9.638  0.2127 -0.0652  0.1170
  403loPI   C3A 6441  17.939  11.037   9.184 -0.2050  0.1431  0.1837
  403loPI   C4A 6442  18.006  11.031   8.738 -0.0434 -0.0051 -0.1030
  403loPI   C5A 6443  18.132  11.264   8.432 -0.1739  0.0960 -0.0056
  403loPI   C6A 6444  18.571  11.190   8.148  0.0353  0.2567 -0.2452
  403loPI   C1B 6445  17.504  10.888  10.112 -0.0607 -0.0067  0.2820
  403loPI   C2B 6446  17.399  10.875   9.647  0.1106 -0.0795  0.0918
  403loPI   C3B 6447  17.344  10.829   9.281 -0.0279  0.2296 -0.1771
  403loPI   C4B 6448  17.403  10.861   8.838  0.0509 -0.2260 -0.1712
  404loPI    C1 6449   6.694  15.086  10.939 -0.1784  0.3849 -0.1751
  404loPI    C2 6450   7.070  15.218  10.967 -0.0428 -0.0193 -0.0127
  404loPI    C3 6451   6.838  15.205  11.293 -0.0871 -0.0854 -0.0468
  404loPI   PO4 6452   6.625  15.191  10.669  0.0675  0.0355 -0.1038
  404loPI   GL1 6453   6.652  15.325  10.189  0.0018 -0.2744 -0.1913
  404loPI   GL2 6454   6.456  15.032  10.242 -0.1097  0.1023  0.3492
  404loPI   C1A 6455   6.681  15.473   9.730 -0.0911 -0.1417  0.0476
  404loPI   C2A 6456   6.633  15.627   9.353 -0.0925 -0.0363 -0.2315
  404loPI   C3A 6457   6.697  15.701   8.946  0.0582  0.1551  0.1101
  404loPI   C4A 6458   6.827  15.646   8.472 -0.1673 -0.1768 -0.2350
  404loPI   C5A 6459   7.150  15.570   8.157  0.1170  0.0707  0.1719
  404loPI   C6A 6460   7.556  15.356   8.243 -0.4254 -0.0107 -0.0821
  404loPI   C1B 6461   6.389  14.956   9.784 -0.0147  0.0507  0.2106
  404loPI   C2B 6462   6.204  14.689   9.485  0.0923  0.0165  0.1374
  404loPI   C3B 6463   6.149  14.279   9.388  0.1699  0.3930  0.1134
  404loPI   C4B 6464   6.030  14.217   9.014 -0.2867 -0.0096  0.0535
  405loPI    C1 6465   0.891   5.275  10.800 -0.1008 -0.0187  0.0430
  405loPI    C2 6466   1.172   5.198  11.073 -0.0251  0.2057  0.0303
  405loPI    C3 6467   1.009   4.898  10.864  0.1474  0.0663  0.0932
  405loPI   PO4 6468   1.046   5.536  10.727  0.2972  0.1396  0.1775
  405loPI   GL1 6469   0.930   5.752  10.485 -0.0708 -0.1240  0.2058
  405loPI   GL2 6470   0.954   5.479  10.170 -0.0858 -0.2178 -0.2140
  405loPI   C1A 6471   0.885   6.053  10.086  0.1030 -0.2639  0.1518
  405loPI   C2A 6472   1.183   6.280   9.863  0.1486  0.2775 -0.2981
  405loPI   C3A 6473   1.165   6.346   9.392 -0.1736  0.2491 -0.1600
  405loPI   C4A 6474   1.167   6.366   8.892 -0.0179 -0.4533  0.1330
  405loPI   C5A 6475   1.198   6.546   8.551 -0.0253  0.4005  0.1088
  405loPI   C6A 6476   0.981   6.766   8.162 -0.0397  0.3426 -0.0683
  405loPI   C1B 6477   0.627   5.684   9.816  0.2573  0.1667  0.0627
  405loPI   C2B 6478   0.748   5.972   9.433 -0.0388 -0.4072  0.2369
  405loPI   C3B 6479   0.777   6.096   8.939  0.0122  0.0582  0.0525
  405loPI   C4B 6480   0.652   5.884   8.597  0.0843  0.1498  0.1676
  406loPI    C1 6481  12.047  17.018  11.099 -0.0196 -0.0628  0.1312
  406loPI    C2 6482  11.930  17.090  11.475 -0.3798 -0.0866  0.0276
  406loPI    C3 6483  12.163  16.775  11.395 -0.1246  0.0397  0.2577
  406loPI   PO4 6484  11.801  17.052  10.878  0.1834  0.2738 -0.2965
  406loPI   GL1 6485  11.688  16.975  10.437  0.0095  0.0890 -0.0132
  406loPI   GL2 6486  11.718  17.220  10.412 -0.0725  0.1385 -0.2583
  406loPI   C1A 6487  11.642  16.857   9.955  0.0781  0.2776 -0.0355
  406loPI   C2A 6488  11.756  16.709   9.510 -0.2347  0.4720 -0.0925
  406loPI   C3A 6489  11.326  16.498   9.336 -0.1286  0.3224 -0.2133
  406loPI   C4A 6490  11.164  16.038   9.344 -0.0448 -0.1215 -0.0262
  406loPI   C5A 6491  11.263  15.857   9.005 -0.1995 -0.1580  0.2797
  406loPI   C6A 6492  11.725  15.966   8.792  0.1430 -0.1642 -0.0562
  406loPI   C1B 6493  11.548  17.403   9.980 -0.2780 -0.0267 -0.0416
  406loPI   C2B 6494  11.500  17.195   9.593  0.0353  0.0277 -0.1126
  406loPI   C3B 6495  11.370  16.944   9.217  0.1490  0.0742  0.3122
  406loPI   C4B 6496  11.299  16.829   8.845  0.1500 -0.2420 -0.2576
  407loPI    C1 6497  12.633   7.389  11.043 -0.1045 -0.0669  0.1032
  407loPI    C2 6498  12.450   7.211  11.351 -0.1731 -0.0867  0.0512
  407loPI    C3 6499  12.641   7.558  11.406 -0.1885 -0.0881  0.1151
  407loPI   PO4 6500  12.502   7.363  10.886  0.2620 -0.1610 -0.0066
  407loPI   GL1 6501  12.565   7.499  10.481 -0.0263  0.0809  0.0034
  407loPI   GL2 6502  12.527   7.784  10.321  0.1214 -0.1085  0.2012
  407loPI   C1A 6503  12.966   7.467  10.074  0.0759  0.2153  0.0569
  407loPI   C2A 6504  13.090   7.383   9.691 -0.0597  0.0962  0.0860
  407loPI   C3A 6505  12.908   7.434   9.322  0.1848  0.1572 -0.1576
  407loPI   C4A 6506  12.982   7.444   8.909 -0.1441 -0.3632  0.2498
  407loPI   C5A 6507  12.792   7.507   8.514 -0.1736  0.1971  0.0771
  407loPI   C6A 6508  12.822   7.518   8.093 -0.1745 -0.0411  0.4764
  407loPI   C1B 6509  12.505   7.616   9.927 -0.0735 -0.0696 -0.1214
  407loPI   C2B 6510  12.454   7.556   9.473 -0.0703  0.1612  0.1196
  407loPI   C3B 6511  12.556   7.685   9.012 -0.2222 -0.0456  0.4149
  407loPI   C4B 6512  12.485   7.895   8.593 -0.0413  0.1923 -0.1074
  408loPI    C1 6513  15.336  13.704  11.223 -0.1449 -0.3913  0.0099
  408loPI    C2 6514  15.089  13.740  11.535  0.1164  0.3837  0.1490
  408loPI    C3 6515  15.454  13.587  11.587 -0.0241  0.0275  0.1115
  408loPI   PO4 6516  15.166  13.620  11.045  0.2150  0.0989  0.0148
  408loPI   GL1 6517  15.003  13.653  10.631  0.0258  0.2409  0.1119
  408loPI   GL2 6518  14.843  13.379  10.457  0.1365 -0.1530 -0.0762
  408loPI   C1A 6519  15.266  13.524  10.290  0.0864 -0.0199  0.1314
  408loPI   C2A 6520  15.249  13.516   9.825  0.0098  0.2879 -0.1575
  408loPI   C3A 6521  15.261  13.550   9.324  0.3119  0.0995  0.2815
  408loPI   C4A 6522  15.235  13.485   8.944 -0.2863 -0.1370 -0.1765
  408loPI   C5A 6523  15.277  13.395   8.422  0.1319 -0.2193 -0.2427
  408loPI   C6A 6524  15.013  13.647   8.202 -0.2456 -0.0931 -0.3340
  408loPI   C1B 6525  14.753  13.393   9.976  0.3691  0.0139  0.0104
  408loPI   C2B 6526  14.793  13.308   9.525 -0.1095  0.2732  0.1223
  408loPI   C3B 6527  14.697  13.348   9.108  0.1148 -0.2669 -0.0844
  408loPI   C4B 6528  14.737  13.285   8.770 -0.1539  0.2188  0.1544
  409loPI    C1 6529  10.875  14.508  11.027  0.0939  0.1060 -0.0829
  409loPI    C2 6530  10.586  14.726  11.197  0.1044  0.0065  0.0652
  409loPI    C3 6531  10.940  14.685  11.380  0.0808 -0.1858  0.0696
  409loPI   PO4 6532  10.871  14.609  10.791 -0.0557  0.2271 -0.1788
  409loPI   GL1 6533  10.773  14.441  10.436 -0.0022 -0.2908  0.2938
  409loPI   GL2 6534  10.497  14.182  10.166  0.1277  0.1675  0.0230
  409loPI   C1A 6535  10.938  14.351   9.982 -0.1428  0.3393  0.2093
  409loPI   C2A 6536  10.909  14.439   9.568  0.0966 -0.1905  0.0171
  409loPI   C3A 6537  10.905  14.362   9.101  0.1317 -0.2950 -0.1063
  409loPI   C4A 6538  10.861  14.342   8.681 -0.0154  0.1312 -0.2068
  409loPI   C5A 6539  10.922  14.312   8.339 -0.2147  0.1888  0.0247
  409loPI   C6A 6540  11.043  13.942   8.043 -0.3237  0.0293 -0.0215
  409loPI   C1B 6541  10.481  14.182   9.730 -0.0709 -0.2198  0.0384
  409loPI   C2B 6542  10.453  14.192   9.291  0.0722 -0.1244 -0.1878
  409loPI   C3B 6543  10.390  14.193   8.852  0.2731 -0.1654 -0.0449
  409loPI   C4B 6544  10.430  14.343   8.472  0.3661  0.0685  0.3659
  410loPI    C1 6545  13.609  12.261  11.082  0.0520  0.1528 -0.0785
  410loPI    C2 6546  13.571  11.904  11.257  0.1542 -0.0316 -0.4240
  410loPI    C3 6547  13.505  12.237  11.467 -0.4283 -0.2601 -0.2237
  410loPI   PO4 6548  13.644  12.201  10.809 -0.1173  0.0308  0.1279
  410loPI   GL1 6549  13.665  12.025  10.410  0.1106  0.0612 -0.2961
  410loPI   GL2 6550  13.707  11.703  10.349  0.1093  0.0694  0.2040
  410loPI   C1A 6551  13.643  11.972   9.980  0.1103  0.1969  0.3283
  410loPI   C2A 6552  13.643  11.918   9.563 -0.0949 -0.1750  0.0129
  410loPI   C3A 6553  13.591  11.922   9.115  0.1539 -0.4894 -0.0890
  410loPI   C4A 6554  13.542  11.937   8.719  0.1994  0.1521  0.3169
  410loPI   C5A 6555  13.500  12.013   8.324 -0.2393  0.1499 -0.2255
  410loPI   C6A 6556  13.475  12.299   8.020  0.0336 -0.2475  0.1393
  410loPI   C1B 6557  13.898  11.495  10.036  0.0058 -0.4041  0.1107
  410loPI   C2B 6558  14.013  11.612   9.628 -0.2914  0.1388 -0.3740
  410loPI   C3B 6559  13.957  11.618   9.198  0.1902  0.2230  0.1268
  410loPI   C4B 6560  13.893  11.624   8.829 -0.2903 -0.0833 -0.2100
  411loPI    C1 6561  15.817   1.497  10.531  0.1288  0.0174  0.2123
  411loPI    C2 6562  15.444   1.611  10.621  0.0243 -0.1392 -0.0117
  411loPI    C3 6563  15.714   1.559  10.912 -0.1991 -0.2705  0.1752
  411loPI   PO4 6564  15.868   1.650  10.330 -0.1181 -0.2316  0.0895
  411loPI   GL1 6565  15.847   1.792   9.957  0.2200  0.2715  0.0053
  411loPI   GL2 6566  15.665   2.087   9.890 -0.0627 -0.1114 -0.0742
  411loPI   C1A 6567  15.736   1.573   9.629 -0.0119  0.2014  0.2282
  411loPI   C2A 6568  15.848   1.593   9.200  0.0312  0.1110  0.0926
  411loPI   C3A 6569  16.014   1.498   8.844 -0.1159 -0.1783  0.1078
  411loPI   C4A 6570  16.271   1.492   8.536 -0.1478 -0.1674 -0.0984
  411loPI   C5A 6571  16.154   1.686   8.115 -0.0987  0.3092  0.0081
  411loPI   C6A 6572  16.418   1.745   7.784 -0.0745 -0.0784  0.0140
  411loPI   C1B 6573  15.584   2.077   9.441 -0.0131 -0.0585  0.1697
  411loPI   C2B 6574  15.570   2.010   9.023 -0.0439  0.0083 -0.1507
  411loPI   C3B 6575  15.890   1.956   8.679  0.1956  0.1053 -0.1649
  411loPI   C4B 6576  15.971   2.091   8.394  0.0708 -0.3795 -0.0113
  412loPI    C1 6577   3.441  17.820  10.752  0.0809 -0.1209 -0.0509
  412loPI    C2 6578   3.385  17.759  11.143  0.1936  0.0937  0.0002
  412loPI    C3 6579   3.550  17.473  10.918 -0.2636 -0.1969  0.0224
  412loPI   PO4 6580   3.224  17.834  10.615 -0.1921 -0.0509  0.0210
  412loPI   GL1 6581   3.239  17.851  10.109  0.2349 -0.1468  0.1626
  412loPI   GL2 6582   3.266  17.575  10.007 -0.0805  0.1322  0.2522
  412loPI   C1A 6583   3.345  18.007   9.769 -0.1788  0.0888 -0.2321
  412loPI   C2A 6584   3.364  18.089   9.394  0.1201 -0.0141 -0.1043
  412loPI   C3A 6585   3.419  18.055   9.005  0.1283  0.2215  0.1193
  412loPI   C4A 6586   3.399  18.137   8.643  0.1978 -0.1900  0.1328
  412loPI   C5A 6587   3.520  18.013   8.305 -0.1945  0.2175 -0.0450
  412loPI   C6A 6588   3.284  17.915   7.956 -0.2579 -0.3060  0.0427
  412loPI   C1B 6589   3.217  17.561   9.567  0.1605 -0.1365 -0.1404
  412loPI   C2B 6590   3.307  17.532   9.189  0.0447  0.2777 -0.0330
  412loPI   C3B 6591   3.350  17.644   8.813  0.4667  0.0681 -0.0159
  412loPI   C4B 6592   3.346  17.531   8.419 -0.1649  0.2823 -0.2585
  413loPI    C1 6593  15.682  17.093  11.090  0.1577  0.6553 -0.1587
  413loPI    C2 6594  15.581  17.156  11.472  0.0531  0.1351 -0.0923
  413loPI    C3 6595  15.945  17.019  11.382 -0.0647 -0.1524 -0.1398
  413loPI   PO4 6596  15.431  16.973  10.992 -0.1594  0.0901 -0.3109
  413loPI   GL1 6597  15.313  16.901  10.505  0.1855  0.1830  0.0315
  413loPI   GL2 6598  15.579  16.883  10.506 -0.2310  0.0846 -0.1391
  413loPI   C1A 6599  15.198  16.845  10.132 -0.0448  0.3282  0.1969
  413loPI   C2A 6600  15.284  16.447   9.833 -0.4245 -0.1620 -0.1457
  413loPI   C3A 6601  15.374  16.365   9.434 -0.1241 -0.0721  0.0170
  413loPI   C4A 6602  15.287  16.356   9.007 -0.1350 -0.0839 -0.2204
  413loPI   C5A 6603  15.144  16.502   8.591  0.0320 -0.1836 -0.0891
  413loPI   C6A 6604  15.421  16.554   8.261 -0.3511  0.4654  0.2007
  413loPI   C1B 6605  15.729  16.716  10.015  0.0394  0.0827 -0.1582
  413loPI   C2B 6606  15.729  16.643   9.607  0.1158  0.0307  0.2881
  413loPI   C3B 6607  15.779  16.555   9.133  0.2493 -0.2449 -0.0544
  413loPI   C4B 6608  15.761  16.468   8.718  0.0061  0.1519 -0.3394
  414loPI    C1 6609   9.591   8.233  10.551 -0.1148 -0.2393  0.1029
  414loPI    C2 6610   9.587   8.380  10.923 -0.0662 -0.1584  0.0716
  414loPI    C3 6611   9.324   8.098  10.817 -0.1506 -0.1043  0.1361
  414loPI   PO4 6612   9.646   8.462  10.388 -0.0510  0.0135  0.1309
  414loPI   GL1 6613   9.691   8.343   9.953  0.0045 -0.0357  0.4579
  414loPI   GL2 6614   9.866   8.623   9.991  0.4147 -0.0496  0.2776
  414loPI   C1A 6615   9.859   8.443   9.474  0.1932 -0.0347 -0.3049
  414loPI   C2A 6616  10.128   8.294   9.126 -0.3259 -0.2307 -0.0872
  414loPI   C3A 6617  10.622   8.240   8.844  0.0437 -0.1461  0.1471
  414loPI   C4A 6618  10.819   8.297   8.428 -0.1811  0.0956  0.0155
  414loPI   C5A 6619  11.113   8.522   8.246 -0.1662 -0.2200  0.1669
  414loPI   C6A 6620  11.556   8.571   8.139  0.0700 -0.1518  0.0966
  414loPI   C1B 6621   9.501   8.761   9.629 -0.2445  0.1138 -0.0412
  414loPI   C2B 6622   9.271   8.664   9.192 -0.0565  0.1505 -0.4279
  414loPI   C3B 6623   9.329   8.706   8.707 -0.0152 -0.1004  0.5971
  414loPI   C4B 6624   9.262   8.769   8.283 -0.0112 -0.2005  0.0610
  415loPI    C1 6625  11.372  10.534  10.707  0.3661 -0.2416  0.1087
  415loPI    C2 6626  11.604  10.846  10.803 -0.0494  0.1098  0.0034
  415loPI    C3 6627  11.206  10.887  10.799 -0.1149 -0.4470  0.0566
  415loPI   PO4 6628  11.423  10.465  10.477 -0.2369  0.0875 -0.0659
  415loPI   GL1 6629  11.414  10.532  10.053  0.1191  0.3085  0.0797
  415loPI   GL2 6630  11.451  10.239   9.828 -0.1605  0.3944  0.0047
  415loPI   C1A 6631  11.495  10.798   9.737 -0.2630  0.0388  0.1464
  415loPI   C2A 6632  11.397  10.808   9.260  0.1748  0.0971  0.3658
  415loPI   C3A 6633  11.511  10.823   8.859  0.1020  0.0684  0.0535
  415loPI   C4A 6634  11.717  10.703   8.513 -0.0444  0.0998  0.0450
  415loPI   C5A 6635  11.882  10.494   8.242 -0.2869  0.0998 -0.0390
  415loPI   C6A 6636  12.088  10.124   8.173  0.5272 -0.2960  0.1612
  415loPI   C1B 6637  11.362  10.207   9.332 -0.3622 -0.1019  0.0736
  415loPI   C2B 6638  11.388  10.212   8.848  0.3845 -0.0724 -0.0352
  415loPI   C3B 6639  11.559  10.024   8.460  0.1463 -0.5845  0.0732
  415loPI   C4B 6640  11.618   9.558   8.346  0.1110 -0.0604  0.3425
  416loPI    C1 6641   0.239   4.286  11.115  0.5171 -0.1171  0.1567
  416loPI    C2 6642   0.253   4.587  11.378  0.2284  0.0549 -0.0200
  416loPI    C3 6643   0.236   4.209  11.507  0.0209  0.1407  0.2110
  416loPI   PO4 6644   0.012   4.347  10.972  0.2090 -0.0340 -0.0703
  416loPI   GL1 6645   0.123   4.477  10.534 -0.2851 -0.1811  0.3866
  416loPI   GL2 6646   0.180   4.238  10.291  0.1201  0.1025  0.0483
  416loPI   C1A 6647   0.190   4.757  10.189  0.0491  0.0463  0.0512
  416loPI   C2A 6648   0.115   4.854   9.700  0.0902 -0.2369 -0.2597
  416loPI   C3A 6649  -0.054   4.844   9.253 -0.2071  0.0303 -0.1715
  416loPI   C4A 6650   0.027   4.944   8.891  0.0266  0.1915  0.0697
  416loPI   C5A 6651  -0.014   4.984   8.429 -0.0715 -0.1229 -0.1181
  416loPI   C6A 6652  -0.268   5.010   7.949  0.0351 -0.0248  0.1392
  416loPI   C1B 6653   0.161   4.320   9.880  0.0071  0.1830 -0.0240
  416loPI   C2B 6654   0.076   4.359   9.394  0.0988 -0.1567  0.0501
  416loPI   C3B 6655   0.047   4.373   8.928 -0.0087  0.0177  0.0924
  416loPI   C4B 6656   0.148   4.485   8.538  0.0304 -0.1053  0.0326
  417loPI    C1 6657  16.476  11.301  11.025  0.3485  0.0080 -0.2499
  417loPI    C2 6658  16.181  11.513  11.193  0.2482  0.0133 -0.4298
  417loPI    C3 6659  16.531  11.472  11.382 -0.0237 -0.3905  0.0095
  417loPI   PO4 6660  16.400  11.383  10.699 -0.1899 -0.1850 -0.0411
  417loPI   GL1 6661  16.522  11.166  10.340  0.0245  0.3095  0.3875
  417loPI   GL2 6662  16.626  11.460  10.167  0.0923  0.1665  0.0630
  417loPI   C1A 6663  16.132  11.364  10.036  0.0305 -0.0367 -0.0835
  417loPI   C2A 6664  16.296  11.489   9.637 -0.1380  0.2795 -0.1312
  417loPI   C3A 6665  16.251  11.432   9.250 -0.1763  0.1056 -0.0939
  417loPI   C4A 6666  16.157  11.498   8.871 -0.1062 -0.1488  0.2316
  417loPI   C5A 6667  16.177  11.331   8.511 -0.0888 -0.2553 -0.1592
  417loPI   C6A 6668  15.950  11.333   8.115  0.0788  0.2431  0.1152
  417loPI   C1B 6669  16.748  11.574   9.733 -0.2419  0.0421 -0.2882
  417loPI   C2B 6670  16.731  11.623   9.301  0.1460  0.0417  0.2156
  417loPI   C3B 6671  16.686  11.531   8.869  0.0929  0.0065  0.2281
  417loPI   C4B 6672  16.706  11.558   8.527 -0.1327  0.0064  0.0129
  418loPI    C1 6673  17.938  12.031  11.082 -0.1254 -0.0781 -0.0603
  418loPI    C2 6674  17.561  12.156  11.127 -0.1575 -0.1931 -0.0047
  418loPI    C3 6675  17.754  11.987  11.434  0.0755  0.2241  0.0859
  418loPI   PO4 6676  17.938  11.907  10.866  0.0116 -0.0200  0.1804
  418loPI   GL1 6677  17.647  11.555  10.628 -0.2872 -0.0302 -0.2729
  418loPI   GL2 6678  17.863  11.505  10.433  0.3789 -0.2262  0.1387
  418loPI   C1A 6679  17.384  11.428  10.289 -0.0561 -0.4111  0.1897
  418loPI   C2A 6680  17.453  11.359   9.850 -0.1187  0.1152 -0.3446
  418loPI   C3A 6681  17.539  11.366   9.358 -0.1158  0.2337  0.3471
  418loPI   C4A 6682  17.557  11.320   9.011 -0.0101 -0.3098  0.2681
  418loPI   C5A 6683  17.580  11.314   8.582  0.2300 -0.0477  0.0587
  418loPI   C6A 6684  17.718  11.517   8.207  0.2137  0.1331  0.1865
  418loPI   C1B 6685  18.128  11.633  10.172 -0.2329  0.0729  0.0178
  418loPI   C2B 6686  18.163  11.576   9.724 -0.2248 -0.1911  0.0075
  418loPI   C3B 6687  17.997  11.551   9.353 -0.2510 -0.1060  0.1194
  418loPI   C4B 6688  17.707  11.833   9.174  0.0911 -0.1029 -0.1253
  419loPI    C1 6689  12.731   8.705  10.962 -0.1631  0.0613 -0.2004
  419loPI    C2 6690  12.332   8.706  10.943 -0.1810  0.2433  0.1264
  419loPI    C3 6691  12.516   8.589  11.279  0.0407  0.1772 -0.0164
  419loPI   PO4 6692  12.718   8.630  10.661  0.0716  0.2470 -0.2093
  419loPI   GL1 6693  12.556   8.793  10.422  0.0469 -0.1185  0.2666
  419loPI   GL2 6694  12.664   9.022  10.306  0.0405  0.2551  0.0479
  419loPI   C1A 6695  12.754   8.521  10.042 -0.2117 -0.1576 -0.1944
  419loPI   C2A 6696  12.787   8.443   9.648  0.3714 -0.0528 -0.0591
  419loPI   C3A 6697  12.822   8.549   9.287 -0.3083  0.2894 -0.0195
  419loPI   C4A 6698  12.952   8.557   8.797 -0.2912  0.4538  0.0759
  419loPI   C5A 6699  13.163   8.764   8.436 -0.2274 -0.1409 -0.0133
  419loPI   C6A 6700  13.435   9.009   8.301 -0.1204  0.0542  0.0432
  419loPI   C1B 6701  12.753   9.023   9.912 -0.0631  0.0517  0.3136
  419loPI   C2B 6702  12.804   9.021   9.482  0.0020 -0.0097 -0.1615
  419loPI   C3B 6703  12.824   9.047   9.046 -0.0159 -0.2307  0.2829
  419loPI   C4B 6704  12.882   9.151   8.667 -0.0201  0.3045 -0.0081
  420loPI    C1 6705   9.540  16.990  11.067 -0.0485 -0.0505  0.1826
  420loPI    C2 6706   9.938  17.016  11.099 -0.0633  0.5358  0.0151
  420loPI    C3 6707   9.705  17.298  11.261 -0.4036  0.3185 -0.0832
  420loPI   PO4 6708   9.402  16.945  10.863  0.1243  0.1192 -0.1766
  420loPI   GL1 6709   9.437  16.987  10.458  0.2836 -0.0857 -0.4153
  420loPI   GL2 6710   9.456  17.283  10.282 -0.0302 -0.0778 -0.0033
  420loPI   C1A 6711   9.504  16.854  10.009 -0.0323 -0.0889 -0.0131
  420loPI   C2A 6712   9.507  16.852   9.509 -0.1105 -0.0022 -0.0873
  420loPI   C3A 6713   9.529  16.785   9.153  0.1077  0.1033  0.0839
  420loPI   C4A 6714   9.534  16.783   8.673  0.0599 -0.0812 -0.2530
  420loPI   C5A 6715   9.417  16.778   8.281  0.2957 -0.0930  0.1570
  420loPI   C6A 6716   9.292  16.757   7.851 -0.1528  0.0566 -0.0538
  420loPI   C1B 6717   9.598  17.317   9.813 -0.0743  0.2229 -0.4414
  420loPI   C2B 6718   9.707  17.303   9.418  0.2798 -0.0362  0.0998
  420loPI   C3B 6719   9.602  17.360   8.984  0.0015  0.3005 -0.0544
  420loPI   C4B 6720   9.583  17.251   8.566 -0.0450  0.0215 -0.1254
  421loPI    C1 6721   0.317  14.615  10.782 -0.3898 -0.0141  0.0384
  421loPI    C2 6722   0.087  14.483  11.082 -0.1752 -0.1516  0.1444
  421loPI    C3 6723  -0.031  14.434  10.703 -0.3437 -0.1755  0.1994
  421loPI   PO4 6724   0.292  14.866  10.848  0.2399  0.0745  0.0309
  421loPI   GL1 6725   0.430  15.195  10.504 -0.0794  0.1747 -0.0344
  421loPI   GL2 6726   0.110  15.285  10.342  0.1088  0.0335 -0.0619
  421loPI   C1A 6727   0.454  15.098  10.006 -0.3163 -0.0621 -0.1226
  421loPI   C2A 6728   0.477  15.085   9.528 -0.1389  0.3763  0.0567
  421loPI   C3A 6729   0.366  15.167   9.059 -0.1382  0.0510  0.0491
  421loPI   C4A 6730   0.424  15.154   8.644 -0.0336 -0.1353  0.1053
  421loPI   C5A 6731   0.360  14.811   8.354 -0.0049 -0.1114  0.0599
  421loPI   C6A 6732   0.561  14.769   7.979  0.1417  0.2130  0.3164
  421loPI   C1B 6733  -0.010  15.386   9.799 -0.1600  0.1307 -0.2369
  421loPI   C2B 6734   0.005  15.450   9.358 -0.2697  0.3742 -0.0534
  421loPI   C3B 6735  -0.057  15.502   8.916 -0.0631  0.1619 -0.0610
  421loPI   C4B 6736   0.000  15.351   8.463 -0.1006  0.0607  0.0093
  422loPI    C1 6737  11.847   6.447  10.813  0.0835  0.1858 -0.1665
  422loPI    C2 6738  11.812   6.547  11.199  0.0765  0.3286 -0.2034
  422loPI    C3 6739  11.617   6.757  10.919  0.0200  0.1777 -0.2787
  422loPI   PO4 6740  12.168   6.395  10.796  0.1529 -0.1258 -0.0878
  422loPI   GL1 6741  12.396   6.363  10.425  0.0699 -0.1198 -0.2598
  422loPI   GL2 6742  12.006   6.206  10.377 -0.1264 -0.0820  0.1877
  422loPI   C1A 6743  12.363   6.226  10.023 -0.1172  0.0497  0.1292
  422loPI   C2A 6744  12.221   6.229   9.622  0.1531  0.0969 -0.1017
  422loPI   C3A 6745  11.985   6.184   9.216  0.0642  0.0361 -0.5571
  422loPI   C4A 6746  12.005   6.199   8.779  0.3123 -0.0560  0.2724
  422loPI   C5A 6747  12.081   6.505   8.423 -0.0615 -0.1370 -0.2782
  422loPI   C6A 6748  11.837   6.808   8.186  0.0887  0.1238  0.1721
  422loPI   C1B 6749  11.804   6.044   9.972  0.0440 -0.1095 -0.0372
  422loPI   C2B 6750  11.758   5.899   9.549 -0.0564  0.0424 -0.0308
  422loPI   C3B 6751  11.594   5.652   9.251  0.2047 -0.0242  0.3282
  422loPI   C4B 6752  11.642   5.613   8.882 -0.1190 -0.0354  0.2913
  423loPI    C1 6753   4.885   8.193  10.896  0.0487 -0.0689 -0.2444
  423loPI    C2 6754   5.122   8.506  10.974  0.1987 -0.2177 -0.0951
  423loPI    C3 6755   4.811   8.426  11.213  0.1103 -0.1344 -0.1816
  423loPI   PO4 6756   4.890   8.227  10.595  0.1151  0.1201  0.1434
  423loPI   GL1 6757   4.834   7.911  10.220  0.0133 -0.0655 -0.1387
  423loPI   GL2 6758   4.862   8.117  10.003  0.1793  0.3107  0.2063
  423loPI   C1A 6759   5.018   7.667   9.918 -0.0295 -0.1238  0.1007
  423loPI   C2A 6760   5.080   7.687   9.507  0.1030 -0.3920 -0.0769
  423loPI   C3A 6761   5.135   7.854   9.126 -0.1623 -0.1257  0.0177
  423loPI   C4A 6762   4.994   7.862   8.636  0.1629  0.0213  0.0890
  423loPI   C5A 6763   5.159   7.947   8.208 -0.2739 -0.1617  0.1229
  423loPI   C6A 6764   5.046   8.284   8.011  0.0387 -0.0597 -0.4221
  423loPI   C1B 6765   4.908   8.211   9.492 -0.1676 -0.1873 -0.1678
  423loPI   C2B 6766   4.899   8.309   9.156 -0.0790 -0.2448  0.1506
  423loPI   C3B 6767   4.838   8.355   8.783  0.1205  0.1414  0.2891
  423loPI   C4B 6768   4.772   8.513   8.411  0.1225  0.1986 -0.2435
  424loPI    C1 6769   5.100  17.736  10.496  0.0781 -0.0622  0.1475
  424loPI    C2 6770   5.017  17.965  10.814  0.1909 -0.0212  0.1477
  424loPI    C3 6771   5.273  17.660  10.849  0.0150 -0.1691  0.1557
  424loPI   PO4 6772   4.752  17.701  10.437 -0.1718 -0.1229  0.2474
  424loPI   GL1 6773   4.511  17.524  10.047  0.0729 -0.0908 -0.2795
  424loPI   GL2 6774   4.638  17.212  10.007  0.0394 -0.1577 -0.0460
  424loPI   C1A 6775   4.630  17.745   9.708  0.0930  0.0056  0.2222
  424loPI   C2A 6776   4.726  17.763   9.311  0.0255 -0.4724  0.2248
  424loPI   C3A 6777   4.750  17.670   8.885  0.1390  0.0931  0.0300
  424loPI   C4A 6778   4.704  17.609   8.409  0.1606  0.3220  0.3058
  424loPI   C5A 6779   4.957  17.659   8.025 -0.1273 -0.1209 -0.1905
  424loPI   C6A 6780   4.887  17.953   7.689  0.1402 -0.1667  0.1773
  424loPI   C1B 6781   4.672  17.197   9.472 -0.0038  0.0710  0.1977
  424loPI   C2B 6782   4.666  17.114   9.020 -0.3560 -0.0777  0.3530
  424loPI   C3B 6783   4.696  17.137   8.545 -0.1532 -0.1154 -0.0483
  424loPI   C4B 6784   4.722  17.086   8.103  0.4283 -0.0634  0.4565
  425loPI    C1 6785   1.060   8.524  11.128 -0.1831  0.1037  0.0111
  425loPI    C2 6786   1.084   8.289  11.451 -0.0793  0.1503  0.0375
  425loPI    C3 6787   1.010   8.680  11.492  0.1528  0.1974  0.0200
  425loPI   PO4 6788   1.250   8.370  10.962 -0.2035  0.0201 -0.1019
  425loPI   GL1 6789   1.171   8.324  10.466  0.1146 -0.0016 -0.0740
  425loPI   GL2 6790   1.497   8.514  10.555  0.1109  0.0171  0.0784
  425loPI   C1A 6791   0.999   8.228  10.083 -0.0459  0.1884 -0.1208
  425loPI   C2A 6792   0.845   8.303   9.654  0.0274 -0.1206 -0.1472
  425loPI   C3A 6793   0.797   8.328   9.263 -0.1140 -0.2395  0.0315
  425loPI   C4A 6794   0.882   8.556   8.916 -0.2425  0.0484  0.2629
  425loPI   C5A 6795   1.035   8.862   8.636 -0.0260  0.0167 -0.0499
  425loPI   C6A 6796   1.423   8.941   8.337 -0.1060  0.1996  0.0612
  425loPI   C1B 6797   1.320   8.703  10.179 -0.0419 -0.1360  0.1169
  425loPI   C2B 6798   1.245   8.670   9.666  0.1158 -0.0656 -0.0594
  425loPI   C3B 6799   1.246   8.568   9.244 -0.2342  0.0004 -0.0090
  425loPI   C4B 6800   1.432   8.764   8.962 -0.1135 -0.1741  0.1263
  426loPI    C1 6801   8.845  10.641  10.783  0.1488  0.2367  0.0749
  426loPI    C2 6802   9.051  10.304  10.848  0.3774  0.3767  0.0857
  426loPI    C3 6803   8.963  10.547  11.154 -0.1124  0.1457  0.1371
  426loPI   PO4 6804   8.934  10.774  10.590 -0.0476 -0.0945 -0.0171
  426loPI   GL1 6805   8.852  10.861  10.236 -0.0904 -0.1057 -0.2557
  426loPI   GL2 6806   8.825  11.204  10.252  0.0627 -0.1403  0.1056
  426loPI   C1A 6807   8.701  10.926   9.842  0.0393  0.0351 -0.0459
  426loPI   C2A 6808   8.764  10.889   9.504  0.0740  0.2184  0.2026
  426loPI   C3A 6809   8.706  10.904   9.099 -0.0614  0.1864 -0.0401
  426loPI   C4A 6810   8.701  10.832   8.664  0.0335  0.3181  0.1644
  426loPI   C5A 6811   8.733  10.478   8.313  0.0356 -0.1548  0.2023
  426loPI   C6A 6812   9.024  10.099   8.328 -0.1367  0.0688  0.0703
  426loPI   C1B 6813   8.864  11.433   9.946 -0.2459 -0.1445 -0.1573
  426loPI   C2B 6814   8.897  11.398   9.476 -0.3603 -0.1796  0.0949
  426loPI   C3B 6815   8.774  11.408   9.060 -0.1610 -0.2569 -0.0890
  426loPI   C4B 6816   8.718  11.421   8.631  0.1619 -0.0000  0.1445
  427loPI    C1 6817   9.898  12.403  10.776  0.1225 -0.2076  0.1653
  427loPI    C2 6818   9.738  12.451  11.139 -0.0277 -0.2274  0.1021
  427loPI    C3 6819   9.678  12.727  10.856  0.3641 -0.0460  0.1887
  427loPI   PO4 6820   9.846  12.207  10.729 -0.1457 -0.2577 -0.2457
  427loPI   GL1 6821   9.484  12.272  10.447  0.0284  0.0129  0.2959
  427loPI   GL2 6822   9.657  12.494  10.339  0.0668  0.1513  0.1910
  427loPI   C1A 6823   9.528  12.023  10.111  0.2061 -0.3628  0.1131
  427loPI   C2A 6824   9.539  12.078   9.756  0.0999  0.0016 -0.2186
  427loPI   C3A 6825   9.513  12.091   9.404  0.1286  0.0194  0.2583
  427loPI   C4A 6826   9.444  12.023   8.948 -0.0118  0.1762 -0.1589
  427loPI   C5A 6827   9.260  12.053   8.601  0.3625 -0.0514 -0.1094
  427loPI   C6A 6828   9.263  12.090   8.180 -0.0321  0.2020  0.1448
  427loPI   C1B 6829   9.707  12.525   9.982  0.2545 -0.2263 -0.0772
  427loPI   C2B 6830   9.697  12.570   9.524  0.0198  0.0178 -0.0872
  427loPI   C3B 6831   9.522  12.555   9.129 -0.0079 -0.1146  0.5118
  427loPI   C4B 6832   9.421  12.538   8.745  0.1402 -0.4552 -0.1302
  428loPI    C1 6833   1.975  16.154  10.585  0.0661  0.2404  0.2642
  428loPI    C2 6834   2.281  16.410  10.566  0.2852 -0.0383 -0.1244
  428loPI    C3 6835   2.348  16.017  10.546 -0.0584 -0.1283  0.3302
  428loPI   PO4 6836   1.811  16.246  10.423 -0.1864 -0.0873 -0.0520
  428loPI   GL1 6837   1.397  16.374  10.201  0.1637 -0.1257 -0.3081
  428loPI   GL2 6838   1.213  16.599  10.115 -0.0609  0.0549 -0.1451
  428loPI   C1A 6839   1.573  16.407   9.750 -0.2293 -0.0369  0.0479
  428loPI   C2A 6840   1.734  16.497   9.195 -0.0604  0.0721 -0.0387
  428loPI   C3A 6841   1.784  16.558   8.791 -0.3034 -0.0242  0.3563
  428loPI   C4A 6842   1.828  16.598   8.386  0.0835 -0.0422  0.2735
  428loPI   C5A 6843   1.831  16.963   8.092  0.1368 -0.0834 -0.3227
  428loPI   C6A 6844   1.601  17.111   7.746 -0.1474  0.0309  0.0063
  428loPI   C1B 6845   1.237  16.735   9.695 -0.3907 -0.1683  0.0876
  428loPI   C2B 6846   1.259  16.702   9.255  0.0590 -0.0793 -0.1111
  428loPI   C3B 6847   1.337  16.748   8.874  0.0103 -0.0348 -0.0197
  428loPI   C4B 6848   1.392  16.915   8.453  0.0411  0.2689  0.1926
  429loPI    C1 6849   2.360  13.202  10.899 -0.2726  0.2498  0.0001
  429loPI    C2 6850   2.325  12.965  11.219 -0.1094  0.1492 -0.0556
  429loPI    C3 6851   2.081  12.915  10.906  0.0650 -0.0901 -0.1561
  429loPI   PO4 6852   2.613  13.158  10.780 -0.1044 -0.3170  0.1011
  429loPI   GL1 6853   2.574  13.212  10.306  0.1229 -0.0748 -0.0487
  429loPI   GL2 6854   2.273  13.371  10.324 -0.0353  0.0069  0.0220
  429loPI   C1A 6855   2.838  13.164  10.056  0.3498  0.1970  0.3478
  429loPI   C2A 6856   2.765  13.028   9.630 -0.0100 -0.1366 -0.0354
  429loPI   C3A 6857   2.739  13.081   9.178 -0.1124 -0.0328 -0.2348
  429loPI   C4A 6858   2.714  12.985   8.770  0.1182  0.0519 -0.3668
  429loPI   C5A 6859   2.567  12.694   8.438  0.0882  0.1374 -0.0405
  429loPI   C6A 6860   2.638  12.722   7.934 -0.0838  0.1645  0.0538
  429loPI   C1B 6861   2.357  13.435   9.881 -0.0225 -0.1669 -0.1241
  429loPI   C2B 6862   2.407  13.379   9.498 -0.2369  0.0195 -0.0649
  429loPI   C3B 6863   2.367  13.360   9.030 -0.2063  0.1198 -0.0838
  429loPI   C4B 6864   2.349  13.360   8.598  0.0445  0.0822 -0.0845
  430loPI    C1 6865  13.206   2.042  10.706 -0.0283 -0.0363 -0.0161
  430loPI    C2 6866  13.315   2.419  10.784  0.2892 -0.1446  0.0782
  430loPI    C3 6867  13.198   2.178  11.082 -0.0986 -0.0673 -0.0061
  430loPI   PO4 6868  13.075   2.071  10.521 -0.0391 -0.1785 -0.2081
  430loPI   GL1 6869  13.059   1.798  10.129 -0.2106  0.2622 -0.0672
  430loPI   GL2 6870  13.022   1.487   9.982 -0.1466 -0.0913  0.1345
  430loPI   C1A 6871  13.019   2.006   9.693 -0.0887  0.1875  0.1811
  430loPI   C2A 6872  12.742   2.057   9.306 -0.3307 -0.0042 -0.0388
  430loPI   C3A 6873  12.612   2.037   8.860  0.3043 -0.2204 -0.1018
  430loPI   C4A 6874  12.564   1.773   8.591  0.3477 -0.0786  0.1381
  430loPI   C5A 6875  12.418   1.650   8.122  0.2658  0.1719  0.1068
  430loPI   C6A 6876  12.574   1.279   7.925  0.1619 -0.1093 -0.0066
  430loPI   C1B 6877  12.786   1.480   9.678  0.0285 -0.1813  0.1021
  430loPI   C2B 6878  12.820   1.207   9.352  0.1570  0.1894  0.1046
  430loPI   C3B 6879  12.793   1.125   9.020  0.2965 -0.3102 -0.1795
  430loPI   C4B 6880  12.537   1.237   8.598 -0.3442  0.2667 -0.1063
  431loPI    C1 6881   6.642   8.108  10.840  0.1206  0.1223 -0.0910
  431loPI    C2 6882   6.875   7.870  11.061 -0.2981 -0.2067  0.0105
  431loPI    C3 6883   6.872   8.264  11.128  0.1538 -0.2074  0.0664
  431loPI   PO4 6884   6.492   7.938  10.672 -0.1858 -0.1170  0.1309
  431loPI   GL1 6885   6.426   7.770  10.286 -0.2731 -0.1074  0.2516
  431loPI   GL2 6886   6.565   7.546  10.296  0.0412 -0.2146 -0.0677
  431loPI   C1A 6887   6.141   7.668   9.914  0.1400 -0.0161  0.2792
  431loPI   C2A 6888   6.079   7.628   9.516 -0.1596  0.0506  0.1916
  431loPI   C3A 6889   6.130   7.674   9.067  0.1943  0.0151  0.0014
  431loPI   C4A 6890   6.081   7.675   8.593  0.1882  0.1946 -0.0449
  431loPI   C5A 6891   5.952   7.654   8.246  0.0771 -0.1804 -0.3068
  431loPI   C6A 6892   5.770   7.851   7.922 -0.0130 -0.1134  0.0950
  431loPI   C1B 6893   6.613   7.607   9.825  0.1733  0.1146  0.2317
  431loPI   C2B 6894   6.578   7.640   9.338  0.1409 -0.1700 -0.1986
  431loPI   C3B 6895   6.637   7.653   8.913 -0.2050  0.0742 -0.0999
  431loPI   C4B 6896   6.559   7.579   8.450 -0.0956 -0.1050 -0.2624
  432loPI    C1 6897   2.097   0.420  11.002  0.0838  0.0800 -0.0990
  432loPI    C2 6898   1.716   0.500  11.091  0.0788 -0.0258 -0.0245
  432loPI    C3 6899   2.006   0.606  11.344  0.0945  0.0055 -0.0556
  432loPI   PO4 6900   2.119   0.481  10.801 -0.0897  0.1956  0.0900
  432loPI   GL1 6901   2.464   0.379  10.435 -0.1107  0.0931 -0.0586
  432loPI   GL2 6902   2.411   0.092  10.239  0.0202 -0.1788  0.1721
  432loPI   C1A 6903   2.595   0.579  10.074 -0.1378  0.1024  0.1660
  432loPI   C2A 6904   2.729   0.781   9.692  0.3933 -0.1857 -0.4236
  432loPI   C3A 6905   2.697   0.764   9.321 -0.0584 -0.1957  0.0237
  432loPI   C4A 6906   2.656   0.874   8.832  0.0606  0.1122  0.0003
  432loPI   C5A 6907   2.946   1.032   8.551 -0.1487  0.0924  0.1209
  432loPI   C6A 6908   3.252   1.192   8.319 -0.2276 -0.0147  0.6351
  432loPI   C1B 6909   2.525   0.190   9.764 -0.1878 -0.0017 -0.1108
  432loPI   C2B 6910   2.587   0.302   9.338  0.0141 -0.0043  0.2817
  432loPI   C3B 6911   2.555   0.408   8.943 -0.1298 -0.0245  0.2909
  432loPI   C4B 6912   2.515   0.351   8.547  0.1471 -0.2242  0.2596
  433loPI    C1 6913   8.702   9.400  10.647  0.0431  0.0323  0.1649
  433loPI    C2 6914   8.422   9.205  10.857  0.0391  0.0244  0.1526
  433loPI    C3 6915   8.432   9.605  10.859 -0.1604  0.0332 -0.0889
  433loPI   PO4 6916   8.684   9.291  10.384  0.0586 -0.0057 -0.1281
  433loPI   GL1 6917   8.449   9.491  10.093 -0.0479 -0.1168 -0.2396
  433loPI   GL2 6918   8.432   9.786  10.359 -0.6663  0.1529 -0.0329
  433loPI   C1A 6919   8.360   9.383   9.752  0.0101  0.0127 -0.0214
  433loPI   C2A 6920   8.425   9.382   9.279  0.2668  0.0590 -0.2648
  433loPI   C3A 6921   8.129   9.254   9.001 -0.2449  0.0422 -0.2537
  433loPI   C4A 6922   7.987   9.253   8.585  0.1605  0.0026 -0.0309
  433loPI   C5A 6923   7.973   9.427   8.119 -0.1296 -0.0432 -0.1962
  433loPI   C6A 6924   8.306   9.359   7.800  0.0373 -0.0318 -0.1545
  433loPI   C1B 6925   8.544   9.949   9.944 -0.0044 -0.1399 -0.3635
  433loPI   C2B 6926   8.478   9.818   9.512 -0.1933 -0.0097  0.0269
  433loPI   C3B 6927   8.488   9.780   9.034 -0.1433  0.1254 -0.4533
  433loPI   C4B 6928   8.253   9.702   8.606 -0.0701 -0.1470 -0.0728
  434loPI    C1 6929  10.458   1.005  10.661  0.1627 -0.0367 -0.1210
  434loPI    C2 6930  10.311   1.123  11.013  0.0957 -0.2913 -0.0619
  434loPI    C3 6931  10.694   1.012  10.984  0.1410 -0.1261 -0.1029
  434loPI   PO4 6932  10.253   0.846  10.569 -0.3341 -0.0187  0.0402
  434loPI   GL1 6933  10.233   0.577  10.227  0.0893  0.0303  0.0797
  434loPI   GL2 6934   9.859   0.561  10.204  0.0006 -0.0409 -0.0440
  434loPI   C1A 6935  10.175   0.503   9.834 -0.1195  0.1536  0.0915
  434loPI   C2A 6936   9.966   0.468   9.470  0.1282  0.1018  0.0660
  434loPI   C3A 6937   9.893   0.520   9.142 -0.0039  0.0233 -0.1550
  434loPI   C4A 6938   9.855   0.516   8.665  0.2559  0.1477  0.0226
  434loPI   C5A 6939   9.802   0.623   8.213  0.1294  0.1270  0.0242
  434loPI   C6A 6940   9.907   0.458   7.838  0.2161  0.2420 -0.0417
  434loPI   C1B 6941   9.582   0.689   9.832  0.3969 -0.0018 -0.0308
  434loPI   C2B 6942   9.465   0.715   9.409 -0.0965  0.0393  0.0508
  434loPI   C3B 6943   9.378   0.797   8.998  0.2808  0.0769  0.0853
  434loPI   C4B 6944   9.446   0.879   8.613 -0.2770 -0.0335  0.2080
  435loPI    C1 6945   3.894  13.545  10.909 -0.0210  0.1067 -0.1038
  435loPI    C2 6946   3.982  13.836  10.650  0.1365 -0.0135 -0.1870
  435loPI    C3 6947   4.115  13.856  11.027  0.3063 -0.0687 -0.2434
  435loPI   PO4 6948   3.597  13.487  10.933 -0.0314  0.2776  0.1961
  435loPI   GL1 6949   3.379  13.615  10.499 -0.4258  0.2580 -0.0131
  435loPI   GL2 6950   3.579  13.832  10.327 -0.1077 -0.1671  0.1512
  435loPI   C1A 6951   3.337  13.319  10.143  0.1088 -0.2319  0.0528
  435loPI   C2A 6952   3.267  13.298   9.671 -0.0903  0.1979  0.0766
  435loPI   C3A 6953   3.206  13.277   9.199 -0.3194  0.1272  0.0911
  435loPI   C4A 6954   3.240  13.142   8.788 -0.0730 -0.0222  0.4291
  435loPI   C5A 6955   3.159  13.256   8.406  0.1099  0.0734  0.3138
  435loPI   C6A 6956   3.194  13.543   8.013  0.1355  0.0876 -0.5218
  435loPI   C1B 6957   3.326  13.739   9.936 -0.0109 -0.2897  0.0337
  435loPI   C2B 6958   3.412  13.736   9.434  0.0537 -0.0831 -0.0021
  435loPI   C3B 6959   3.334  13.779   9.045 -0.0048 -0.1776 -0.2269
  435loPI   C4B 6960   3.386  13.696   8.590 -0.2363 -0.1740 -0.2796
  436loPI    C1 6961  16.666  15.375  11.026 -0.0334  0.0369 -0.1917
  436loPI    C2 6962  16.326  15.191  10.925 -0.0228 -0.1423  0.0874
  436loPI    C3 6963  16.327  15.463  11.218  0.0729 -0.1346  0.0802
  436loPI   PO4 6964  16.774  15.453  10.817  0.0176  0.1684  0.5875
  436loPI   GL1 6965  16.760  15.613  10.443 -0.0854 -0.0130  0.0706
  436loPI   GL2 6966  17.029  15.511  10.295  0.3054 -0.2839 -0.1681
  436loPI   C1A 6967  16.666  15.767  10.013  0.2076  0.2940  0.0398
  436loPI   C2A 6968  16.642  15.786   9.617  0.0162 -0.0963  0.0209
  436loPI   C3A 6969  16.536  15.789   9.144 -0.0044 -0.2556 -0.1370
  436loPI   C4A 6970  16.590  15.841   8.768 -0.1691  0.0611  0.1120
  436loPI   C5A 6971  16.596  15.709   8.335 -0.3018  0.1056  0.0886
  436loPI   C6A 6972  16.565  15.697   7.875  0.1552  0.0760  0.0897
  436loPI   C1B 6973  17.069  15.396   9.917  0.0857  0.1599  0.0677
  436loPI   C2B 6974  16.997  15.439   9.539 -0.1651  0.0293 -0.0498
  436loPI   C3B 6975  16.983  15.444   9.138 -0.1186  0.1405 -0.0178
  436loPI   C4B 6976  17.022  15.513   8.817 -0.0335  0.1917 -0.1292
  437loPI    C1 6977   4.616  12.953  10.568  0.0918  0.1423 -0.0044
  437loPI    C2 6978   4.259  12.774  10.589  0.2190 -0.1406 -0.1940
  437loPI    C3 6979   4.452  12.875  10.924 -0.0622  0.0676 -0.0907
  437loPI   PO4 6980   4.576  13.105  10.384 -0.2400  0.2141  0.5464
  437loPI   GL1 6981   4.587  13.387  10.016 -0.1334  0.1293 -0.0719
  437loPI   GL2 6982   4.989  13.230  10.100  0.0282 -0.0378 -0.0267
  437loPI   C1A 6983   4.290  13.626   9.721  0.1057 -0.1132  0.1115
  437loPI   C2A 6984   4.300  13.637   9.295  0.0574  0.1523  0.0485
  437loPI   C3A 6985   4.187  13.586   8.882  0.2580 -0.0271  0.1946
  437loPI   C4A 6986   4.425  13.689   8.503 -0.0290 -0.1329  0.0848
  437loPI   C5A 6987   4.760  13.698   8.361  0.2576 -0.1743 -0.0834
  437loPI   C6A 6988   4.945  13.787   7.949  0.1706 -0.2375  0.0302
  437loPI   C1B 6989   5.145  13.075   9.795  0.2573  0.1388 -0.1772
  437loPI   C2B 6990   5.057  12.902   9.379 -0.1259  0.2125  0.1425
  437loPI   C3B 6991   5.016  12.903   8.963  0.1030  0.0403  0.1785
  437loPI   C4B 6992   4.938  12.885   8.483  0.3116 -0.2027 -0.2146
  438loPI    C1 6993   5.478   4.056  11.070 -0.0157 -0.0337 -0.0431
  438loPI    C2 6994   5.226   3.769  11.190  0.0032 -0.1449 -0.2632
  438loPI    C3 6995   5.549   3.857  11.409 -0.2662  0.0554  0.0645
  438loPI   PO4 6996   5.562   3.978  10.793 -0.2250  0.4503  0.0030
  438loPI   GL1 6997   5.519   3.958  10.368  0.1607 -0.1670  0.0644
  438loPI   GL2 6998   5.252   4.156  10.285  0.2096  0.0139  0.1202
  438loPI   C1A 6999   5.513   3.728   9.978  0.1682 -0.0419  0.2439
  438loPI   C2A 7000   5.433   3.688   9.558  0.4896  0.2760 -0.1208
  438loPI   C3A 7001   5.572   3.596   9.147  0.1269 -0.0205 -0.2631
  438loPI   C4A 7002   5.416   3.685   8.776 -0.3289 -0.0909  0.0688
  438loPI   C5A 7003   5.361   3.722   8.257  0.1233  0.1456  0.0133
  438loPI   C6A 7004   5.157   3.986   8.034  0.1811 -0.0690 -0.2580
  438loPI   C1B 7005   5.268   4.156   9.813 -0.0477  0.1310 -0.2541
  438loPI   C2B 7006   5.234   4.164   9.339 -0.1759 -0.2993  0.3530
  438loPI   C3B 7007   5.285   4.128   8.932 -0.0144 -0.0688 -0.2256
  438loPI   C4B 7008   5.181   4.125   8.521 -0.1012  0.0760 -0.3000
  439loPI    C1 7009   0.945   1.241  10.677 -0.0806 -0.1171  0.0595
  439loPI    C2 7010   1.023   1.080  11.035  0.1246 -0.0142  0.0627
  439loPI    C3 7011   1.011   1.477  10.993 -0.0408 -0.0266 -0.0159
  439loPI   PO4 7012   1.155   1.018  10.468 -0.0158 -0.0489  0.0953
  439loPI   GL1 7013   1.498   0.855  10.120  0.0685 -0.2095  0.0394
  439loPI   GL2 7014   1.308   0.612   9.964 -0.0444 -0.1002  0.0212
  439loPI   C1A 7015   1.776   0.965   9.819  0.0209 -0.0459  0.0481
  439loPI   C2A 7016   1.835   0.882   9.455 -0.2442 -0.1508  0.0695
  439loPI   C3A 7017   1.771   0.999   9.062  0.1390 -0.1349 -0.2353
  439loPI   C4A 7018   1.751   1.002   8.679 -0.2725  0.0563  0.0114
  439loPI   C5A 7019   1.975   1.052   8.319  0.1010  0.2797  0.0504
  439loPI   C6A 7020   1.946   0.776   7.996  0.0672 -0.0720  0.3075
  439loPI   C1B 7021   1.621   0.474   9.674 -0.0148  0.0245  0.0031
  439loPI   C2B 7022   1.737   0.364   9.382  0.0950 -0.0403 -0.0197
  439loPI   C3B 7023   1.690   0.456   8.921  0.0328 -0.0515 -0.0668
  439loPI   C4B 7024   1.613   0.516   8.506 -0.0143 -0.0277 -0.0139
  440loPI    C1 7025  13.223   2.863  10.961 -0.0491  0.1745  0.1933
  440loPI    C2 7026  13.025   2.687  11.261 -0.0264 -0.0418  0.0838
  440loPI    C3 7027  13.194   3.046  11.316 -0.3175  0.0769  0.2237
  440loPI   PO4 7028  13.096   2.871  10.758 -0.1166 -0.0433 -0.3680
  440loPI   GL1 7029  13.068   2.732  10.327 -0.2230 -0.2647 -0.1734
  440loPI   GL2 7030  13.063   2.935  10.197 -0.2929 -0.1308  0.1113
  440loPI   C1A 7031  13.405   2.533  10.160 -0.0176  0.0673  0.0575
  440loPI   C2A 7032  13.372   2.310   9.803  0.0119  0.2146 -0.1968
  440loPI   C3A 7033  13.366   2.115   9.352 -0.2157  0.2282  0.0343
  440loPI   C4A 7034  13.128   2.105   9.031 -0.0209  0.3086  0.1451
  440loPI   C5A 7035  13.099   2.043   8.696 -0.1493 -0.0811 -0.2989
  440loPI   C6A 7036  12.878   2.075   8.306  0.2502 -0.2305  0.1045
  440loPI   C1B 7037  13.236   2.763   9.752  0.0335 -0.0902 -0.1940
  440loPI   C2B 7038  13.091   2.547   9.456 -0.2157  0.0286  0.0691
  440loPI   C3B 7039  13.147   2.636   8.973  0.3003 -0.0225  0.2868
  440loPI   C4B 7040  13.019   2.504   8.570  0.1739  0.1103  0.1619
  441loPI    C1 7041   2.711   5.708  11.224 -0.1073 -0.2557  0.0077
  441loPI    C2 7042   2.365   5.544  11.341 -0.2235  0.0397  0.0863
  441loPI    C3 7043   2.371   5.915  11.191  0.0756  0.0837  0.1997
  441loPI   PO4 7044   2.843   5.472  11.046  0.0367 -0.0826 -0.0224
  441loPI   GL1 7045   2.962   5.567  10.716 -0.2264  0.1317  0.0595
  441loPI   GL2 7046   3.227   5.570  10.693 -0.0736  0.2317 -0.1318
  441loPI   C1A 7047   2.918   5.692  10.213 -0.3263 -0.1603  0.0218
  441loPI   C2A 7048   2.925   5.826   9.819 -0.0358  0.0387  0.0537
  441loPI   C3A 7049   3.085   5.738   9.447  0.1732 -0.0586 -0.0935
  441loPI   C4A 7050   3.173   5.689   9.073  0.0469  0.0869  0.1063
  441loPI   C5A 7051   3.264   5.364   8.726 -0.4284  0.0750 -0.0951
  441loPI   C6A 7052   3.557   5.231   8.279 -0.2395 -0.2507 -0.1864
  441loPI   C1B 7053   3.350   5.448  10.226 -0.2268 -0.1345  0.0397
  441loPI   C2B 7054   3.102   5.354   9.909  0.0989  0.0834  0.2021
  441loPI   C3B 7055   3.152   5.227   9.574  0.1023 -0.1578 -0.0734
  441loPI   C4B 7056   3.299   5.228   9.210  0.0649  0.1650  0.0739
  442loPI    C1 7057  12.804   6.098  11.338  0.0708  0.0360 -0.0569
  442loPI    C2 7058  13.158   5.992  11.492  0.0683 -0.0222 -0.0911
  442loPI    C3 7059  12.929   6.259  11.682  0.1471  0.0431 -0.0876
  442loPI   PO4 7060  12.844   5.973  11.063  0.0196  0.1282  0.0888
  442loPI   GL1 7061  12.939   6.090  10.669  0.0830  0.1320 -0.0813
  442loPI   GL2 7062  13.147   5.901  10.494  0.0120 -0.1079 -0.1592
  442loPI   C1A 7063  12.792   6.078  10.205 -0.2885  0.0225 -0.1983
  442loPI   C2A 7064  12.751   6.093   9.747  0.0246 -0.3800 -0.0296
  442loPI   C3A 7065  12.797   6.023   9.298  0.1765 -0.1734 -0.0238
  442loPI   C4A 7066  13.164   5.814   9.040  0.0746  0.1559  0.0894
  442loPI   C5A 7067  13.158   5.698   8.514 -0.1972 -0.0031 -0.2541
  442loPI   C6A 7068  12.954   5.422   8.255 -0.2244  0.4429 -0.1772
  442loPI   C1B 7069  13.267   5.915  10.063 -0.3643  0.4817 -0.0912
  442loPI   C2B 7070  13.268   5.785   9.672 -0.2019  0.0496 -0.2667
  442loPI   C3B 7071  13.562   5.646   9.372  0.2872  0.0783  0.0164
  442loPI   C4B 7072  13.637   5.657   8.893  0.1158 -0.0206 -0.0209
  443loPI    C1 7073   5.879  17.220  10.679 -0.3575 -0.1764 -0.0569
  443loPI    C2 7074   5.839  17.018  11.022  0.0334 -0.0308  0.0804
  443loPI    C3 7075   5.631  17.354  10.962 -0.2220 -0.1885  0.0689
  443loPI   PO4 7076   5.908  17.093  10.477  0.1440  0.0009 -0.1700
  443loPI   GL1 7077   5.892  17.188  10.126  0.3460 -0.2726 -0.0763
  443loPI   GL2 7078   5.620  17.024   9.929  0.0523  0.3582 -0.3685
  443loPI   C1A 7079   5.874  17.338   9.660 -0.0304  0.0718  0.0426
  443loPI   C2A 7080   5.949  17.307   9.175 -0.2106 -0.1471  0.2049
  443loPI   C3A 7081   5.998  17.339   8.773  0.1498 -0.1902  0.0222
  443loPI   C4A 7082   6.035  17.384   8.255 -0.0974 -0.1314  0.0133
  443loPI   C5A 7083   5.908  17.262   7.846  0.2225  0.1061  0.2006
  443loPI   C6A 7084   5.678  17.420   7.557 -0.1025 -0.1097  0.1880
  443loPI   C1B 7085   5.532  17.115   9.412 -0.0778 -0.2234  0.2641
  443loPI   C2B 7086   5.545  17.060   9.006  0.2188 -0.1915  0.1759
  443loPI   C3B 7087   5.576  17.100   8.632 -0.0405  0.2491 -0.0585
  443loPI   C4B 7088   5.599  17.012   8.081 -0.0712  0.1807 -0.1969
  444loPI    C1 7089   7.709   1.299  10.940 -0.1742 -0.0067  0.0484
  444loPI    C2 7090   7.323   1.405  10.927 -0.1189  0.2204  0.1866
  444loPI    C3 7091   7.556   1.533  11.226  0.0304 -0.0347  0.1832
  444loPI   PO4 7092   7.853   1.313  10.684 -0.0316 -0.0185  0.2035
  444loPI   GL1 7093   7.756   1.156  10.174 -0.1038  0.2006  0.0771
  444loPI   GL2 7094   7.824   1.392  10.189 -0.1485  0.0603 -0.1322
  444loPI   C1A 7095   7.706   1.115   9.721  0.3396 -0.2401 -0.1962
  444loPI   C2A 7096   7.694   1.150   9.296 -0.1853 -0.3023  0.0556
  444loPI   C3A 7097   7.571   1.136   8.830  0.0542  0.1770 -0.0320
  444loPI   C4A 7098   7.441   1.267   8.467 -0.0381  0.2916  0.0707
  444loPI   C5A 7099   7.238   1.420   8.188  0.3173  0.0351  0.3399
  444loPI   C6A 7100   7.181   1.769   8.083  0.0302 -0.0175 -0.2931
  444loPI   C1B 7101   7.753   1.660   9.846 -0.3406  0.0655 -0.0276
  444loPI   C2B 7102   7.739   1.987   9.547  0.0392 -0.1600 -0.2792
  444loPI   C3B 7103   7.784   2.127   9.139 -0.2559  0.0118  0.2434
  444loPI   C4B 7104   7.671   2.153   8.754 -0.1661  0.0716 -0.0972
  445loPI    C1 7105  12.899   3.424  11.078  0.1852 -0.0305 -0.0788
  445loPI    C2 7106  12.758   3.335  11.442 -0.0248  0.0279 -0.1444
  445loPI    C3 7107  13.087   3.560  11.404  0.0216 -0.0124  0.0091
  445loPI   PO4 7108  12.647   3.529  10.903 -0.1707 -0.3337  0.0052
  445loPI   GL1 7109  12.444   3.684  10.469  0.1806 -0.0599  0.1030
  445loPI   GL2 7110  12.616   3.819  10.181 -0.0833  0.3473  0.0510
  445loPI   C1A 7111  12.422   3.382  10.065 -0.3429  0.1369  0.0420
  445loPI   C2A 7112  12.481   3.454   9.593 -0.0818 -0.1669 -0.0685
  445loPI   C3A 7113  12.512   3.424   9.152 -0.4631 -0.0337 -0.2732
  445loPI   C4A 7114  12.582   3.427   8.732  0.0568  0.2213  0.0935
  445loPI   C5A 7115  12.526   3.309   8.380 -0.3162 -0.3536  0.0537
  445loPI   C6A 7116  12.409   3.124   7.972  0.2901  0.1865 -0.0011
  445loPI   C1B 7117  12.331   3.912   9.781  0.0521  0.0442 -0.2594
  445loPI   C2B 7118  12.204   3.953   9.406 -0.5472  0.2720 -0.0275
  445loPI   C3B 7119  12.269   3.836   9.014  0.1349  0.0101  0.3266
  445loPI   C4B 7120  12.217   3.925   8.545  0.1916  0.2275 -0.3005
  446loPI    C1 7121   2.175   5.067  11.100  0.1476  0.1534 -0.2860
  446loPI    C2 7122   2.524   5.056  10.905  0.2323  0.1125 -0.1338
  446loPI    C3 7123   2.518   5.076  11.304  0.0601  0.1867 -0.1389
  446loPI   PO4 7124   2.027   5.201  10.916  0.2664  0.0634 -0.0998
  446loPI   GL1 7125   1.880   5.100  10.523  0.2939  0.1533 -0.1228
  446loPI   GL2 7126   1.787   4.983  10.309  0.0874  0.2644  0.1046
  446loPI   C1A 7127   2.107   5.441  10.202 -0.0348  0.1412 -0.0736
  446loPI   C2A 7128   2.147   5.537   9.781 -0.0800  0.1706 -0.1239
  446loPI   C3A 7129   2.274   5.416   9.312  0.2001  0.0298  0.1090
  446loPI   C4A 7130   2.310   5.420   8.857 -0.2497  0.0679  0.0956
  446loPI   C5A 7131   2.394   5.531   8.479 -0.2110  0.3855  0.0661
  446loPI   C6A 7132   2.624   5.841   8.274  0.2104 -0.0278  0.2679
  446loPI   C1B 7133   1.882   5.139   9.829  0.0967 -0.1991 -0.0141
  446loPI   C2B 7134   1.841   5.080   9.401 -0.0499 -0.0719 -0.0594
  446loPI   C3B 7135   1.867   5.194   8.958  0.1322 -0.2255 -0.1555
  446loPI   C4B 7136   1.755   5.416   8.449 -0.0268 -0.0379 -0.0685
  447loPI    C1 7137   6.561   1.251  10.760  0.0220 -0.0818 -0.1923
  447loPI    C2 7138   6.853   1.522  10.791 -0.1556  0.0897  0.0106
  447loPI    C3 7139   6.559   1.513  11.062 -0.3711 -0.0426 -0.2233
  447loPI   PO4 7140   6.519   1.230  10.474  0.1127  0.1944  0.1212
  447loPI   GL1 7141   6.765   1.073  10.056 -0.1303  0.0819 -0.0044
  447loPI   GL2 7142   6.607   0.813  10.137 -0.2146  0.0791  0.0643
  447loPI   C1A 7143   6.794   1.235   9.613 -0.0261 -0.1579  0.0612
  447loPI   C2A 7144   6.635   1.242   9.151 -0.1798  0.0232  0.0496
  447loPI   C3A 7145   6.632   1.113   8.775  0.2243 -0.0812 -0.3806
  447loPI   C4A 7146   6.658   1.388   8.375 -0.1236 -0.1206 -0.0008
  447loPI   C5A 7147   6.774   1.376   7.997 -0.1360 -0.2512  0.1082
  447loPI   C6A 7148   7.082   1.401   7.685  0.2278 -0.0534  0.2070
  447loPI   C1B 7149   6.717   0.669   9.721 -0.1054 -0.0575 -0.2066
  447loPI   C2B 7150   6.636   0.633   9.396 -0.3698 -0.1340 -0.1826
  447loPI   C3B 7151   6.573   0.671   9.016 -0.3024 -0.0061  0.0432
  447loPI   C4B 7152   6.623   0.665   8.553  0.1247 -0.0937  0.0568
  448loPI    C1 7153   1.984  14.472  11.032  0.0314  0.0780  0.2609
  448loPI    C2 7154   2.141  14.106  11.002  0.2904  0.2024  0.0652
  448loPI    C3 7155   1.999  14.233  11.353  0.1091 -0.1193  0.1124
  448loPI   PO4 7156   1.830  14.495  10.865  0.0766  0.1425  0.0575
  448loPI   GL1 7157   1.723  14.559  10.435 -0.1145  0.1796  0.0663
  448loPI   GL2 7158   2.003  14.290  10.423 -0.2260  0.2839  0.1187
  448loPI   C1A 7159   1.749  14.616  10.007 -0.1158  0.2594  0.3762
  448loPI   C2A 7160   1.636  14.569   9.564  0.2272 -0.1019 -0.2431
  448loPI   C3A 7161   1.626  14.571   9.158  0.1494 -0.0357 -0.1918
  448loPI   C4A 7162   1.576  14.631   8.705 -0.1211 -0.0283  0.0269
  448loPI   C5A 7163   1.706  14.498   8.335  0.1687 -0.0562 -0.0355
  448loPI   C6A 7164   1.648  14.340   7.858 -0.2107 -0.2409  0.1006
  448loPI   C1B 7165   2.090  14.223  10.012 -0.0339  0.0469 -0.1816
  448loPI   C2B 7166   2.069  14.170   9.541 -0.0890 -0.2712  0.0454
  448loPI   C3B 7167   2.055  14.179   9.074 -0.2935  0.0043 -0.1979
  448loPI   C4B 7168   2.049  14.213   8.592 -0.0262 -0.1014  0.1810
  449loPI    C1 7169  13.178  11.493  10.980  0.2169  0.1266 -0.0357
  449loPI    C2 7170  13.348  11.208  11.204  0.0044 -0.0627 -0.1117
  449loPI    C3 7171  13.240  11.555  11.370  0.1729 -0.0639  0.0029
  449loPI   PO4 7172  13.319  11.438  10.675  0.1611  0.0865  0.1189
  449loPI   GL1 7173  13.282  11.485  10.214 -0.0925  0.0388  0.1633
  449loPI   GL2 7174  13.067  11.290  10.118 -0.0976 -0.2351 -0.0352
  449loPI   C1A 7175  13.201  11.778   9.854 -0.1524  0.1450  0.0359
  449loPI   C2A 7176  13.158  11.874   9.413  0.3055 -0.0839  0.1039
  449loPI   C3A 7177  13.103  11.876   8.995  0.1148 -0.2368 -0.3962
  449loPI   C4A 7178  13.033  11.727   8.660 -0.0888 -0.1192 -0.1082
  449loPI   C5A 7179  12.954  11.760   8.289  0.4332  0.0609 -0.0451
  449loPI   C6A 7180  12.807  11.390   7.986  0.5111  0.1368 -0.2491
  449loPI   C1B 7181  13.046  11.356   9.682 -0.1213 -0.3326  0.2570
  449loPI   C2B 7182  12.896  11.329   9.361 -0.1169 -0.1607  0.0493
  449loPI   C3B 7183  12.943  11.331   8.915 -0.0486 -0.0794 -0.0405
  449loPI   C4B 7184  12.867  11.247   8.513 -0.1134 -0.0740 -0.1479
  450loPI    C1 7185   1.518   3.502  10.764  0.0344  0.0982  0.1895
  450loPI    C2 7186   1.183   3.288  10.725  0.1458 -0.0791  0.1954
  450loPI    C3 7187   1.262   3.474  11.070 -0.0199  0.0904  0.1435
  450loPI   PO4 7188   1.510   3.599  10.499 -0.4620 -0.2029 -0.3970
  450loPI   GL1 7189   1.179   3.706  10.254  0.1053 -0.1138 -0.0319
  450loPI   GL2 7190   1.231   3.909  10.147 -0.1817 -0.2366  0.0051
  450loPI   C1A 7191   1.193   3.484   9.835  0.2205 -0.0504  0.0375
  450loPI   C2A 7192   1.219   3.564   9.385 -0.0635 -0.1458 -0.4687
  450loPI   C3A 7193   1.110   3.637   8.946 -0.0650  0.2629 -0.0364
  450loPI   C4A 7194   1.075   3.592   8.491 -0.2088  0.0433  0.1920
  450loPI   C5A 7195   1.163   3.260   8.198  0.0798  0.0062  0.1138
  450loPI   C6A 7196   0.903   3.029   7.839  0.4099 -0.1262 -0.0079
  450loPI   C1B 7197   1.138   3.966   9.692  0.0295 -0.5005 -0.0360
  450loPI   C2B 7198   0.959   3.993   9.329  0.0803  0.1888  0.2444
  450loPI   C3B 7199   1.027   4.113   8.930  0.1018 -0.0225 -0.0208
  450loPI   C4B 7200   0.996   4.088   8.502 -0.1905 -0.0404  0.0791
  451loPI    C1 7201  18.142  10.253  11.143  0.0960  0.0319  0.0684
  451loPI    C2 7202  18.124  10.369  11.525  0.1804  0.1354  0.0416
  451loPI    C3 7203  18.212  10.634  11.240 -0.0347  0.0914 -0.0681
  451loPI   PO4 7204  17.869   9.992  11.165  0.0012  0.0854 -0.0005
  451loPI   GL1 7205  17.716   9.904  10.858  0.2848  0.2937  0.1222
  451loPI   GL2 7206  17.459   9.865  10.855 -0.1859 -0.0074 -0.0124
  451loPI   C1A 7207  17.956  10.093  10.541  0.1249  0.3159 -0.0480
  451loPI   C2A 7208  18.071  10.145  10.148  0.3789 -0.0192 -0.2741
  451loPI   C3A 7209  17.967  10.177   9.821 -0.3077 -0.0928  0.0044
  451loPI   C4A 7210  17.969  10.189   9.414 -0.0957 -0.1139  0.4141
  451loPI   C5A 7211  17.943   9.960   9.009 -0.2970 -0.2225 -0.1358
  451loPI   C6A 7212  17.633   9.971   8.635 -0.1294  0.3210 -0.0078
  451loPI   C1B 7213  17.655   9.814  10.307  0.1512  0.4381  0.0601
  451loPI   C2B 7214  17.542   9.872   9.868 -0.1272  0.0736 -0.2022
  451loPI   C3B 7215  17.510   9.877   9.473  0.1421  0.1890 -0.0773
  451loPI   C4B 7216  17.479   9.752   9.033 -0.2518  0.0951  0.1956
  452loPI    C1 7217   5.213  12.611  10.844 -0.1359  0.2983 -0.1697
  452loPI    C2 7218   5.290  12.848  11.156 -0.1393 -0.0014  0.0633
  452loPI    C3 7219   4.956  12.901  10.942 -0.2225  0.0983  0.2152
  452loPI   PO4 7220   5.431  12.555  10.703 -0.0224 -0.1923 -0.2377
  452loPI   GL1 7221   5.337  12.374  10.233 -0.0895 -0.2081  0.0784
  452loPI   GL2 7222   5.072  12.512  10.368  0.1429  0.0175  0.2268
  452loPI   C1A 7223   5.427  12.218   9.857 -0.0516 -0.2402 -0.0879
  452loPI   C2A 7224   5.464  12.165   9.412 -0.1540  0.0135  0.1914
  452loPI   C3A 7225   5.366  11.992   8.994 -0.1086 -0.0451  0.1819
  452loPI   C4A 7226   5.278  11.985   8.568  0.0078  0.0466  0.0417
  452loPI   C5A 7227   5.025  12.067   8.214  0.0662  0.0429  0.1707
  452loPI   C6A 7228   4.936  11.988   7.776 -0.3125 -0.0278 -0.0350
  452loPI   C1B 7229   4.979  12.525   9.893 -0.1879  0.0395  0.0626
  452loPI   C2B 7230   5.090  12.391   9.475 -0.1147 -0.0640 -0.1131
  452loPI   C3B 7231   4.930  12.364   9.004  0.2105  0.3712 -0.0007
  452loPI   C4B 7232   4.855  12.306   8.601  0.0416 -0.2489  0.3233
  453loPI    C1 7233   8.452   7.829  10.359 -0.0860  0.1052  0.1095
  453loPI    C2 7234   8.679   7.526  10.490 -0.1537 -0.0416 -0.1065
  453loPI    C3 7235   8.293   7.546  10.593 -0.1193  0.0397  0.0086
  453loPI   PO4 7236   8.458   7.824  10.153 -0.0856 -0.0516 -0.2811
  453loPI   GL1 7237   8.549   7.532   9.858  0.1713 -0.0306  0.1026
  453loPI   GL2 7238   8.396   7.276  10.081 -0.0051 -0.1597 -0.1365
  453loPI   C1A 7239   8.580   7.560   9.430 -0.1241 -0.0762 -0.1956
  453loPI   C2A 7240   8.328   7.764   9.031 -0.0756 -0.0023  0.2042
  453loPI   C3A 7241   8.278   8.040   8.679 -0.1089 -0.2338  0.3109
  453loPI   C4A 7242   8.551   8.324   8.450 -0.1496 -0.1413 -0.2269
  453loPI   C5A 7243   8.586   8.646   8.084  0.0001  0.0342 -0.1069
  453loPI   C6A 7244   8.577   8.913   7.733 -0.1670  0.0233 -0.1411
  453loPI   C1B 7245   8.360   7.077   9.633  0.0894 -0.1282 -0.1256
  453loPI   C2B 7246   8.359   6.953   9.231  0.1201  0.0867  0.0118
  453loPI   C3B 7247   8.495   7.292   8.995 -0.3366  0.5029  0.0673
  453loPI   C4B 7248   8.504   7.444   8.681 -0.0626  0.0994 -0.2135
  454loPI    C1 7249   5.049   5.842  10.625 -0.1108 -0.1952 -0.1185
  454loPI    C2 7250   4.656   5.916  10.614 -0.0821 -0.0375 -0.0995
  454loPI    C3 7251   4.845   5.888  10.965 -0.0461  0.0529 -0.1112
  454loPI   PO4 7252   5.098   5.620  10.550 -0.0119  0.1156  0.0080
  454loPI   GL1 7253   5.177   5.398  10.166  0.1958 -0.1950 -0.1475
  454loPI   GL2 7254   5.519   5.336  10.122  0.2554  0.1433  0.2529
  454loPI   C1A 7255   5.091   5.470   9.676  0.0360 -0.1993 -0.2673
  454loPI   C2A 7256   5.182   5.468   9.318 -0.0782 -0.0883  0.2261
  454loPI   C3A 7257   5.223   5.484   8.881 -0.3717 -0.0274 -0.2482
  454loPI   C4A 7258   5.289   5.437   8.469  0.0692 -0.2560  0.0900
  454loPI   C5A 7259   5.465   5.337   8.140 -0.2729  0.0871  0.1636
  454loPI   C6A 7260   5.697   5.174   7.757 -0.3288 -0.2887 -0.0218
  454loPI   C1B 7261   5.627   5.380   9.712 -0.1369  0.0775 -0.1152
  454loPI   C2B 7262   5.688   5.481   9.290 -0.1073  0.0067 -0.0758
  454loPI   C3B 7263   5.755   5.389   8.830  0.0957 -0.3669  0.2055
  454loPI   C4B 7264   5.863   5.443   8.421  0.0455  0.2353  0.0899
  455loPI    C1 7265   3.869  11.927  10.754 -0.0573  0.0551  0.0091
  455loPI    C2 7266   3.635  11.755  11.028  0.0314 -0.1524 -0.0435
  455loPI    C3 7267   4.026  11.799  11.099  0.0382 -0.1232 -0.0990
  455loPI   PO4 7268   3.689  11.961  10.601 -0.1772 -0.0877  0.4367
  455loPI   GL1 7269   3.730  11.864  10.155 -0.1176 -0.0384  0.0913
  455loPI   GL2 7270   3.909  12.116   9.993 -0.0432  0.1864 -0.0415
  455loPI   C1A 7271   3.523  11.976   9.693  0.1988 -0.1535  0.0286
  455loPI   C2A 7272   3.161  11.834   9.468 -0.1837 -0.0173 -0.0383
  455loPI   C3A 7273   2.898  11.797   9.104 -0.0281  0.1152 -0.2211
  455loPI   C4A 7274   2.604  11.634   8.795  0.3194 -0.1830 -0.1989
  455loPI   C5A 7275   2.360  11.814   8.465  0.1695  0.4522 -0.0048
  455loPI   C6A 7276   2.603  11.759   8.064  0.2447 -0.2178 -0.1071
  455loPI   C1B 7277   4.037  12.141   9.536  0.2594 -0.1797 -0.0585
  455loPI   C2B 7278   3.946  12.181   9.066 -0.1043 -0.1707  0.0471
  455loPI   C3B 7279   3.700  12.170   8.706 -0.3490 -0.1303  0.2837
  455loPI   C4B 7280   3.553  12.529   8.431  0.1112  0.0077  0.2114
  456loPI    C1 7281   1.263   6.849  11.211 -0.2115  0.0023  0.0436
  456loPI    C2 7282   1.405   6.513  11.375 -0.0829  0.0400  0.0106
  456loPI    C3 7283   1.289   6.815  11.609 -0.2188 -0.0348  0.0409
  456loPI   PO4 7284   1.374   6.927  10.955  0.0735 -0.1319  0.1885
  456loPI   GL1 7285   1.408   7.216  10.628  0.1872 -0.0426  0.2674
  456loPI   GL2 7286   1.152   6.981  10.513 -0.0404 -0.0828  0.2808
  456loPI   C1A 7287   1.279   7.474  10.324 -0.0408  0.0119 -0.4024
  456loPI   C2A 7288   1.391   7.779  10.056  0.0420  0.1711  0.0854
  456loPI   C3A 7289   1.295   7.711   9.662 -0.4356  0.0004 -0.2459
  456loPI   C4A 7290   1.421   7.510   9.248 -0.1036 -0.2129 -0.1841
  456loPI   C5A 7291   1.540   7.369   8.824 -0.0620  0.1234 -0.3325
  456loPI   C6A 7292   1.808   7.369   8.399  0.0376  0.1602  0.3026
  456loPI   C1B 7293   1.429   6.998  10.122 -0.2786  0.1189  0.1051
  456loPI   C2B 7294   1.433   7.047   9.667  0.1813 -0.1939  0.0389
  456loPI   C3B 7295   1.383   7.021   9.272  0.2269 -0.0679 -0.0255
  456loPI   C4B 7296   1.154   6.944   8.911  0.0436  0.0835 -0.1486
  457loPI    C1 7297  17.211  14.897  10.833  0.0369  0.1211 -0.1781
  457loPI    C2 7298  17.587  15.030  10.800  0.0958  0.0051  0.0114
  457loPI    C3 7299  17.413  15.010  11.160 -0.0616 -0.0241 -0.0657
  457loPI   PO4 7300  17.082  15.029  10.587 -0.2063  0.0681  0.1816
  457loPI   GL1 7301  17.002  14.905  10.166  0.0026 -0.1849  0.0239
  457loPI   GL2 7302  17.148  14.593  10.026 -0.1305 -0.1386 -0.3259
  457loPI   C1A 7303  16.849  14.945   9.628 -0.1901 -0.0600 -0.0267
  457loPI   C2A 7304  16.781  14.949   9.168 -0.1546  0.0178  0.1302
  457loPI   C3A 7305  16.771  15.010   8.741  0.0732  0.3188 -0.3378
  457loPI   C4A 7306  16.441  15.250   8.455  0.3779 -0.0744  0.1187
  457loPI   C5A 7307  16.096  15.318   8.089  0.5381  0.0230  0.2715
  457loPI   C6A 7308  15.790  15.303   7.801 -0.2173 -0.0411  0.0719
  457loPI   C1B 7309  17.236  14.595   9.639  0.1194  0.2508 -0.0170
  457loPI   C2B 7310  17.272  14.572   9.217  0.0165 -0.0967 -0.0217
  457loPI   C3B 7311  17.179  14.690   8.748 -0.0512 -0.3050  0.0396
  457loPI   C4B 7312  17.007  14.679   8.360  0.1214  0.0079 -0.0173
  458loPI    C1 7313   8.703  13.317  11.275 -0.1163 -0.2776 -0.1078
  458loPI    C2 7314   8.544  13.102  11.573  0.0724  0.0030  0.2017
  458loPI    C3 7315   8.666  13.477  11.640  0.0235  0.1064 -0.2574
  458loPI   PO4 7316   8.553  13.289  11.035 -0.0250  0.0508 -0.0519
  458loPI   GL1 7317   8.630  13.247  10.588  0.1868  0.1598  0.2502
  458loPI   GL2 7318   8.774  13.469  10.456 -0.2021  0.0475 -0.1354
  458loPI   C1A 7319   8.403  13.145  10.249 -0.2905 -0.2450 -0.1251
  458loPI   C2A 7320   8.324  13.113   9.806 -0.1292 -0.0208  0.2014
  458loPI   C3A 7321   8.421  13.061   9.425 -0.0385  0.3967  0.0309
  458loPI   C4A 7322   8.341  13.140   8.999  0.0454  0.2980  0.1882
  458loPI   C5A 7323   8.148  13.277   8.621  0.0936  0.2680  0.1210
  458loPI   C6A 7324   7.984  13.218   8.306 -0.0185  0.3617  0.0582
  458loPI   C1B 7325   8.674  13.519  10.055  0.0860  0.2081  0.1164
  458loPI   C2B 7326   8.537  13.606   9.608 -0.0362 -0.5262 -0.0593
  458loPI   C3B 7327   8.415  13.597   9.268  0.0274  0.1995 -0.0084
  458loPI   C4B 7328   8.484  13.642   8.821  0.3066 -0.0835  0.1194
  459loPI    C1 7329   5.602   8.726  10.828  0.1910 -0.0016 -0.0500
  459loPI    C2 7330   5.824   8.827  11.145 -0.0220  0.1898  0.0419
  459loPI    C3 7331   5.568   8.521  11.170  0.1663  0.0225 -0.0380
  459loPI   PO4 7332   5.778   8.774  10.572 -0.0011  0.1659 -0.1934
  459loPI   GL1 7333   6.140   8.626  10.383  0.0891  0.1658 -0.2310
  459loPI   GL2 7334   6.252   8.260  10.396 -0.0602 -0.2502 -0.1329
  459loPI   C1A 7335   6.158   8.687  10.005  0.0264 -0.2241  0.1647
  459loPI   C2A 7336   6.204   8.707   9.621  0.0624 -0.0995  0.1020
  459loPI   C3A 7337   6.226   8.563   9.164  0.1531 -0.1604 -0.2833
  459loPI   C4A 7338   6.355   8.595   8.735  0.1879  0.3262  0.2332
  459loPI   C5A 7339   6.498   8.449   8.350  0.3043  0.1192  0.1580
  459loPI   C6A 7340   6.839   8.412   8.079  0.0325 -0.0726  0.0042
  459loPI   C1B 7341   6.333   8.189  10.025  0.0118 -0.1140  0.1149
  459loPI   C2B 7342   6.398   8.067   9.520 -0.2687 -0.1101 -0.0587
  459loPI   C3B 7343   6.374   8.091   9.068 -0.3190  0.1005 -0.2872
  459loPI   C4B 7344   6.477   8.095   8.701 -0.1388 -0.1204 -0.0361
  460loPI    C1 7345   5.697   3.011  10.846 -0.0933  0.4722 -0.1084
  460loPI    C2 7346   5.343   3.086  11.016 -0.1587 -0.1343  0.0457
  460loPI    C3 7347   5.644   2.939  11.236  0.0080 -0.1702 -0.2025
  460loPI   PO4 7348   5.725   2.872  10.609 -0.0824  0.0882  0.0508
  460loPI   GL1 7349   5.995   3.004  10.228  0.0338  0.1310  0.0923
  460loPI   GL2 7350   5.723   3.189  10.063 -0.1088  0.0914  0.1325
  460loPI   C1A 7351   6.013   2.788   9.902 -0.1977 -0.1483 -0.2364
  460loPI   C2A 7352   6.029   2.628   9.379 -0.1785  0.0844 -0.3564
  460loPI   C3A 7353   5.934   2.557   8.953 -0.0416  0.2799  0.0809
  460loPI   C4A 7354   5.802   2.586   8.565  0.0453  0.0849 -0.3236
  460loPI   C5A 7355   5.601   2.526   8.225 -0.0290  0.0597 -0.0676
  460loPI   C6A 7356   5.390   2.839   7.869 -0.1573  0.0163  0.0409
  460loPI   C1B 7357   5.730   3.284   9.693 -0.3497 -0.1096 -0.0956
  460loPI   C2B 7358   5.716   3.163   9.305  0.0656 -0.2859  0.1473
  460loPI   C3B 7359   5.589   3.216   8.897  0.0209 -0.0056 -0.2506
  460loPI   C4B 7360   5.315   3.305   8.505 -0.1964 -0.1848  0.0321
  461loPI    C1 7361   6.692   2.483  11.005  0.0806 -0.1886 -0.2868
  461loPI    C2 7362   7.090   2.467  10.969  0.0958  0.0302 -0.2262
  461loPI    C3 7363   6.908   2.273  11.268  0.1706  0.0501 -0.1673
  461loPI   PO4 7364   6.584   2.485  10.745 -0.0841  0.2155 -0.0038
  461loPI   GL1 7365   6.528   2.346  10.343 -0.3683  0.6953  0.0939
  461loPI   GL2 7366   6.741   2.082  10.322 -0.0573 -0.1374  0.1288
  461loPI   C1A 7367   6.284   2.451  10.077 -0.2660 -0.0082  0.1288
  461loPI   C2A 7368   5.845   2.328   9.816  0.1725 -0.2307 -0.4020
  461loPI   C3A 7369   5.663   2.298   9.429  0.0623  0.0232  0.3119
  461loPI   C4A 7370   5.479   2.236   9.088 -0.0467 -0.0909  0.0403
  461loPI   C5A 7371   5.431   2.068   8.749 -0.0946 -0.0411 -0.0498
  461loPI   C6A 7372   5.273   2.035   8.325  0.0304  0.2437  0.2497
  461loPI   C1B 7373   6.643   2.090   9.896  0.0280  0.1030 -0.0713
  461loPI   C2B 7374   6.741   2.216   9.490  0.0633 -0.0179  0.3217
  461loPI   C3B 7375   6.987   2.418   9.294  0.1139 -0.2101 -0.0708
  461loPI   C4B 7376   7.065   2.648   8.986  0.0235 -0.1519 -0.0580
  462loPI    C1 7377  11.409  11.277  10.588  0.0035 -0.0992  0.0370
  462loPI    C2 7378  11.350  10.997  10.308  0.1439 -0.1940  0.1010
  462loPI    C3 7379  11.079  11.286  10.362  0.0993 -0.1951 -0.1086
  462loPI   PO4 7380  11.664  11.348  10.585  0.0137 -0.0251 -0.0033
  462loPI   GL1 7381  11.867  11.299  10.362  0.1915 -0.0425  0.0676
  462loPI   GL2 7382  11.880  11.616  10.168  0.0867 -0.3418 -0.1288
  462loPI   C1A 7383  11.543  11.286   9.853  0.1053  0.1135 -0.1424
  462loPI   C2A 7384  11.614  11.218   9.448  0.0377  0.0072  0.3090
  462loPI   C3A 7385  11.528  11.276   9.044 -0.1183  0.2563  0.1368
  462loPI   C4A 7386  11.352  11.391   8.543  0.1967  0.1413  0.3785
  462loPI   C5A 7387  11.397  11.601   8.097  0.2788 -0.0311  0.1071
  462loPI   C6A 7388  11.595  11.727   7.764  0.1311  0.2390  0.1296
  462loPI   C1B 7389  11.679  11.751   9.790 -0.1563 -0.1744 -0.1404
  462loPI   C2B 7390  11.722  11.821   9.303  0.3199 -0.0437 -0.1156
  462loPI   C3B 7391  11.756  11.901   8.944 -0.0178  0.1311 -0.1570
  462loPI   C4B 7392  11.627  11.763   8.526  0.0657 -0.0380  0.2732
  463loPI    C1 7393   3.965   5.236  10.909  0.0230 -0.1873 -0.0092
  463loPI    C2 7394   3.851   5.101  11.268  0.0428 -0.0258  0.0590
  463loPI    C3 7395   3.841   5.493  11.189  0.1011 -0.0544 -0.0952
  463loPI   PO4 7396   4.070   5.004  10.791  0.0240  0.0272 -0.1484
  463loPI   GL1 7397   3.827   5.017  10.393 -0.1687 -0.1440  0.0309
  463loPI   GL2 7398   3.795   5.273  10.393 -0.0046  0.3920 -0.0493
  463loPI   C1A 7399   4.152   5.154  10.100  0.2473  0.1018  0.1467
  463loPI   C2A 7400   4.280   5.134   9.637 -0.0506  0.0287 -0.1471
  463loPI   C3A 7401   4.206   5.208   9.196  0.0457  0.3655 -0.1583
  463loPI   C4A 7402   4.357   5.129   8.787  0.1368  0.3345  0.2745
  463loPI   C5A 7403   4.418   5.220   8.348  0.1295 -0.0924 -0.0156
  463loPI   C6A 7404   4.332   5.373   7.939  0.0694  0.1127  0.1053
  463loPI   C1B 7405   3.729   5.315   9.931  0.3593 -0.3112  0.0879
  463loPI   C2B 7406   3.801   5.093   9.598  0.0745 -0.0667 -0.2181
  463loPI   C3B 7407   3.750   5.123   9.226 -0.3392 -0.1631 -0.0305
  463loPI   C4B 7408   3.757   5.223   8.873  0.0716  0.0489  0.2835
  464loPI    C1 7409   0.756  14.698  11.012 -0.1441 -0.1625  0.0178
  464loPI    C2 7410   0.658  15.042  11.190 -0.0468 -0.1586  0.0640
  464loPI    C3 7411   0.452  14.709  11.272 -0.1950 -0.0947 -0.0440
  464loPI   PO4 7412   0.951  14.753  10.868  0.0168  0.2663  0.2069
  464loPI   GL1 7413   1.032  14.826  10.427 -0.0386  0.4242  0.0383
  464loPI   GL2 7414   0.658  14.712  10.425  0.1351  0.0550 -0.1594
  464loPI   C1A 7415   1.270  14.917  10.017 -0.6668  0.1355  0.2506
  464loPI   C2A 7416   1.298  15.000   9.594  0.0282  0.4032  0.1685
  464loPI   C3A 7417   1.271  14.897   9.089  0.0942  0.0583 -0.1260
  464loPI   C4A 7418   1.270  15.053   8.749 -0.1166  0.0553 -0.2534
  464loPI   C5A 7419   1.334  14.884   8.289  0.2443 -0.0396 -0.3086
  464loPI   C6A 7420   1.401  14.755   7.853 -0.0562 -0.0869 -0.0459
  464loPI   C1B 7421   0.772  14.754  10.027 -0.1177 -0.2526 -0.0227
  464loPI   C2B 7422   0.851  14.780   9.686 -0.1210  0.2342  0.0351
  464loPI   C3B 7423   0.814  14.737   9.205 -0.1697  0.0054 -0.0544
  464loPI   C4B 7424   0.783  14.895   8.838 -0.1358  0.1153  0.3590
  465loPI    C1 7425   7.182   5.886  11.247  0.3090 -0.2218 -0.1246
  465loPI    C2 7426   7.334   6.192  11.455 -0.0336 -0.1453  0.0190
  465loPI    C3 7427   7.389   5.816  11.582  0.0691 -0.1211  0.0470
  465loPI   PO4 7428   7.213   5.957  11.019 -0.0772 -0.0962  0.2584
  465loPI   GL1 7429   7.147   6.036  10.639  0.0833  0.1711  0.1963
  465loPI   GL2 7430   7.255   6.146  10.330  0.2748  0.0255 -0.0487
  465loPI   C1A 7431   6.984   5.748  10.236 -0.1925  0.1128 -0.1135
  465loPI   C2A 7432   6.965   5.783   9.768  0.0012 -0.0745  0.1927
  465loPI   C3A 7433   6.993   5.662   9.399 -0.0730  0.0122 -0.2251
  465loPI   C4A 7434   7.011   5.655   8.964 -0.0431  0.0346 -0.1745
  465loPI   C5A 7435   7.101   5.650   8.577 -0.2974 -0.0439  0.0016
  465loPI   C6A 7436   7.471   5.620   8.303 -0.0376  0.4368 -0.0097
  465loPI   C1B 7437   7.326   6.161   9.871  0.3862  0.1688 -0.2743
  465loPI   C2B 7438   7.260   6.101   9.456 -0.1287 -0.1047  0.2746
  465loPI   C3B 7439   7.323   6.149   9.012  0.1601  0.2716 -0.0635
  465loPI   C4B 7440   7.293   6.082   8.646  0.3298  0.2685 -0.1296
  466loPI    C1 7441  13.725  14.529  10.513 -0.0073  0.0856  0.0943
  466loPI    C2 7442  13.556  14.560  10.874  0.0726  0.2155  0.1207
  466loPI    C3 7443  13.350  14.403  10.570 -0.0094  0.1446  0.2127
  466loPI   PO4 7444  13.988  14.385  10.561  0.1254 -0.0286 -0.2244
  466loPI   GL1 7445  14.032  14.052  10.283 -0.2045  0.1062  0.1867
  466loPI   GL2 7446  14.218  14.282  10.142  0.0355 -0.2934  0.1343
  466loPI   C1A 7447  13.927  14.097   9.824 -0.3775 -0.0759 -0.1918
  466loPI   C2A 7448  13.924  14.037   9.442 -0.0460  0.3026 -0.0768
  466loPI   C3A 7449  13.971  14.005   9.065  0.1755 -0.0583 -0.1062
  466loPI   C4A 7450  14.010  14.016   8.640 -0.1110 -0.3672  0.0154
  466loPI   C5A 7451  14.087  13.957   8.237  0.0513 -0.2218 -0.2355
  466loPI   C6A 7452  14.260  14.350   7.965  0.2149 -0.0743  0.2041
  466loPI   C1B 7453  14.438  14.134   9.698  0.0301  0.1845 -0.1749
  466loPI   C2B 7454  14.419  14.214   9.312 -0.2207  0.3615  0.2799
  466loPI   C3B 7455  14.487  14.158   8.895  0.3272 -0.0129 -0.1471
  466loPI   C4B 7456  14.429  14.346   8.503  0.2331 -0.0913 -0.1253
  467loPI    C1 7457   8.101  10.489  11.228 -0.0944 -0.1389  0.0885
  467loPI    C2 7458   8.498  10.467  11.187 -0.1115 -0.1644 -0.0718
  467loPI    C3 7459   8.340  10.638  11.512  0.0312  0.0224 -0.0987
  467loPI   PO4 7460   8.014  10.506  10.965  0.1151  0.2402  0.3089
  467loPI   GL1 7461   7.976  10.433  10.496 -0.1054  0.0817  0.1179
  467loPI   GL2 7462   7.949  10.668  10.399  0.2895  0.1223  0.1243
  467loPI   C1A 7463   8.132  10.206  10.150  0.1014  0.2636 -0.0859
  467loPI   C2A 7464   8.085  10.247   9.679  0.0719  0.1168 -0.0407
  467loPI   C3A 7465   8.182  10.175   9.255  0.2239  0.0356 -0.1089
  467loPI   C4A 7466   8.113  10.136   8.862 -0.2953 -0.0882 -0.0604
  467loPI   C5A 7467   8.019  10.114   8.346  0.0498 -0.0769 -0.0933
  467loPI   C6A 7468   7.958  10.017   8.012 -0.0648  0.1435  0.0602
  467loPI   C1B 7469   8.201  10.757   9.985 -0.1565  0.0506 -0.1601
  467loPI   C2B 7470   8.291  10.775   9.442  0.1437  0.2386 -0.1181
  467loPI   C3B 7471   8.285  10.723   8.975 -0.0157 -0.1140  0.0507
  467loPI   C4B 7472   8.234  10.634   8.526 -0.1772 -0.0397  0.2122
  468loPI    C1 7473   8.392   0.412  10.478 -0.1194  0.0881  0.1288
  468loPI    C2 7474   8.032   0.327  10.631 -0.0558 -0.1550  0.1465
  468loPI    C3 7475   8.271   0.032  10.504  0.0438  0.0198 -0.0799
  468loPI   PO4 7476   8.296   0.673  10.357  0.0789 -0.0693 -0.0296
  468loPI   GL1 7477   8.053   0.780  10.027  0.0980 -0.0395 -0.3279
  468loPI   GL2 7478   8.043   0.376  10.055 -0.0066  0.1147 -0.1590
  468loPI   C1A 7479   8.143   0.833   9.628  0.1607 -0.4417 -0.0957
  468loPI   C2A 7480   8.048   0.619   9.212  0.1811 -0.2755  0.2111
  468loPI   C3A 7481   8.017   0.756   8.745 -0.0541 -0.0776 -0.2118
  468loPI   C4A 7482   7.958   0.635   8.371 -0.0361 -0.2635  0.0920
  468loPI   C5A 7483   8.028   0.844   7.989  0.1296 -0.3759 -0.2946
  468loPI   C6A 7484   7.574   0.820   7.919  0.1311  0.0904  0.3119
  468loPI   C1B 7485   7.991   0.354   9.596 -0.0834  0.0245  0.2261
  468loPI   C2B 7486   7.920   0.168   9.201 -0.0786  0.1997  0.4346
  468loPI   C3B 7487   7.949   0.196   8.726 -0.0604 -0.0083 -0.0900
  468loPI   C4B 7488   8.130   0.192   8.316  0.2144 -0.1060 -0.0314
  469loPI    C1 7489   5.829  15.845  10.409  0.0616  0.4262  0.0293
  469loPI    C2 7490   5.700  16.219  10.469 -0.4190  0.2144  0.3871
  469loPI    C3 7491   5.690  15.954  10.768 -0.0028 -0.0677  0.1614
  469loPI   PO4 7492   5.785  15.738  10.237 -0.0080  0.0243  0.0277
  469loPI   GL1 7493   5.844  15.764   9.796 -0.1136  0.1308  0.0297
  469loPI   GL2 7494   5.928  16.126   9.926  0.0862  0.2586 -0.0846
  469loPI   C1A 7495   5.905  15.674   9.371  0.1281 -0.1270  0.0448
  469loPI   C2A 7496   5.800  15.772   8.893 -0.0937  0.1892  0.2334
  469loPI   C3A 7497   5.492  16.063   8.752 -0.0770 -0.2494  0.2526
  469loPI   C4A 7498   5.408  16.004   8.242 -0.1345  0.1746 -0.1396
  469loPI   C5A 7499   5.216  15.574   8.100 -0.1665  0.1380  0.2693
  469loPI   C6A 7500   5.066  15.185   8.191 -0.1723  0.1813  0.1268
  469loPI   C1B 7501   5.872  16.193   9.444  0.2122 -0.1285  0.2246
  469loPI   C2B 7502   5.864  16.339   9.048  0.0153  0.1744 -0.1918
  469loPI   C3B 7503   5.936  16.281   8.588 -0.1382 -0.2695 -0.4525
  469loPI   C4B 7504   5.908  16.320   8.214 -0.1795  0.0463  0.3476
  470loPI    C1 7505   2.036   3.970  10.856  0.0254 -0.2853 -0.0794
  470loPI    C2 7506   1.953   3.772  11.194 -0.1909  0.0154  0.0484
  470loPI    C3 7507   2.065   4.155  11.210  0.0798 -0.0494 -0.2058
  470loPI   PO4 7508   1.861   3.900  10.668 -0.0142 -0.1416  0.1188
  470loPI   GL1 7509   1.707   4.059  10.203 -0.0078 -0.2815  0.0591
  470loPI   GL2 7510   1.691   3.755  10.021  0.0758 -0.1978 -0.4031
  470loPI   C1A 7511   1.614   4.263   9.789 -0.0126  0.1858 -0.0258
  470loPI   C2A 7512   1.378   4.291   9.389  0.0236  0.2356  0.0494
  470loPI   C3A 7513   1.452   4.376   8.898  0.1271  0.2253 -0.0808
  470loPI   C4A 7514   1.419   4.459   8.388  0.0168 -0.0348 -0.1172
  470loPI   C5A 7515   1.542   4.299   7.982  0.2392  0.2773 -0.0836
  470loPI   C6A 7516   1.487   3.838   7.774 -0.3045  0.0060  0.1468
  470loPI   C1B 7517   1.688   3.825   9.595 -0.0467  0.0270 -0.0479
  470loPI   C2B 7518   1.574   3.868   9.173 -0.0891  0.1338  0.1965
  470loPI   C3B 7519   1.460   3.910   8.715 -0.2568  0.0068  0.4044
  470loPI   C4B 7520   1.435   3.958   8.346 -0.2298  0.0135 -0.0131
  471loPI    C1 7521   7.706  16.090  10.942  0.0120 -0.2655 -0.0749
  471loPI    C2 7522   7.436  16.340  11.098  0.0721 -0.1549 -0.1461
  471loPI    C3 7523   7.826  16.415  11.142  0.0912 -0.2676 -0.1188
  471loPI   PO4 7524   7.674  16.048  10.674  0.1133  0.0008  0.2075
  471loPI   GL1 7525   7.549  15.770  10.437 -0.0030  0.2102  0.1668
  471loPI   GL2 7526   7.798  15.620  10.480  0.2202  0.0402  0.3012
  471loPI   C1A 7527   7.651  16.022  10.058  0.0065  0.1406  0.1326
  471loPI   C2A 7528   7.538  15.965   9.622  0.0479  0.1032 -0.0310
  471loPI   C3A 7529   7.503  16.095   9.191  0.0009 -0.0690 -0.0569
  471loPI   C4A 7530   7.551  16.148   8.822  0.1134 -0.0212 -0.3544
  471loPI   C5A 7531   7.736  16.110   8.425  0.0144  0.0978 -0.1177
  471loPI   C6A 7532   7.831  16.290   8.085  0.1655 -0.1425 -0.0254
  471loPI   C1B 7533   8.084  15.714  10.161 -0.3714  0.0153 -0.3717
  471loPI   C2B 7534   8.122  15.707   9.744 -0.2590  0.0258 -0.0709
  471loPI   C3B 7535   8.000  15.791   9.286 -0.3868 -0.1099 -0.2191
  471loPI   C4B 7536   8.036  15.780   8.872  0.2494  0.3298  0.0163
  472loPI    C1 7537   7.534  15.210  10.708 -0.1022  0.0350  0.1614
  472loPI    C2 7538   7.857  14.984  10.637  0.0767  0.2834  0.1709
  472loPI    C3 7539   7.550  14.835  10.846  0.0679 -0.0454 -0.0694
  472loPI   PO4 7540   7.458  15.283  10.445 -0.3107  0.2514  0.1036
  472loPI   GL1 7541   7.282  15.406  10.084  0.2678 -0.3044  0.4821
  472loPI   GL2 7542   7.586  15.527   9.983 -0.1339  0.1218  0.1007
  472loPI   C1A 7543   7.216  15.296   9.655 -0.0010  0.2324  0.2336
  472loPI   C2A 7544   7.096  15.285   9.197 -0.2128  0.2205 -0.1897
  472loPI   C3A 7545   7.071  15.359   8.760  0.0737  0.2377  0.1111
  472loPI   C4A 7546   7.066  15.097   8.469  0.2137  0.3158 -0.2338
  472loPI   C5A 7547   6.788  14.846   8.339 -0.0701 -0.0768  0.1424
  472loPI   C6A 7548   6.667  14.658   8.048  0.0366  0.1999  0.1046
  472loPI   C1B 7549   7.686  15.462   9.551 -0.1136  0.4499  0.0723
  472loPI   C2B 7550   7.549  15.557   9.150 -0.1680  0.1193  0.1538
  472loPI   C3B 7551   7.636  15.508   8.686  0.4121 -0.2584 -0.5043
  472loPI   C4B 7552   8.000  15.661   8.386  0.0541  0.3126  0.0687
  473loPI    C1 7553  14.734   9.175  11.114 -0.2042 -0.0674  0.0746
  473loPI    C2 7554  14.643   9.438  10.826  0.0262  0.1178  0.1671
  473loPI    C3 7555  14.382   9.365  11.121 -0.1000  0.1288  0.0592
  473loPI   PO4 7556  14.779   8.966  11.002 -0.0670  0.0047  0.1240
  473loPI   GL1 7557  14.421   8.792  10.798  0.0209  0.1961  0.2657
  473loPI   GL2 7558  14.298   9.103  10.682  0.2607  0.0799 -0.0345
  473loPI   C1A 7559  14.521   8.743  10.404 -0.1995  0.0318 -0.1238
  473loPI   C2A 7560  14.590   8.745   9.966  0.0043 -0.0420 -0.0078
  473loPI   C3A 7561  14.617   8.621   9.569 -0.0996 -0.1255 -0.3008
  473loPI   C4A 7562  14.668   8.668   9.121 -0.0983  0.0026  0.0873
  473loPI   C5A 7563  14.727   8.696   8.655  0.0140 -0.2277  0.1117
  473loPI   C6A 7564  14.790   8.809   8.234 -0.0996 -0.1251 -0.0246
  473loPI   C1B 7565  14.439   9.178  10.251 -0.1260 -0.2093  0.1026
  473loPI   C2B 7566  14.558   9.285   9.844 -0.3069  0.0217 -0.0597
  473loPI   C3B 7567  14.579   9.250   9.329  0.1750  0.1994  0.2949
  473loPI   C4B 7568  14.687   9.144   8.951  0.1350 -0.0493  0.1318
  474loPI    C1 7569   0.871   9.377  11.008  0.1369 -0.0564 -0.0892
  474loPI    C2 7570   1.024   9.034  11.145  0.1699 -0.0234 -0.0433
  474loPI    C3 7571   1.108   9.378  11.330  0.0098 -0.0096  0.0049
  474loPI   PO4 7572   0.671   9.326  10.919 -0.4334  0.3926 -0.1171
  474loPI   GL1 7573   0.335   9.411  10.693 -0.1530 -0.0766  0.1243
  474loPI   GL2 7574   0.161   9.128  10.803 -0.1043  0.0202  0.0740
  474loPI   C1A 7575   0.230   9.513  10.289 -0.0232 -0.0020  0.0341
  474loPI   C2A 7576   0.216   9.448   9.863  0.3188  0.0121  0.0931
  474loPI   C3A 7577   0.278   9.612   9.542  0.0463  0.0672 -0.0213
  474loPI   C4A 7578   0.137   9.612   9.132  0.1227 -0.0614  0.2398
  474loPI   C5A 7579  -0.092   9.702   8.696 -0.0734 -0.2913 -0.0788
  474loPI   C6A 7580  -0.097   9.743   8.335 -0.1651 -0.1076 -0.1558
  474loPI   C1B 7581  -0.128   9.147  10.550 -0.0197 -0.0880 -0.3246
  474loPI   C2B 7582  -0.122   9.177  10.132  0.0795  0.2790  0.0066
  474loPI   C3B 7583  -0.206   9.142   9.722  0.0403 -0.0679  0.1731
  474loPI   C4B 7584  -0.135   9.241   9.414  0.2238 -0.0689 -0.0704
  475loPI    C1 7585  15.673   9.563  11.322 -0.0966 -0.1033  0.1238
  475loPI    C2 7586  15.940   9.551  11.620 -0.0651 -0.1006  0.0957
  475loPI    C3 7587  15.554   9.475  11.693 -0.0208 -0.3320  0.0955
  475loPI   PO4 7588  15.845   9.437  11.096  0.3536 -0.1372 -0.0564
  475loPI   GL1 7589  15.891   9.311  10.670  0.2029 -0.0513 -0.0187
  475loPI   GL2 7590  15.535   9.436  10.694 -0.0726 -0.0227 -0.0043
  475loPI   C1A 7591  15.930   9.184  10.210  0.1047 -0.0060  0.1006
  475loPI   C2A 7592  15.869   8.981   9.820  0.0203 -0.0016  0.0893
  475loPI   C3A 7593  15.933   8.645   9.461 -0.0282  0.0877 -0.0170
  475loPI   C4A 7594  15.998   8.349   9.151 -0.0369 -0.1641  0.1682
  475loPI   C5A 7595  15.911   8.017   8.835 -0.1148 -0.0703  0.2030
  475loPI   C6A 7596  15.770   7.650   8.502  0.5676 -0.0433  0.2959
  475loPI   C1B 7597  15.437   9.322  10.217 -0.0546 -0.0840  0.0951
  475loPI   C2B 7598  15.451   9.300   9.775 -0.1323  0.0528  0.3045
  475loPI   C3B 7599  15.389   9.327   9.348  0.0583  0.0457  0.3387
  475loPI   C4B 7600  15.766   9.349   8.883  0.1745 -0.2063  0.2395
  476loPI    C1 7601  14.420   7.227  11.489 -0.0917 -0.0518  0.0480
  476loPI    C2 7602  14.591   7.588  11.509  0.4017 -0.2920  0.3409
  476loPI    C3 7603  14.214   7.538  11.633  0.1147  0.2358 -0.2636
  476loPI   PO4 7604  14.479   7.200  11.202  0.0204 -0.0540 -0.2023
  476loPI   GL1 7605  14.376   7.380  10.732 -0.0306  0.0138 -0.0500
  476loPI   GL2 7606  14.113   7.198  10.671  0.0201 -0.3808 -0.1836
  476loPI   C1A 7607  14.280   7.423  10.213 -0.1322  0.1796 -0.2072
  476loPI   C2A 7608  14.281   7.433   9.741  0.0031  0.1038  0.1274
  476loPI   C3A 7609  14.306   7.379   9.404  0.0030  0.2934  0.1882
  476loPI   C4A 7610  14.324   7.392   8.992  0.0789 -0.1107  0.1709
  476loPI   C5A 7611  14.185   7.329   8.573  0.0344  0.0541  0.0366
  476loPI   C6A 7612  13.892   7.104   8.360  0.1933  0.0626 -0.0874
  476loPI   C1B 7613  13.980   7.040  10.302  0.1903 -0.1536 -0.0875
  476loPI   C2B 7614  13.888   7.099   9.922 -0.2542 -0.1558  0.1075
  476loPI   C3B 7615  13.873   7.034   9.389  0.2641  0.3703 -0.0585
  476loPI   C4B 7616  13.962   7.078   8.957 -0.0348 -0.2568 -0.0747
  477loPI    C1 7617   7.318   6.492  10.811  0.2646 -0.1496 -0.1158
  477loPI    C2 7618   7.380   6.832  11.012  0.0066 -0.1490 -0.0342
  477loPI    C3 7619   7.134   6.553  11.161  0.2188 -0.3740 -0.0988
  477loPI   PO4 7620   7.558   6.414  10.700  0.3487 -0.0333  0.0501
  477loPI   GL1 7621   7.744   6.660  10.277  0.2885 -0.0146  0.0523
  477loPI   GL2 7622   7.465   6.582  10.227 -0.2210 -0.0990 -0.0018
  477loPI   C1A 7623   7.759   7.049   9.952 -0.0077 -0.3603 -0.1304
  477loPI   C2A 7624   7.838   6.992   9.507 -0.1649  0.0834 -0.2505
  477loPI   C3A 7625   7.835   6.901   9.091  0.2298  0.2753  0.3373
  477loPI   C4A 7626   7.752   6.897   8.590 -0.0323  0.0002  0.1392
  477loPI   C5A 7627   7.896   7.201   8.279  0.1410  0.0156 -0.3457
  477loPI   C6A 7628   8.255   7.365   8.168  0.0402  0.2402 -0.0578
  477loPI   C1B 7629   7.519   6.621   9.752  0.0971 -0.3561 -0.0545
  477loPI   C2B 7630   7.575   6.540   9.302  0.1158 -0.0249 -0.1172
  477loPI   C3B 7631   7.535   6.533   8.814 -0.4108 -0.1458  0.1310
  477loPI   C4B 7632   7.340   6.417   8.307 -0.2128  0.2664 -0.1825
  478loPI    C1 7633   1.600   3.073  10.864  0.0292  0.1720 -0.0758
  478loPI    C2 7634   1.833   3.298  11.098  0.1987 -0.1338  0.0539
  478loPI    C3 7635   1.551   3.066  11.261 -0.0327  0.0464 -0.0853
  478loPI   PO4 7636   1.633   3.040  10.572 -0.0662  0.2609 -0.3080
  478loPI   GL1 7637   1.620   3.190  10.252  0.1889 -0.2247  0.1778
  478loPI   GL2 7638   1.998   3.199  10.182 -0.2623  0.4152 -0.3448
  478loPI   C1A 7639   1.665   3.354   9.833 -0.5008 -0.2331 -0.0284
  478loPI   C2A 7640   1.663   3.339   9.390 -0.1054 -0.1147 -0.2638
  478loPI   C3A 7641   1.553   3.399   8.981  0.2409 -0.0532 -0.0287
  478loPI   C4A 7642   1.804   3.401   8.634  0.2599 -0.0379  0.0154
  478loPI   C5A 7643   2.159   3.592   8.339  0.4617 -0.0471 -0.3140
  478loPI   C6A 7644   2.477   3.515   8.208 -0.0739 -0.1432  0.0073
  478loPI   C1B 7645   1.814   2.898   9.836  0.1555  0.2730 -0.3250
  478loPI   C2B 7646   1.810   2.785   9.407 -0.0165 -0.1439  0.1588
  478loPI   C3B 7647   1.915   2.530   9.109  0.1082  0.0699 -0.1285
  478loPI   C4B 7648   1.886   2.293   8.765  0.0933  0.0080  0.4363
  479loPI    C1 7649   5.304  10.556  10.893  0.0052 -0.2261  0.2107
  479loPI    C2 7650   5.675  10.503  11.031  0.1277  0.0896  0.0141
  479loPI    C3 7651   5.437  10.778  11.198  0.0579  0.0381 -0.0005
  479loPI   PO4 7652   5.425  10.406  10.602  0.0065  0.0586 -0.4059
  479loPI   GL1 7653   5.335  10.313  10.239 -0.0325 -0.2722 -0.0812
  479loPI   GL2 7654   5.652  10.170  10.172 -0.1650  0.1942 -0.3522
  479loPI   C1A 7655   5.478  10.421   9.811  0.1092  0.0615  0.0297
  479loPI   C2A 7656   5.407  10.448   9.374  0.0609 -0.1500 -0.0879
  479loPI   C3A 7657   5.473  10.350   8.990  0.0884  0.2049  0.0772
  479loPI   C4A 7658   5.633  10.377   8.556 -0.0053  0.3219  0.2831
  479loPI   C5A 7659   5.513  10.360   8.239  0.1409  0.0040  0.2665
  479loPI   C6A 7660   5.245  10.217   7.906  0.0036 -0.0909  0.0819
  479loPI   C1B 7661   5.767   9.980   9.730 -0.0058 -0.0932  0.1902
  479loPI   C2B 7662   5.626   9.941   9.298 -0.2657 -0.0291 -0.1945
  479loPI   C3B 7663   5.768   9.959   8.856 -0.0034 -0.1268  0.1351
  479loPI   C4B 7664   5.851   9.865   8.466  0.1019 -0.0006  0.3758
  480loPI    C1 7665  10.410  16.642  10.871 -0.0627  0.0916  0.2002
  480loPI    C2 7666  10.741  16.524  11.062 -0.0465 -0.1354  0.0361
  480loPI    C3 7667  10.535  16.840  11.196  0.0685 -0.1753  0.3152
  480loPI   PO4 7668  10.463  16.683  10.624 -0.0807  0.0260  0.1379
  480loPI   GL1 7669  10.327  16.398  10.317  0.1106 -0.0959 -0.3680
  480loPI   GL2 7670  10.623  16.212  10.140  0.2331 -0.3163 -0.2797
  480loPI   C1A 7671  10.094  16.449  10.012 -0.2108 -0.2405  0.1740
  480loPI   C2A 7672   9.927  16.537   9.550  0.2310  0.1484 -0.0181
  480loPI   C3A 7673   9.889  16.354   9.228 -0.3414 -0.0524  0.0151
  480loPI   C4A 7674   9.916  16.430   8.821 -0.1677  0.3608 -0.0103
  480loPI   C5A 7675   9.992  16.444   8.327  0.2540 -0.2261 -0.1616
  480loPI   C6A 7676   9.785  16.366   7.937  0.2018  0.1333  0.0357
  480loPI   C1B 7677  10.370  16.130   9.755 -0.0459  0.0849 -0.0306
  480loPI   C2B 7678  10.303  16.054   9.340  0.1085  0.1125 -0.4407
  480loPI   C3B 7679  10.281  16.111   8.943  0.1190 -0.3200  0.0147
  480loPI   C4B 7680  10.312  16.117   8.466  0.1330 -0.1604  0.0522
  481loPI    C1 7681   0.169  16.247  11.196 -0.0199 -0.0398  0.0912
  481loPI    C2 7682  -0.127  16.273  11.464 -0.1677 -0.0806 -0.0656
  481loPI    C3 7683   0.060  16.604  11.340 -0.2195 -0.0437 -0.0460
  481loPI   PO4 7684  -0.012  16.086  10.993 -0.3470  0.2143 -0.2230
  481loPI   GL1 7685   0.078  16.179  10.517  0.3882  0.3676 -0.1628
  481loPI   GL2 7686   0.445  16.168  10.329  0.1531  0.1697 -0.0508
  481loPI   C1A 7687  -0.240  16.247  10.207 -0.0671 -0.0642 -0.1060
  481loPI   C2A 7688  -0.309  16.317   9.813  0.1274  0.1932 -0.2093
  481loPI   C3A 7689  -0.269  16.283   9.345  0.2046  0.3470 -0.0634
  481loPI   C4A 7690  -0.239  16.328   8.929 -0.0743  0.2833 -0.1642
  481loPI   C5A 7691  -0.129  16.362   8.540 -0.2659  0.1476  0.1164
  481loPI   C6A 7692  -0.301  16.419   8.158 -0.4578  0.0481 -0.1287
  481loPI   C1B 7693   0.588  16.135   9.918 -0.0903 -0.0990  0.1826
  481loPI   C2B 7694   0.585  16.047   9.532  0.1307  0.1234 -0.3384
  481loPI   C3B 7695   0.583  16.157   9.095  0.0536 -0.0726 -0.3268
  481loPI   C4B 7696   0.639  16.089   8.670 -0.0456  0.2423 -0.2808
  482loPI    C1 7697   3.462   2.168  10.701 -0.1629  0.1807  0.0058
  482loPI    C2 7698   3.144   2.092  10.933 -0.1039 -0.1350 -0.0116
  482loPI    C3 7699   3.460   2.287  11.083 -0.1382 -0.1822  0.1230
  482loPI   PO4 7700   3.412   2.225  10.472 -0.2739 -0.0858  0.0917
  482loPI   GL1 7701   3.642   2.484  10.137  0.0878  0.0957 -0.0248
  482loPI   GL2 7702   3.955   2.521   9.884  0.0059 -0.0023 -0.2360
  482loPI   C1A 7703   3.572   2.386   9.596  0.0915  0.3142  0.0066
  482loPI   C2A 7704   3.666   2.336   9.153  0.0375 -0.1580 -0.1474
  482loPI   C3A 7705   3.666   2.327   8.681  0.2593 -0.0845  0.2013
  482loPI   C4A 7706   3.506   2.517   8.294 -0.0490  0.1065 -0.2845
  482loPI   C5A 7707   3.091   2.624   8.118 -0.0568  0.3470  0.1628
  482loPI   C6A 7708   2.947   2.929   7.804 -0.3700  0.0857  0.0042
  482loPI   C1B 7709   4.086   2.529   9.445  0.2091  0.0344 -0.1253
  482loPI   C2B 7710   4.067   2.567   9.026 -0.0947  0.1291  0.1138
  482loPI   C3B 7711   4.168   2.483   8.603 -0.3754  0.0115  0.2359
  482loPI   C4B 7712   4.213   2.404   8.094 -0.2899  0.3020 -0.2328
  483loPI    C1 7713   2.676  17.732  10.892  0.1710 -0.3254  0.1536
  483loPI    C2 7714   2.580  17.495  11.200 -0.1908 -0.0065  0.2934
  483loPI    C3 7715   2.874  17.764  11.238  0.0738 -0.2782  0.2050
  483loPI   PO4 7716   2.631  17.616  10.673 -0.1826 -0.1199 -0.2071
  483loPI   GL1 7717   2.799  17.268  10.255  0.0229 -0.0646  0.0512
  483loPI   GL2 7718   2.773  16.941  10.129  0.1148 -0.1010 -0.1061
  483loPI   C1A 7719   2.736  17.330   9.753  0.0492 -0.1611  0.0850
  483loPI   C2A 7720   2.844  17.306   9.369  0.2223  0.1839 -0.2943
  483loPI   C3A 7721   2.895  17.461   8.953  0.2051 -0.1632  0.2357
  483loPI   C4A 7722   2.868  17.502   8.546 -0.1830 -0.5255 -0.0854
  483loPI   C5A 7723   2.952  17.309   8.120  0.1338 -0.2308  0.0635
  483loPI   C6A 7724   3.272  17.326   7.856  0.0174 -0.3431 -0.1148
  483loPI   C1B 7725   2.789  16.798   9.663  0.0534 -0.0321 -0.0559
  483loPI   C2B 7726   2.712  16.733   9.143 -0.0460 -0.0861  0.0789
  483loPI   C3B 7727   2.720  16.850   8.746  0.6554 -0.2199  0.1005
  483loPI   C4B 7728   2.737  16.954   8.406  0.0781 -0.1863 -0.0393
  484loPI    C1 7729   9.283   3.169  10.397 -0.2240  0.0448  0.1347
  484loPI    C2 7730   9.186   3.195  10.784  0.1876  0.1145  0.2379
  484loPI    C3 7731   9.568   3.230  10.671  0.0462  0.3212 -0.1984
  484loPI   PO4 7732   9.084   3.229  10.315 -0.3385  0.0207 -0.1025
  484loPI   GL1 7733   8.916   3.353  10.034 -0.1008  0.0467 -0.3877
  484loPI   GL2 7734   8.665   3.413   9.918 -0.0919  0.0591 -0.3597
  484loPI   C1A 7735   9.117   3.478   9.639  0.1749 -0.0132 -0.0778
  484loPI   C2A 7736   9.241   3.492   9.290  0.2591 -0.1883  0.1921
  484loPI   C3A 7737   9.140   3.342   8.885  0.0797  0.4061 -0.3089
  484loPI   C4A 7738   9.140   3.203   8.508 -0.2207  0.0651  0.0628
  484loPI   C5A 7739   9.132   2.958   8.137 -0.0999 -0.2693  0.0470
  484loPI   C6A 7740   8.910   2.957   7.817  0.1035 -0.0019 -0.0447
  484loPI   C1B 7741   8.687   3.452   9.460 -0.1428 -0.0615  0.1933
  484loPI   C2B 7742   8.665   3.475   8.983  0.1076  0.1271  0.2292
  484loPI   C3B 7743   8.512   3.354   8.625 -0.1423  0.0781  0.1727
  484loPI   C4B 7744   8.712   3.230   8.215  0.1232  0.2070  0.0545
  485loPI    C1 7745  15.734   7.558  11.281  0.1466  0.0651 -0.0196
  485loPI    C2 7746  15.836   7.892  11.476  0.0864  0.0830 -0.0188
  485loPI    C3 7747  15.849   7.539  11.664  0.2110  0.0769 -0.0384
  485loPI   PO4 7748  15.557   7.668  11.063  0.2020  0.1952 -0.1284
  485loPI   GL1 7749  15.792   7.732  10.654 -0.0693 -0.0668 -0.2066
  485loPI   GL2 7750  15.654   7.846  10.400 -0.0787  0.2341  0.0917
  485loPI   C1A 7751  16.144   7.576  10.397 -0.0446 -0.0384 -0.0142
  485loPI   C2A 7752  16.115   7.194  10.108 -0.3317 -0.1350 -0.5011
  485loPI   C3A 7753  16.205   6.996   9.688  0.2461  0.0440 -0.1297
  485loPI   C4A 7754  16.093   7.002   9.230 -0.1049 -0.1907  0.3639
  485loPI   C5A 7755  15.953   6.988   8.778  0.0264  0.2495  0.0262
  485loPI   C6A 7756  15.733   6.797   8.459  0.4469  0.1754 -0.1195
  485loPI   C1B 7757  15.631   7.824   9.982  0.4523  0.1801 -0.1941
  485loPI   C2B 7758  15.524   7.746   9.578 -0.2895 -0.1285 -0.2612
  485loPI   C3B 7759  15.510   7.766   9.010  0.1907  0.0903 -0.1797
  485loPI   C4B 7760  15.469   7.989   8.634  0.1900 -0.0173 -0.3173
  486loPI    C1 7761  10.779   4.750  10.816  0.2100  0.2266  0.1528
  486loPI    C2 7762  10.792   4.351  10.785 -0.0319  0.2206  0.1096
  486loPI    C3 7763  10.956   4.533  11.101  0.0616  0.0858  0.1395
  486loPI   PO4 7764  10.775   4.785  10.580  0.1912  0.0301  0.2474
  486loPI   GL1 7765  11.069   4.982  10.386  0.1517  0.1621 -0.1289
  486loPI   GL2 7766  10.773   5.054  10.166 -0.2345  0.2514 -0.2226
  486loPI   C1A 7767  11.140   4.813  10.007 -0.1874  0.0867 -0.3909
  486loPI   C2A 7768  11.202   4.781   9.600  0.1578 -0.1440  0.3610
  486loPI   C3A 7769  11.131   4.774   9.128  0.0960  0.1257 -0.0484
  486loPI   C4A 7770  11.161   4.663   8.709 -0.0526  0.2015  0.0333
  486loPI   C5A 7771  11.300   4.776   8.233  0.1267 -0.1820  0.1078
  486loPI   C6A 7772  11.557   4.601   7.870 -0.1868 -0.2582 -0.0029
  486loPI   C1B 7773  10.640   4.735   9.849 -0.2527 -0.0059 -0.0193
  486loPI   C2B 7774  10.722   4.743   9.423 -0.1408  0.2623 -0.2045
  486loPI   C3B 7775  10.565   4.678   9.043 -0.4709  0.1802 -0.0780
  486loPI   C4B 7776  10.501   4.667   8.563  0.0310  0.1175 -0.0658
  487loPI    C1 7777  16.151   5.188  10.922  0.0407 -0.1343 -0.2537
  487loPI    C2 7778  16.037   4.843  11.090  0.0629 -0.0408 -0.0438
  487loPI    C3 7779  15.971   5.190  11.279 -0.0702  0.0814 -0.3088
  487loPI   PO4 7780  16.388   5.059  10.727  0.0523 -0.0976 -0.2662
  487loPI   GL1 7781  16.747   5.177  10.455  0.3137 -0.1069  0.0036
  487loPI   GL2 7782  16.494   5.022  10.229  0.2294  0.0175 -0.0811
  487loPI   C1A 7783  16.865   5.375  10.130  0.1852 -0.0428 -0.1752
  487loPI   C2A 7784  16.930   5.343   9.710  0.0033  0.1595 -0.0205
  487loPI   C3A 7785  16.939   5.385   9.301  0.0107  0.0148 -0.1618
  487loPI   C4A 7786  16.940   5.348   8.874 -0.0573 -0.1724  0.0578
  487loPI   C5A 7787  16.919   5.412   8.412 -0.0176 -0.0211  0.0651
  487loPI   C6A 7788  16.828   5.682   8.121  0.0597  0.1349  0.0620
  487loPI   C1B 7789  16.492   5.030   9.836 -0.1752 -0.1732  0.1222
  487loPI   C2B 7790  16.490   4.981   9.496 -0.0607  0.0054  0.0882
  487loPI   C3B 7791  16.545   5.054   9.067  0.0714  0.0007 -0.2191
  487loPI   C4B 7792  16.519   5.123   8.647 -0.1054  0.0738  0.2159
  488loPI    C1 7793   2.360  18.090  10.684  0.0497 -0.2043  0.0831
  488loPI    C2 7794   2.197  17.862  10.969  0.0797 -0.0778  0.2023
  488loPI    C3 7795   2.097  18.248  10.940  0.1189 -0.0767  0.0764
  488loPI   PO4 7796   2.358  17.985  10.485  0.4279 -0.0164  0.2829
  488loPI   GL1 7797   2.555  17.892  10.142 -0.1293 -0.2218 -0.3814
  488loPI   GL2 7798   2.713  17.738  10.150 -0.4555  0.1879 -0.2442
  488loPI   C1A 7799   2.363  18.072   9.823  0.3193 -0.0344 -0.0006
  488loPI   C2A 7800   2.544  18.130   9.415  0.1767  0.1959  0.0246
  488loPI   C3A 7801   2.477  18.206   8.950 -0.1199 -0.3944  0.3040
  488loPI   C4A 7802   2.475  18.175   8.507 -0.1004  0.0769 -0.1770
  488loPI   C5A 7803   2.504  18.175   7.996 -0.0594  0.0747  0.0403
  488loPI   C6A 7804   2.841  18.346   7.751  0.0290  0.1977 -0.1221
  488loPI   C1B 7805   2.749  17.841   9.694 -0.0227  0.2003  0.1005
  488loPI   C2B 7806   2.909  17.856   9.261  0.1188  0.5113  0.0648
  488loPI   C3B 7807   2.912  17.937   8.795  0.0487 -0.2095  0.2976
  488loPI   C4B 7808   3.036  17.970   8.374 -0.0586  0.1175 -0.1071
  489loPI    C1 7809   9.982   5.734  10.914  0.0565  0.0264  0.1801
  489loPI    C2 7810   9.719   5.810  11.206  0.1119  0.0882  0.2145
  489loPI    C3 7811   9.944   5.479  11.219 -0.1905 -0.1307  0.0216
  489loPI   PO4 7812   9.882   5.801  10.648  0.0490 -0.1326  0.1527
  489loPI   GL1 7813   9.706   5.554  10.308  0.0727 -0.0013 -0.0676
  489loPI   GL2 7814   9.681   5.243  10.314 -0.1061 -0.0739 -0.2491
  489loPI   C1A 7815   9.544   5.647   9.930 -0.2921  0.3030  0.1888
  489loPI   C2A 7816   9.559   5.673   9.417  0.0966 -0.0572 -0.2029
  489loPI   C3A 7817   9.636   5.643   8.974 -0.0802  0.1155 -0.1631
  489loPI   C4A 7818   9.475   5.609   8.467  0.2245  0.0124  0.1394
  489loPI   C5A 7819   9.670   5.695   8.176 -0.0069 -0.4891 -0.2336
  489loPI   C6A 7820   9.946   5.759   7.810  0.1042  0.1418  0.0003
  489loPI   C1B 7821   9.761   5.190   9.918 -0.1581 -0.1835  0.0823
  489loPI   C2B 7822   9.736   5.169   9.498 -0.1736 -0.0707 -0.1335
  489loPI   C3B 7823   9.872   5.227   9.151  0.0013  0.2826 -0.0371
  489loPI   C4B 7824   9.778   5.249   8.668 -0.2349 -0.1745 -0.0408
  490loPI    C1 7825   5.938   1.785  10.943 -0.2018  0.1711  0.1714
  490loPI    C2 7826   5.704   1.463  10.979  0.1387 -0.1222 -0.1608
  490loPI    C3 7827   6.100   1.429  11.025  0.1398  0.3391  0.2453
  490loPI   PO4 7828   5.925   1.932  10.669  0.2103  0.1666 -0.1261
  490loPI   GL1 7829   6.094   2.023  10.267  0.0965 -0.0613  0.1983
  490loPI   GL2 7830   5.832   1.757  10.134 -0.2266  0.1919  0.3362
  490loPI   C1A 7831   6.163   1.953   9.838 -0.1282  0.0213  0.2301
  490loPI   C2A 7832   6.193   2.116   9.481  0.2539 -0.2034  0.1534
  490loPI   C3A 7833   6.255   2.114   9.003  0.0452  0.1137 -0.0913
  490loPI   C4A 7834   6.215   2.218   8.599  0.1581  0.3317  0.0601
  490loPI   C5A 7835   6.037   2.192   8.203 -0.0777 -0.2042  0.0641
  490loPI   C6A 7836   6.195   2.166   7.774  0.1323  0.1811  0.1874
  490loPI   C1B 7837   5.972   1.476   9.732  0.0037 -0.2528  0.2597
  490loPI   C2B 7838   5.727   1.313   9.422 -0.2407  0.2096 -0.2786
  490loPI   C3B 7839   5.818   1.338   8.936 -0.0291  0.1595  0.0797
  490loPI   C4B 7840   5.835   1.306   8.551  0.0185  0.2329 -0.1410
  491loPI    C1 7841  14.210  13.962  10.917  0.0811 -0.1153 -0.0700
  491loPI    C2 7842  14.362  14.331  10.941  0.0520 -0.1045 -0.0519
  491loPI    C3 7843  13.981  14.265  11.043  0.1265 -0.1830  0.1806
  491loPI   PO4 7844  14.217  13.927  10.719  0.0494 -0.1775  0.0715
  491loPI   GL1 7845  14.478  13.733  10.379  0.2056 -0.0300  0.0294
  491loPI   GL2 7846  14.734  13.883  10.305 -0.0114  0.2688 -0.0430
  491loPI   C1A 7847  14.318  13.653  10.016  0.0832  0.1890  0.3863
  491loPI   C2A 7848  14.366  13.615   9.629  0.2059  0.0192  0.0071
  491loPI   C3A 7849  14.362  13.684   9.214  0.0800 -0.1063 -0.0851
  491loPI   C4A 7850  14.408  13.665   8.741  0.0135  0.1419  0.0053
  491loPI   C5A 7851  14.442  13.469   8.356 -0.0018  0.0598  0.0082
  491loPI   C6A 7852  14.265  13.342   8.041 -0.1466 -0.3287 -0.1036
  491loPI   C1B 7853  14.879  13.880   9.874 -0.1390 -0.1405 -0.0022
  491loPI   C2B 7854  14.882  13.821   9.436 -0.2821  0.4263 -0.1410
  491loPI   C3B 7855  14.804  13.841   9.042 -0.0089  0.0909  0.0834
  491loPI   C4B 7856  14.872  13.763   8.661  0.0228 -0.1556 -0.1733
  492loPI    C1 7857  10.000   2.240  10.426 -0.0779 -0.1677  0.1006
  492loPI    C2 7858  10.212   2.245  10.765  0.1822 -0.1225 -0.0605
  492loPI    C3 7859   9.813   2.266  10.779  0.1838 -0.2477  0.2477
  492loPI   PO4 7860  10.101   2.446  10.314 -0.0767 -0.0824 -0.0524
  492loPI   GL1 7861   9.927   2.723  10.006 -0.0026  0.1950  0.1214
  492loPI   GL2 7862   9.708   2.326  10.021 -0.1052  0.1687 -0.1200
  492loPI   C1A 7863  10.087   2.665   9.601 -0.0336 -0.1184 -0.1635
  492loPI   C2A 7864  10.426   2.930   9.356  0.0591 -0.2101  0.0364
  492loPI   C3A 7865  10.516   3.007   8.976  0.2139 -0.0256  0.1589
  492loPI   C4A 7866  10.658   2.771   8.655 -0.0223  0.1369  0.0388
  492loPI   C5A 7867  10.975   2.644   8.378  0.1259 -0.0931 -0.1240
  492loPI   C6A 7868  10.943   2.280   8.092  0.0209 -0.0345  0.2213
  492loPI   C1B 7869   9.869   2.233   9.700  0.0574  0.0428  0.0536
  492loPI   C2B 7870   9.982   2.250   9.186  0.0914  0.2965 -0.0353
  492loPI   C3B 7871  10.097   2.145   8.752  0.4648 -0.3081 -0.1829
  492loPI   C4B 7872  10.496   2.255   8.580  0.2065 -0.2364 -0.0875
  493loPI    C1 7873   9.400  15.532  11.214 -0.3345 -0.3003 -0.1652
  493loPI    C2 7874   9.591  15.304  11.482 -0.1355 -0.2188 -0.2359
  493loPI    C3 7875   9.234  15.461  11.571 -0.0787 -0.2069 -0.0251
  493loPI   PO4 7876   9.328  15.448  11.015 -0.1264 -0.3207  0.0606
  493loPI   GL1 7877   9.136  15.575  10.561  0.0312  0.0530 -0.0320
  493loPI   GL2 7878   9.415  15.722  10.480  0.1378 -0.1766  0.0538
  493loPI   C1A 7879   9.039  15.611  10.166  0.0933  0.0375  0.0117
  493loPI   C2A 7880   8.965  15.553   9.818 -0.1571  0.0083 -0.2294
  493loPI   C3A 7881   8.929  15.654   9.391 -0.2796 -0.1977 -0.0882
  493loPI   C4A 7882   8.464  15.481   9.199  0.1007 -0.2203 -0.1128
  493loPI   C5A 7883   8.304  15.096   8.923 -0.2408 -0.0703  0.1518
  493loPI   C6A 7884   8.013  15.186   8.597  0.1728  0.3354 -0.0220
  493loPI   C1B 7885   9.416  15.887  10.074 -0.2456 -0.1101  0.0895
  493loPI   C2B 7886   9.338  15.843   9.596  0.0751  0.0016 -0.0627
  493loPI   C3B 7887   9.353  15.770   9.122  0.1480  0.2242 -0.0335
  493loPI   C4B 7888   9.388  15.783   8.733  0.1755  0.0245  0.0383
  494loPI    C1 7889   2.574   3.583  10.678 -0.0357  0.0539 -0.0802
  494loPI    C2 7890   2.901   3.760  10.825 -0.0600  0.1558 -0.1469
  494loPI    C3 7891   2.913   3.375  10.716 -0.1492 -0.0426  0.4984
  494loPI   PO4 7892   2.473   3.764  10.559 -0.2796 -0.0109  0.1249
  494loPI   GL1 7893   2.322   4.075  10.281  0.1430  0.1049  0.0335
  494loPI   GL2 7894   2.134   3.773  10.239 -0.0487 -0.3707  0.1240
  494loPI   C1A 7895   2.115   4.117   9.855 -0.0449 -0.0073 -0.2729
  494loPI   C2A 7896   1.960   4.192   9.411 -0.0347  0.2328  0.0091
  494loPI   C3A 7897   1.983   4.085   8.921  0.2159 -0.0886 -0.0530
  494loPI   C4A 7898   1.930   4.084   8.414  0.2111 -0.1200  0.1987
  494loPI   C5A 7899   2.432   3.998   8.244 -0.0477 -0.0227 -0.2137
  494loPI   C6A 7900   2.777   4.203   8.500 -0.1299 -0.1466 -0.3690
  494loPI   C1B 7901   2.167   3.628   9.793  0.0663  0.0253  0.2031
  494loPI   C2B 7902   2.123   3.733   9.363  0.1011 -0.2265 -0.4889
  494loPI   C3B 7903   2.099   3.539   9.007 -0.3525 -0.0257 -0.0123
  494loPI   C4B 7904   2.408   3.317   8.767  0.1247 -0.0227 -0.0159
  495loPI    C1 7905   0.992   5.953  11.075  0.0129  0.2548 -0.0435
  495loPI    C2 7906   0.811   5.621  11.205  0.0857  0.1758 -0.1420
  495loPI    C3 7907   1.206   5.664  11.250  0.0402  0.3624  0.1032
  495loPI   PO4 7908   0.853   6.102  10.817 -0.2728 -0.1935  0.1466
  495loPI   GL1 7909   1.021   6.294  10.464 -0.2370  0.0264  0.0034
  495loPI   GL2 7910   0.694   6.386  10.440 -0.1135 -0.0019  0.1452
  495loPI   C1A 7911   0.988   6.696  10.110  0.3094 -0.1451 -0.1719
  495loPI   C2A 7912   1.027   6.760   9.626  0.0427 -0.1399 -0.1537
  495loPI   C3A 7913   0.843   6.660   9.151 -0.0807  0.1091 -0.0655
  495loPI   C4A 7914   0.773   6.582   8.773  0.0368 -0.0155 -0.0082
  495loPI   C5A 7915   0.667   6.369   8.409 -0.0057 -0.0059 -0.0912
  495loPI   C6A 7916   0.445   6.123   8.154 -0.0930  0.0850 -0.1533
  495loPI   C1B 7917   0.588   6.464  10.000  0.0283 -0.2151 -0.2912
  495loPI   C2B 7918   0.580   6.456   9.558  0.0758 -0.0411 -0.0279
  495loPI   C3B 7919   0.348   6.301   9.221 -0.0319  0.0254 -0.2749
  495loPI   C4B 7920   0.327   6.226   8.802  0.0672 -0.2897  0.1901
  496loPI    C1 7921   2.634   9.969  10.777 -0.0420  0.3713 -0.2886
  496loPI    C2 7922   2.595  10.146  11.134 -0.2874  0.0640 -0.1591
  496loPI    C3 7923   2.951  10.003  11.020 -0.2207  0.1093 -0.0106
  496loPI   PO4 7924   2.383   9.903  10.683  0.1813  0.1088  0.1830
  496loPI   GL1 7925   2.163  10.012  10.283 -0.2770 -0.1862  0.0053
  496loPI   GL2 7926   2.057   9.714  10.360  0.2295 -0.0302  0.1482
  496loPI   C1A 7927   1.983   9.864   9.850 -0.1090 -0.1970  0.1159
  496loPI   C2A 7928   1.998   9.764   9.480 -0.1041  0.3826 -0.0003
  496loPI   C3A 7929   1.856   9.822   9.085  0.1885  0.2385 -0.1553
  496loPI   C4A 7930   1.757   9.722   8.580 -0.0858  0.2567  0.0626
  496loPI   C5A 7931   1.625   9.428   8.374  0.2671 -0.0650  0.3085
  496loPI   C6A 7932   1.530   9.375   7.939 -0.0574 -0.1013 -0.1337
  496loPI   C1B 7933   2.140   9.344   9.972 -0.0339 -0.1031  0.4139
  496loPI   C2B 7934   2.093   9.239   9.550  0.0233  0.1254 -0.2233
  496loPI   C3B 7935   2.201   9.114   9.112 -0.0340 -0.1800 -0.0475
  496loPI   C4B 7936   2.199   9.464   8.795  0.0358  0.2600 -0.0607
  497loPI    C1 7937   7.201   7.294  11.112  0.0906 -0.1198 -0.1753
  497loPI    C2 7938   6.842   7.425  11.230  0.1242  0.0031 -0.2086
  497loPI    C3 7939   6.939   7.041  11.278  0.1421  0.0525  0.1789
  497loPI   PO4 7940   7.228   7.508  10.871 -0.1655 -0.5250  0.2367
  497loPI   GL1 7941   7.239   7.325  10.495 -0.0262 -0.0669  0.0441
  497loPI   GL2 7942   7.374   6.995  10.551 -0.1314 -0.1022 -0.1253
  497loPI   C1A 7943   7.050   7.556  10.111  0.1747  0.0554  0.2105
  497loPI   C2A 7944   7.056   7.549   9.680 -0.0667  0.3566 -0.3489
  497loPI   C3A 7945   7.056   7.548   9.305 -0.1303  0.4212  0.0845
  497loPI   C4A 7946   7.121   7.556   8.863  0.2525  0.1645 -0.2048
  497loPI   C5A 7947   7.125   7.557   8.321 -0.3040  0.1077 -0.3408
  497loPI   C6A 7948   6.847   7.399   8.074  0.1604 -0.1332 -0.3611
  497loPI   C1B 7949   7.274   7.095  10.103  0.1131 -0.0226 -0.2304
  497loPI   C2B 7950   7.233   7.108   9.739  0.2347  0.1198 -0.2416
  497loPI   C3B 7951   7.334   7.048   9.292 -0.0592  0.1330  0.1774
  497loPI   C4B 7952   7.326   6.962   8.804  0.0815 -0.1382  0.0671
  498loPI    C1 7953  10.003   9.494  10.788  0.0665  0.1799 -0.1837
  498loPI    C2 7954  10.027   9.859  10.951 -0.1667  0.0829  0.0776
  498loPI    C3 7955  10.013   9.536  11.186 -0.0912 -0.0881 -0.1491
  498loPI   PO4 7956  10.137   9.515  10.615  0.1979  0.1369 -0.1543
  498loPI   GL1 7957  10.146   9.403  10.238  0.0595  0.0990 -0.0302
  498loPI   GL2 7958  10.195   9.015  10.148  0.0153  0.0426 -0.1703
  498loPI   C1A 7959  10.233   9.460   9.869  0.2780  0.0381  0.1685
  498loPI   C2A 7960  10.184   9.380   9.456 -0.1372 -0.1426  0.1006
  498loPI   C3A 7961  10.159   9.502   8.996 -0.0420  0.2186  0.0243
  498loPI   C4A 7962  10.234   9.543   8.496  0.0007  0.3816 -0.0329
  498loPI   C5A 7963  10.259   9.206   8.216  0.1786  0.0838 -0.0494
  498loPI   C6A 7964  10.174   8.882   8.060 -0.1558 -0.2436  0.1135
  498loPI   C1B 7965  10.038   8.977   9.706  0.2229 -0.1212 -0.3756
  498loPI   C2B 7966  10.165   8.840   9.209 -0.1845 -0.1253  0.1939
  498loPI   C3B 7967   9.942   9.053   8.865 -0.0933 -0.0414  0.3647
  498loPI   C4B 7968   9.711   8.988   8.501 -0.0405 -0.2791 -0.0447
  499loPI    C1 7969  14.500  17.398  11.386 -0.1135 -0.2057  0.0287
  499loPI    C2 7970  14.713  17.195  11.656  0.0830  0.0159  0.0430
  499loPI    C3 7971  14.326  17.271  11.723  0.0624 -0.1646  0.1358
  499loPI   PO4 7972  14.572  17.380  11.112 -0.2515  0.0615 -0.0968
  499loPI   GL1 7973  14.609  17.397  10.665 -0.0990 -0.2288  0.0845
  499loPI   GL2 7974  14.361  17.523  10.560  0.0736 -0.4115 -0.0193
  499loPI   C1A 7975  14.481  17.132  10.344 -0.0978  0.2474  0.1979
  499loPI   C2A 7976  14.315  17.146   9.839 -0.0192 -0.0632  0.2147
  499loPI   C3A 7977  14.244  17.155   9.342  0.0101 -0.1047  0.0884
  499loPI   C4A 7978  14.065  17.377   8.954 -0.1788 -0.1234  0.0071
  499loPI   C5A 7979  14.052  17.344   8.532  0.3869 -0.0213  0.2628
  499loPI   C6A 7980  14.139  17.157   8.157 -0.0203 -0.2244  0.0487
  499loPI   C1B 7981  14.430  17.570  10.083  0.1503 -0.0038 -0.3026
  499loPI   C2B 7982  14.433  17.584   9.562  0.4094 -0.1666  0.0699
  499loPI   C3B 7983  14.527  17.717   9.279  0.0543  0.1082  0.2212
  499loPI   C4B 7984  14.404  17.683   8.817  0.2217  0.0563  0.0711
  500loPI    C1 7985   0.644   4.609  11.098  0.1698  0.3330  0.0453
  500loPI    C2 7986   0.700   4.293  11.337  0.1260  0.1763 -0.1485
  500loPI    C3 7987   0.846   4.651  11.440 -0.1649  0.1829  0.2665
  500loPI   PO4 7988   0.644   4.469  10.810 -0.0901 -0.1856 -0.5004
  500loPI   GL1 7989   0.850   4.633  10.480 -0.1882 -0.1872 -0.0179
  500loPI   GL2 7990   0.618   4.458  10.310 -0.3579  0.0944  0.1650
  500loPI   C1A 7991   0.918   4.997  10.183 -0.2399 -0.1102 -0.2331
  500loPI   C2A 7992   0.840   5.106   9.783 -0.1003  0.1381 -0.1548
  500loPI   C3A 7993   0.920   5.015   9.370  0.2161 -0.2374  0.3804
  500loPI   C4A 7994   0.848   5.138   8.934  0.1591  0.0336  0.0233
  500loPI   C5A 7995   0.816   5.417   8.510 -0.0956  0.0275  0.1360
  500loPI   C6A 7996   1.052   5.348   8.105  0.1103  0.1518 -0.0567
  500loPI   C1B 7997   0.610   4.669   9.941 -0.0315 -0.0975 -0.1952
  500loPI   C2B 7998   0.537   4.698   9.393  0.3427  0.0670 -0.1290
  500loPI   C3B 7999   0.443   4.723   8.928 -0.0017 -0.3208 -0.0579
  500loPI   C4B 8000   0.488   4.943   8.573 -0.0214 -0.1680  0.1913
  501loPI    C1 8001  11.029   1.671  10.685  0.0244 -0.0789  0.0940
  501loPI    C2 8002  10.831   1.794  11.011  0.1893 -0.0327  0.1777
  501loPI    C3 8003  11.229   1.833  10.991  0.1844 -0.0693 -0.0147
  501loPI   PO4 8004  10.841   1.817  10.480  0.0096 -0.0148  0.1835
  501loPI   GL1 8005  10.580   1.656  10.147  0.0550 -0.1254  0.0748
  501loPI   GL2 8006  10.460   1.388  10.247 -0.0097  0.1162 -0.0511
  501loPI   C1A 8007  10.755   1.457   9.720  0.0860 -0.4266 -0.3719
  501loPI   C2A 8008  10.608   1.396   9.271  0.0582 -0.0965  0.0323
  501loPI   C3A 8009  10.375   1.177   8.863 -0.0022  0.1729  0.1236
  501loPI   C4A 8010  10.377   0.937   8.467 -0.1304  0.1795  0.1667
  501loPI   C5A 8011  10.700   0.931   8.199  0.1399  0.0033 -0.1278
  501loPI   C6A 8012  11.109   0.819   7.890  0.6260 -0.0146  0.0960
  501loPI   C1B 8013  10.557   1.064   9.982 -0.1280 -0.1739 -0.1584
  501loPI   C2B 8014  10.651   0.701   9.900  0.2151 -0.0540 -0.0003
  501loPI   C3B 8015  10.615   0.470   9.526  0.0058  0.0401 -0.0766
  501loPI   C4B 8016  10.786   0.382   9.159  0.2057  0.0166 -0.3526
  502loPI    C1 8017   5.553   6.871  11.084  0.0683 -0.1714 -0.0293
  502loPI    C2 8018   5.534   6.657  11.422  0.1304 -0.0490  0.0523
  502loPI    C3 8019   5.785   6.968  11.396 -0.1138  0.1477  0.0110
  502loPI   PO4 8020   5.567   6.707  10.893  0.1742  0.2597  0.0752
  502loPI   GL1 8021   5.676   6.752  10.518 -0.1116  0.1458  0.1437
  502loPI   GL2 8022   6.004   6.767  10.321 -0.0280 -0.3641  0.1364
  502loPI   C1A 8023   5.484   6.802  10.069  0.0005 -0.0070  0.0197
  502loPI   C2A 8024   5.483   6.701   9.580 -0.0308 -0.4602  0.0306
  502loPI   C3A 8025   5.606   6.882   9.143  0.3171  0.0299  0.1088
  502loPI   C4A 8026   5.517   6.826   8.702 -0.0204 -0.3634 -0.0969
  502loPI   C5A 8027   5.292   6.900   8.322 -0.2901  0.1425 -0.0795
  502loPI   C6A 8028   4.857   6.752   8.033  0.1150  0.1607  0.2226
  502loPI   C1B 8029   5.967   6.769   9.869  0.3097 -0.0650  0.0463
  502loPI   C2B 8030   6.084   6.781   9.502  0.1136 -0.0976  0.0588
  502loPI   C3B 8031   6.141   6.738   9.045 -0.2863 -0.2112  0.0710
  502loPI   C4B 8032   6.039   6.794   8.599 -0.1066 -0.0370  0.1924
  503loPI    C1 8033  11.797   8.225  11.111  0.0469  0.1751 -0.1395
  503loPI    C2 8034  11.690   8.430  11.438  0.1646 -0.0478  0.0417
  503loPI    C3 8035  11.415   8.332  11.165  0.0461  0.0464  0.1261
  503loPI   PO4 8036  12.035   8.339  10.988 -0.1425 -0.3112 -0.2942
  503loPI   GL1 8037  12.176   8.380  10.524 -0.0724  0.0815 -0.0175
  503loPI   GL2 8038  12.415   8.260  10.439  0.0219  0.1889 -0.0776
  503loPI   C1A 8039  12.158   8.672  10.178  0.1909  0.1806 -0.1511
  503loPI   C2A 8040  12.323   8.711   9.864 -0.0881  0.1207 -0.0385
  503loPI   C3A 8041  12.290   8.555   9.557 -0.1264 -0.2281  0.1482
  503loPI   C4A 8042  12.390   8.776   9.192  0.1492  0.1260  0.0280
  503loPI   C5A 8043  12.386   8.863   8.785  0.1405 -0.0165 -0.1007
  503loPI   C6A 8044  12.083   8.673   8.354  0.3209  0.0522  0.1141
  503loPI   C1B 8045  12.344   8.176  10.033 -0.0977  0.0815  0.1245
  503loPI   C2B 8046  12.398   8.062   9.520 -0.1047  0.0456  0.0892
  503loPI   C3B 8047  12.491   8.246   8.994 -0.0032 -0.0439 -0.1238
  503loPI   C4B 8048  12.476   8.411   8.537 -0.3020 -0.1596 -0.0967
  504loPI    C1 8049   4.903   7.675  10.837 -0.3167  0.0574 -0.0606
  504loPI    C2 8050   5.096   7.651  11.187 -0.0057  0.1030 -0.2250
  504loPI    C3 8051   4.719   7.785  11.175 -0.0701 -0.0370  0.1075
  504loPI   PO4 8052   5.092   7.761  10.674  0.1103 -0.1813  0.2471
  504loPI   GL1 8053   5.367   7.580  10.367  0.0388  0.2452  0.0659
  504loPI   GL2 8054   5.361   7.965  10.314 -0.1034 -0.1689  0.1598
  504loPI   C1A 8055   5.781   7.204  10.151  0.2628  0.2504  0.3653
  504loPI   C2A 8056   5.834   7.188   9.708 -0.0162  0.3461 -0.0613
  504loPI   C3A 8057   5.862   7.294   9.243  0.1566 -0.0332 -0.1578
  504loPI   C4A 8058   5.814   7.238   8.856 -0.2202  0.0667  0.2331
  504loPI   C5A 8059   5.846   7.220   8.485  0.0168  0.1665  0.0249
  504loPI   C6A 8060   6.239   7.192   8.216 -0.1663 -0.0650 -0.2208
  504loPI   C1B 8061   5.329   8.162   9.825 -0.0767 -0.2198  0.0136
  504loPI   C2B 8062   5.445   8.275   9.421 -0.1180  0.0760 -0.0293
  504loPI   C3B 8063   5.439   8.248   8.962  0.2844 -0.0597  0.0945
  504loPI   C4B 8064   5.309   8.400   8.526  0.2877  0.1454 -0.1341
  505loPI    C1 8065  16.573  16.716  10.748  0.0869 -0.0879 -0.1792
  505loPI    C2 8066  16.934  16.556  10.684  0.1273 -0.0289 -0.0987
  505loPI    C3 8067  16.816  16.642  11.057  0.1223  0.1661 -0.1445
  505loPI   PO4 8068  16.405  16.544  10.498 -0.2233  0.0631  0.2853
  505loPI   GL1 8069  16.042  16.453  10.258  0.1199  0.1614 -0.2696
  505loPI   GL2 8070  15.711  16.333  10.278  0.1554  0.0836  0.0226
  505loPI   C1A 8071  16.208  16.549   9.816 -0.0480 -0.2005  0.0652
  505loPI   C2A 8072  16.279  16.594   9.420 -0.0790  0.1222  0.3057
  505loPI   C3A 8073  16.241  16.702   9.015 -0.2704 -0.2360  0.0722
  505loPI   C4A 8074  16.060  16.849   8.592 -0.0060  0.1818 -0.0648
  505loPI   C5A 8075  15.967  16.580   8.258  0.0960  0.2179  0.0950
  505loPI   C6A 8076  16.080  16.449   7.852  0.0845  0.0602  0.1035
  505loPI   C1B 8077  15.720  16.182   9.832 -0.1216  0.0697  0.1438
  505loPI   C2B 8078  15.751  15.951   9.331 -0.1473  0.0585  0.0222
  505loPI   C3B 8079  15.801  15.961   8.853  0.2437  0.2666 -0.1987
  505loPI   C4B 8080  15.775  16.028   8.451  0.0824  0.1040 -0.0118
  506loPI    C1 8081  16.387  10.692  11.260  0.1052  0.0103 -0.0223
  506loPI    C2 8082  16.400  11.021  11.488 -0.1149 -0.1026  0.1573
  506loPI    C3 8083  16.470  10.662  11.650  0.0264 -0.1554 -0.0175
  506loPI   PO4 8084  16.526  10.747  11.064 -0.0885 -0.0440  0.2231
  506loPI   GL1 8085  16.363  10.833  10.672  0.1412 -0.1562 -0.1941
  506loPI   GL2 8086  16.025  10.729  10.588  0.0829  0.0436  0.0312
  506loPI   C1A 8087  16.631  10.692  10.391  0.2494 -0.2080  0.1863
  506loPI   C2A 8088  16.589  10.714   9.986 -0.1659 -0.4854 -0.0332
  506loPI   C3A 8089  16.532  11.050   9.686  0.1114  0.0583 -0.3510
  506loPI   C4A 8090  16.615  11.080   9.225 -0.1369 -0.1807 -0.2715
  506loPI   C5A 8091  16.606  11.039   8.842  0.2493 -0.2567  0.3143
  506loPI   C6A 8092  16.584  10.631   8.543 -0.0339  0.0125 -0.0609
  506loPI   C1B 8093  16.122  10.876  10.135  0.1344  0.0781 -0.1314
  506loPI   C2B 8094  16.067  10.930   9.753 -0.0927 -0.0956  0.3380
  506loPI   C3B 8095  16.064  10.986   9.352  0.3335  0.1312  0.0101
  506loPI   C4B 8096  16.082  11.018   8.862  0.2625  0.0871 -0.0751
  507loPI    C1 8097   1.555   7.977  11.217  0.0948 -0.2603 -0.0124
  507loPI    C2 8098   1.175   7.852  11.195  0.0834 -0.2320  0.0236
  507loPI    C3 8099   1.403   7.745  11.506 -0.0337  0.1276  0.2405
  507loPI   PO4 8100   1.645   7.890  10.978 -0.1844  0.0688 -0.1774
  507loPI   GL1 8101   1.911   8.126  10.590 -0.0187  0.0353 -0.1163
  507loPI   GL2 8102   1.630   7.983  10.461  0.0372  0.3740  0.0094
  507loPI   C1A 8103   1.904   8.509  10.242  0.3105 -0.1471 -0.0572
  507loPI   C2A 8104   1.715   8.451   9.744  0.1019 -0.3099  0.1290
  507loPI   C3A 8105   1.690   8.318   9.365 -0.1028  0.3286  0.0269
  507loPI   C4A 8106   1.686   8.253   8.826  0.0324  0.1698 -0.0458
  507loPI   C5A 8107   1.987   8.077   8.532  0.2707 -0.1012  0.0117
  507loPI   C6A 8108   2.146   7.744   8.219 -0.1433 -0.2410  0.0165
  507loPI   C1B 8109   1.502   8.251  10.111  0.1012  0.1068  0.3184
  507loPI   C2B 8110   1.307   8.208   9.701 -0.0610  0.0578 -0.0441
  507loPI   C3B 8111   1.260   8.105   9.305 -0.0283  0.0681  0.0740
  507loPI   C4B 8112   1.293   7.956   8.919 -0.0241  0.0679  0.1229
  508loPI    C1 8113   2.450  13.828  11.269  0.1782 -0.1217  0.0102
  508loPI    C2 8114   2.334  13.476  11.420 -0.1272  0.0548  0.1966
  508loPI    C3 8115   2.596  13.703  11.620  0.3320 -0.2119 -0.0847
  508loPI   PO4 8116   2.567  13.713  11.051 -0.0345 -0.3531 -0.0386
  508loPI   GL1 8117   2.719  13.673  10.639 -0.0013  0.0974 -0.0631
  508loPI   GL2 8118   2.639  14.020  10.589  0.1480  0.2521 -0.2874
  508loPI   C1A 8119   2.936  13.677  10.291 -0.1108  0.2527  0.1318
  508loPI   C2A 8120   2.827  13.654   9.885 -0.0509 -0.0079 -0.3253
  508loPI   C3A 8121   2.867  13.614   9.426 -0.1422  0.0306  0.0210
  508loPI   C4A 8122   2.846  13.511   8.998 -0.1841 -0.3235 -0.0639
  508loPI   C5A 8123   2.844  13.660   8.546 -0.1758  0.0443  0.0464
  508loPI   C6A 8124   2.676  13.543   8.133  0.0782 -0.0558 -0.3312
  508loPI   C1B 8125   2.444  13.924  10.186 -0.1498 -0.0993 -0.1533
  508loPI   C2B 8126   2.432  13.874   9.640  0.0988  0.1132 -0.2700
  508loPI   C3B 8127   2.488  13.833   9.229 -0.0723  0.0974  0.1231
  508loPI   C4B 8128   2.402  13.842   8.850  0.0404  0.0802  0.0300
  509loPI    C1 8129  12.697   0.375  10.587 -0.1837 -0.0494  0.0792
  509loPI    C2 8130  12.613   0.713  10.784  0.1656  0.0625  0.0428
  509loPI    C3 8131  12.953   0.517  10.860  0.1802 -0.0355 -0.2616
  509loPI   PO4 8132  12.406   0.253  10.540  0.0596  0.2595 -0.0569
  509loPI   GL1 8133  12.356  -0.013  10.177  0.4518  0.0381 -0.3037
  509loPI   GL2 8134  12.125  -0.158  10.354 -0.1498  0.2890  0.0026
  509loPI   C1A 8135  12.133  -0.143   9.771  0.4542  0.1079  0.1006
  509loPI   C2A 8136  12.164  -0.324   9.391 -0.1869  0.2558 -0.2113
  509loPI   C3A 8137  12.133  -0.179   8.990 -0.1408  0.1262  0.1967
  509loPI   C4A 8138  12.135  -0.431   8.592  0.2882 -0.1241 -0.3486
  509loPI   C5A 8139  12.185  -0.506   8.162 -0.1379  0.0304 -0.0930
  509loPI   C6A 8140  12.347  -0.599   7.721  0.1733  0.0810  0.1650
  509loPI   C1B 8141  12.327  -0.470  10.072 -0.0988 -0.0095 -0.0803
  509loPI   C2B 8142  12.329  -0.670   9.716  0.2645 -0.0028  0.0895
  509loPI   C3B 8143  12.376  -0.865   9.360  0.0832  0.0883 -0.0040
  509loPI   C4B 8144  12.339  -1.102   9.009  0.1114  0.1418  0.0832
  510loPI    C1 8145   4.003   1.027  11.080  0.1419  0.1226 -0.0144
  510loPI    C2 8146   3.771   1.205  11.353  0.1263 -0.1092  0.1262
  510loPI    C3 8147   4.151   1.115  11.441  0.1049 -0.2355  0.0920
  510loPI   PO4 8148   3.900   0.834  10.852 -0.0756 -0.0189  0.1260
  510loPI   GL1 8149   3.860   0.905  10.460  0.1994  0.2038  0.1973
  510loPI   GL2 8150   3.647   0.860  10.293  0.0802  0.1740  0.1704
  510loPI   C1A 8151   4.056   0.987   9.970 -0.1399  0.0438 -0.1211
  510loPI   C2A 8152   4.028   0.987   9.525 -0.2188  0.3293  0.1167
  510loPI   C3A 8153   3.923   1.030   9.119 -0.1433 -0.1097 -0.1905
  510loPI   C4A 8154   3.917   0.928   8.757  0.3327  0.0032  0.1264
  510loPI   C5A 8155   3.778   1.091   8.325 -0.0598  0.1959 -0.2963
  510loPI   C6A 8156   3.694   1.041   7.895  0.0955  0.0198 -0.0208
  510loPI   C1B 8157   3.507   0.724   9.804 -0.3440 -0.1914 -0.1599
  510loPI   C2B 8158   3.499   0.786   9.348 -0.4273 -0.1165 -0.2758
  510loPI   C3B 8159   3.565   0.678   9.006  0.0900 -0.1503  0.2964
  510loPI   C4B 8160   3.458   0.852   8.669  0.1426  0.2256 -0.2045
  511loPI    C1 8161   9.913   7.054  11.090 -0.1602  0.0634  0.3198
  511loPI    C2 8162  10.229   6.812  11.048 -0.0843  0.1887  0.1567
  511loPI    C3 8163   9.885   6.668  11.193 -0.0274 -0.0069  0.1011
  511loPI   PO4 8164   9.911   7.210  10.869  0.2039  0.0159  0.0449
  511loPI   GL1 8165   9.944   7.361  10.413 -0.1196  0.0105 -0.0271
  511loPI   GL2 8166   9.865   7.614  10.447  0.0385  0.1873  0.1503
  511loPI   C1A 8167  10.031   7.360  10.036  0.2633 -0.1552 -0.4906
  511loPI   C2A 8168  10.088   7.458   9.665  0.2176 -0.0414  0.0525
  511loPI   C3A 8169  10.117   7.482   9.223 -0.2779 -0.0057  0.1420
  511loPI   C4A 8170  10.039   7.350   8.841 -0.0577  0.1478  0.0202
  511loPI   C5A 8171   9.954   7.519   8.423 -0.0838 -0.3009  0.1850
  511loPI   C6A 8172   9.778   7.535   8.041  0.1937 -0.1261  0.2232
  511loPI   C1B 8173   9.762   7.812  10.168  0.0114  0.1617  0.0271
  511loPI   C2B 8174   9.763   7.915   9.679  0.0217 -0.3750  0.3186
  511loPI   C3B 8175   9.851   7.868   9.211 -0.1931 -0.0856  0.1534
  511loPI   C4B 8176   9.784   7.819   8.782  0.0324 -0.1952  0.0855
  512loPI    C1 8177   4.291   8.936  10.587 -0.0307 -0.1607  0.1188
  512loPI    C2 8178   3.950   9.054  10.415  0.0140  0.0426  0.1674
  512loPI    C3 8179   3.966   8.704  10.608 -0.0598 -0.1493 -0.1671
  512loPI   PO4 8180   4.434   8.933  10.302 -0.2082 -0.1067  0.1227
  512loPI   GL1 8181   4.572   9.225   9.842 -0.1781  0.1331 -0.0021
  512loPI   GL2 8182   4.950   9.045   9.963  0.5471 -0.1015 -0.1006
  512loPI   C1A 8183   4.413   9.203   9.411  0.2795 -0.1397  0.2857
  512loPI   C2A 8184   4.560   9.200   9.089 -0.0550 -0.1627 -0.1181
  512loPI   C3A 8185   4.600   9.320   8.645  0.0678 -0.0636 -0.5926
  512loPI   C4A 8186   4.780   9.556   8.198 -0.2319  0.1453 -0.0040
  512loPI   C5A 8187   4.801   9.965   7.994 -0.2262  0.1522 -0.0216
  512loPI   C6A 8188   4.485  10.329   8.054  0.3691  0.2135  0.0435
  512loPI   C1B 8189   4.907   9.159   9.468  0.1983  0.1704  0.2488
  512loPI   C2B 8190   5.065   9.095   9.112 -0.1493 -0.3140 -0.5011
  512loPI   C3B 8191   5.068   9.313   8.759 -0.0400  0.2063 -0.0965
  512loPI   C4B 8192   5.233   9.292   8.256 -0.1360  0.1427  0.3726
  513loPI    C1 8193   6.547   5.445  11.082  0.1711 -0.1456  0.1292
  513loPI    C2 8194   6.682   5.821  11.103  0.1772 -0.1503  0.1749
  513loPI    C3 8195   6.823   5.544  11.355  0.3694 -0.2439 -0.0324
  513loPI   PO4 8196   6.541   5.383  10.894 -0.1688 -0.0376 -0.0948
  513loPI   GL1 8197   6.333   5.403  10.522 -0.4138 -0.0899  0.1071
  513loPI   GL2 8198   6.028   5.373  10.433  0.2432  0.1336 -0.1842
  513loPI   C1A 8199   6.478   5.309  10.078 -0.0058  0.1119  0.0529
  513loPI   C2A 8200   6.677   5.336   9.761 -0.1839 -0.0820 -0.0755
  513loPI   C3A 8201   6.690   5.293   9.259  0.0036  0.1740 -0.0646
  513loPI   C4A 8202   6.721   5.146   8.775 -0.0095  0.1121  0.3228
  513loPI   C5A 8203   6.620   5.216   8.313  0.3281  0.2422 -0.5164
  513loPI   C6A 8204   6.679   5.635   8.041 -0.0835  0.1004 -0.0903
  513loPI   C1B 8205   6.007   5.372  10.024  0.1709  0.2830 -0.0241
  513loPI   C2B 8206   6.174   5.409   9.685 -0.1303  0.0407 -0.1968
  513loPI   C3B 8207   6.198   5.405   9.263 -0.0835 -0.0573 -0.0305
  513loPI   C4B 8208   6.234   5.352   8.786 -0.1512  0.2149  0.1197
  514loPI    C1 8209   7.990   5.122  10.737 -0.0246  0.1585  0.0946
  514loPI    C2 8210   7.836   5.020  11.092  0.1229  0.0770  0.1363
  514loPI    C3 8211   8.221   4.946  11.013  0.0550 -0.0385 -0.0946
  514loPI   PO4 8212   7.813   4.982  10.548  0.0805  0.1513 -0.1360
  514loPI   GL1 8213   7.765   4.924  10.186  0.3424 -0.0074 -0.1335
  514loPI   GL2 8214   7.340   4.810  10.209 -0.1710 -0.1438 -0.2693
  514loPI   C1A 8215   7.914   4.773   9.809  0.1605 -0.1242 -0.0721
  514loPI   C2A 8216   8.006   4.708   9.348  0.1240 -0.2000 -0.2269
  514loPI   C3A 8217   8.033   4.758   8.891  0.2386 -0.4457  0.0121
  514loPI   C4A 8218   7.925   4.706   8.511  0.2057  0.1789 -0.1948
  514loPI   C5A 8219   7.802   4.609   8.170  0.0129  0.2233  0.0020
  514loPI   C6A 8220   8.037   4.528   7.854 -0.0949 -0.0694 -0.4251
  514loPI   C1B 8221   7.369   4.806   9.782  0.2856 -0.0347 -0.1693
  514loPI   C2B 8222   7.422   4.732   9.359  0.0145 -0.1378  0.1762
  514loPI   C3B 8223   7.457   4.738   8.980  0.1452 -0.3997  0.0877
  514loPI   C4B 8224   7.407   4.788   8.482 -0.2035 -0.2075  0.0455
  515loPI    C1 8225  11.512   1.798  10.550 -0.2831 -0.1601 -0.1732
  515loPI    C2 8226  11.831   1.564  10.495 -0.0263  0.1487 -0.0323
  515loPI    C3 8227  11.548   1.457  10.756  0.1054  0.0132  0.0569
  515loPI   PO4 8228  11.374   1.809  10.337 -0.0641  0.2468  0.4754
  515loPI   GL1 8229  11.515   1.685   9.910 -0.1696  0.1790 -0.0214
  515loPI   GL2 8230  11.707   1.438   9.975 -0.1434 -0.1388  0.3189
  515loPI   C1A 8231  11.245   1.759   9.534  0.0340  0.1191  0.0272
  515loPI   C2A 8232  11.089   1.544   9.237  0.2080 -0.0391 -0.3707
  515loPI   C3A 8233  10.925   1.421   8.899  0.1211 -0.1788 -0.0682
  515loPI   C4A 8234  10.782   1.373   8.499 -0.2902 -0.2355 -0.0045
  515loPI   C5A 8235  10.683   1.742   8.301 -0.0414  0.0044 -0.0037
  515loPI   C6A 8236  10.439   2.076   8.126  0.0044  0.2857 -0.1805
  515loPI   C1B 8237  11.830   1.271   9.546  0.0676  0.3244 -0.1410
  515loPI   C2B 8238  11.742   1.194   9.181 -0.0845 -0.0263 -0.1711
  515loPI   C3B 8239  11.945   1.163   8.647  0.0589  0.0163 -0.2240
  515loPI   C4B 8240  12.121   1.258   8.224  0.1560  0.0352 -0.2587
  516loPI    C1 8241   8.523   3.229  10.357  0.1757 -0.0329  0.0049
  516loPI    C2 8242   8.331   2.986  10.610 -0.0945 -0.0572 -0.2178
  516loPI    C3 8243   8.730   2.977  10.587 -0.0834 -0.2445  0.0119
  516loPI   PO4 8244   8.247   3.358  10.213 -0.0577  0.0412 -0.2819
  516loPI   GL1 8245   8.197   3.138   9.810 -0.0953 -0.2715 -0.0449
  516loPI   GL2 8246   8.200   2.884   9.661  0.0696  0.0040  0.2369
  516loPI   C1A 8247   8.137   3.350   9.447  0.3632  0.3551  0.1061
  516loPI   C2A 8248   8.103   3.415   8.985  0.1286 -0.1876  0.0514
  516loPI   C3A 8249   7.968   3.383   8.605  0.0820 -0.0204  0.1983
  516loPI   C4A 8250   8.215   3.366   8.148  0.1154  0.2838  0.1343
  516loPI   C5A 8251   8.212   3.197   7.776 -0.2251  0.1009  0.1687
  516loPI   C6A 8252   8.481   3.064   7.531 -0.3150  0.0512  0.0944
  516loPI   C1B 8253   8.401   2.965   9.294  0.2823 -0.2789  0.0060
  516loPI   C2B 8254   8.307   2.948   8.892  0.1268 -0.0648  0.0909
  516loPI   C3B 8255   8.203   2.932   8.432 -0.0893 -0.4072 -0.1169
  516loPI   C4B 8256   8.370   2.856   8.046  0.0989 -0.1188  0.0673
  517loPI    C1 8257   3.501   9.880  11.022  0.0034  0.0744  0.1123
  517loPI    C2 8258   3.889   9.788  10.986 -0.0125  0.0596 -0.0244
  517loPI    C3 8259   3.774  10.171  10.992  0.0022  0.0638 -0.0044
  517loPI   PO4 8260   3.394   9.695  10.797 -0.0659 -0.1610 -0.0400
  517loPI   GL1 8261   3.248   9.440  10.399 -0.0432 -0.1750  0.1347
  517loPI   GL2 8262   3.507   9.317  10.373 -0.2971 -0.1304 -0.0554
  517loPI   C1A 8263   2.961   9.424  10.101 -0.0772 -0.2611  0.1172
  517loPI   C2A 8264   2.939   9.372   9.583 -0.1917  0.1228 -0.0726
  517loPI   C3A 8265   2.887   9.352   9.164  0.1693 -0.1575 -0.2385
  517loPI   C4A 8266   2.645   9.199   8.921  0.0196 -0.1287 -0.0953
  517loPI   C5A 8267   2.718   9.266   8.494  0.0105  0.1065  0.1090
  517loPI   C6A 8268   2.482   9.325   8.109  0.2793  0.0493  0.1545
  517loPI   C1B 8269   3.399   9.073   9.939  0.0958 -0.2559  0.0119
  517loPI   C2B 8270   3.425   9.302   9.473  0.2530 -0.2408  0.3525
  517loPI   C3B 8271   3.401   9.299   9.039 -0.0721  0.0758  0.2414
  517loPI   C4B 8272   3.127   9.442   8.681 -0.0524  0.2942  0.3203
  518loPI    C1 8273   8.300  16.605  10.886  0.0176  0.2941 -0.0490
  518loPI    C2 8274   8.322  16.532  11.279  0.0244  0.0026 -0.1014
  518loPI    C3 8275   8.200  16.890  11.149 -0.0704  0.0697  0.1652
  518loPI   PO4 8276   8.132  16.376  10.754  0.0141 -0.1121  0.1509
  518loPI   GL1 8277   8.054  16.283  10.306 -0.0053  0.1044  0.2155
  518loPI   GL2 8278   8.088  16.615  10.297  0.0236 -0.2928  0.0332
  518loPI   C1A 8279   8.115  16.179   9.900  0.0605 -0.0357 -0.0106
  518loPI   C2A 8280   8.043  16.207   9.506  0.2272 -0.2477  0.2133
  518loPI   C3A 8281   8.076  16.211   9.061 -0.1192 -0.0941 -0.1177
  518loPI   C4A 8282   8.073  16.375   8.695 -0.0505  0.2667  0.1554
  518loPI   C5A 8283   8.439  16.528   8.380  0.0540 -0.1583  0.1241
  518loPI   C6A 8284   8.935  16.601   8.309  0.0956 -0.0395  0.0241
  518loPI   C1B 8285   8.186  16.666   9.950  0.0141  0.2295 -0.2251
  518loPI   C2B 8286   8.159  16.702   9.460  0.0127  0.2295 -0.0022
  518loPI   C3B 8287   8.105  16.750   9.002  0.0778 -0.3481 -0.1742
  518loPI   C4B 8288   8.079  16.856   8.560  0.1733 -0.2846  0.1927
  519loPI    C1 8289   3.994   2.448  10.535 -0.2670 -0.1624  0.1422
  519loPI    C2 8290   3.847   2.527  10.898 -0.2237 -0.1210  0.1508
  519loPI    C3 8291   3.685   2.700  10.575 -0.0016  0.1631  0.1877
  519loPI   PO4 8292   4.227   2.506  10.457  0.2118  0.0833  0.1663
  519loPI   GL1 8293   4.398   2.617  10.129  0.1566  0.2997 -0.1989
  519loPI   GL2 8294   4.571   2.297   9.956  0.0093  0.0603  0.0116
  519loPI   C1A 8295   4.811   2.661   9.872  0.2403 -0.0639  0.3711
  519loPI   C2A 8296   4.944   2.704   9.376 -0.4248  0.2479 -0.0307
  519loPI   C3A 8297   5.014   2.421   8.989  0.1847  0.2798 -0.2832
  519loPI   C4A 8298   5.008   2.363   8.639  0.0426  0.3016  0.1694
  519loPI   C5A 8299   5.054   2.517   8.252 -0.2114  0.0484  0.0070
  519loPI   C6A 8300   5.212   2.365   7.901 -0.4064 -0.1138  0.0844
  519loPI   C1B 8301   4.553   2.352   9.520  0.1896 -0.1259  0.0973
  519loPI   C2B 8302   4.494   2.376   9.163  0.2760  0.2191  0.2128
  519loPI   C3B 8303   4.562   2.201   8.812 -0.0567 -0.1261 -0.0205
  519loPI   C4B 8304   4.587   2.214   8.388  0.0431 -0.3892  0.1904
  520loPI    C1 8305   5.881  12.755  10.703 -0.2579  0.1256 -0.0597
  520loPI    C2 8306   5.771  12.868  11.071 -0.0168 -0.0260  0.0616
  520loPI    C3 8307   5.881  12.489  11.002 -0.0506  0.0038 -0.1654
  520loPI   PO4 8308   5.715  12.878  10.490  0.0573 -0.0445  0.1955
  520loPI   GL1 8309   5.564  12.893  10.045 -0.1747  0.0365 -0.2267
  520loPI   GL2 8310   5.624  13.238   9.929 -0.0384 -0.0068  0.1784
  520loPI   C1A 8311   5.487  12.719   9.563 -0.3731  0.2644  0.0457
  520loPI   C2A 8312   5.449  12.609   9.121  0.1203  0.1548  0.0383
  520loPI   C3A 8313   5.280  12.526   8.698 -0.1701 -0.2808 -0.0454
  520loPI   C4A 8314   5.284  12.527   8.261  0.0878 -0.1599 -0.1052
  520loPI   C5A 8315   5.412  12.729   7.920  0.1946 -0.1574 -0.2858
  520loPI   C6A 8316   5.786  13.017   7.740  0.1072  0.0921  0.1307
  520loPI   C1B 8317   5.556  13.227   9.425 -0.1744 -0.2869 -0.1043
  520loPI   C2B 8318   5.427  13.090   9.128  0.2180  0.1295  0.2760
  520loPI   C3B 8319   5.455  13.065   8.721  0.1052 -0.1063 -0.2138
  520loPI   C4B 8320   5.594  13.134   8.304 -0.2884 -0.0632  0.1247
  521loPI    C1 8321  16.778   0.217  10.878  0.1669 -0.0807 -0.0729
  521loPI    C2 8322  16.796   0.610  10.802 -0.1143 -0.0365  0.0767
  521loPI    C3 8323  16.971   0.462  11.130  0.2764 -0.0880 -0.1488
  521loPI   PO4 8324  16.884   0.125  10.602  0.0278 -0.0183  0.1023
  521loPI   GL1 8325  17.099  -0.040  10.241  0.0630 -0.0832 -0.0510
  521loPI   GL2 8326  17.445  -0.003  10.127 -0.0972 -0.0947 -0.0363
  521loPI   C1A 8327  17.040  -0.016   9.792  0.0645  0.3181  0.0611
  521loPI   C2A 8328  17.200   0.017   9.367 -0.3092  0.0909  0.3826
  521loPI   C3A 8329  17.196   0.193   8.975  0.2735  0.3768 -0.0518
  521loPI   C4A 8330  17.329   0.582   8.726 -0.5980 -0.0700  0.0155
  521loPI   C5A 8331  17.211   0.767   8.436 -0.1329 -0.0643  0.1553
  521loPI   C6A 8332  16.965   1.071   8.172  0.1238  0.2628 -0.0611
  521loPI   C1B 8333  17.594   0.028   9.715 -0.0293  0.0144  0.2833
  521loPI   C2B 8334  17.763   0.189   9.393 -0.1785 -0.0177 -0.0607
  521loPI   C3B 8335  17.731   0.346   8.990  0.0211 -0.0593  0.0154
  521loPI   C4B 8336  17.649   0.192   8.549  0.0856 -0.1567 -0.0186
  522loPI    C1 8337  16.902   2.218  10.865 -0.1229 -0.2193  0.3291
  522loPI    C2 8338  16.766   2.594  10.865  0.0240 -0.1603 -0.1473
  522loPI    C3 8339  16.990   2.463  11.169  0.1144  0.1906 -0.0575
  522loPI   PO4 8340  16.990   2.157  10.573 -0.0257  0.1374  0.0795
  522loPI   GL1 8341  17.232   2.086  10.224  0.1765  0.1877  0.3707
  522loPI   GL2 8342  17.046   2.350  10.117 -0.0893 -0.0420  0.0483
  522loPI   C1A 8343  17.455   2.258   9.706 -0.2536  0.0240  0.1689
  522loPI   C2A 8344  17.464   2.342   9.285  0.0637 -0.0200  0.1238
  522loPI   C3A 8345  17.674   2.189   8.870 -0.3463  0.1456  0.3819
  522loPI   C4A 8346  17.640   2.051   8.330 -0.3826 -0.2775  0.1081
  522loPI   C5A 8347  17.925   1.935   7.979  0.3617 -0.2010  0.0005
  522loPI   C6A 8348  18.035   1.618   7.558  0.1076 -0.0112  0.3105
  522loPI   C1B 8349  16.909   2.691   9.874  0.0851 -0.0456  0.1281
  522loPI   C2B 8350  16.825   3.002   9.583  0.2062  0.2301 -0.1418
  522loPI   C3B 8351  16.819   3.062   9.081 -0.0862 -0.2456  0.0078
  522loPI   C4B 8352  16.875   3.143   8.738  0.3583  0.0587 -0.1450
  523loPI    C1 8353  11.824   4.227  11.196  0.0045 -0.0908  0.1992
  523loPI    C2 8354  11.944   4.077  11.547  0.0940  0.0395  0.2252
  523loPI    C3 8355  11.555   4.147  11.482  0.0618 -0.1148  0.2466
  523loPI   PO4 8356  11.888   4.050  11.006  0.2113 -0.2142  0.0444
  523loPI   GL1 8357  12.027   3.968  10.629  0.0502 -0.1276 -0.1099
  523loPI   GL2 8358  12.258   4.126  10.345 -0.1674  0.0051  0.1410
  523loPI   C1A 8359  12.037   3.680  10.188 -0.3701  0.2723 -0.1742
  523loPI   C2A 8360  11.974   3.528   9.768  0.0768  0.2609 -0.2448
  523loPI   C3A 8361  11.976   3.522   9.292  0.1430 -0.0673 -0.1960
  523loPI   C4A 8362  11.892   3.417   8.883 -0.3926  0.1784  0.2887
  523loPI   C5A 8363  12.066   3.184   8.588  0.2513  0.1427 -0.2012
  523loPI   C6A 8364  12.018   2.853   8.349  0.3293 -0.0040  0.1040
  523loPI   C1B 8365  12.029   4.353  10.034 -0.0065  0.0576 -0.0577
  523loPI   C2B 8366  12.033   4.354   9.636  0.2018  0.1073 -0.0932
  523loPI   C3B 8367  11.922   4.364   9.239  0.0461 -0.2154  0.1694
  523loPI   C4B 8368  12.077   4.354   8.863  0.2359 -0.0864  0.1693
  524loPI    C1 8369  14.722   3.180  11.056 -0.0378 -0.1524  0.0658
  524loPI    C2 8370  14.912   2.846  11.170  0.2715 -0.0734 -0.2030
  524loPI    C3 8371  15.016   3.199  11.328  0.2136 -0.0545 -0.2071
  524loPI   PO4 8372  14.759   3.165  10.666 -0.0511  0.1418  0.1396
  524loPI   GL1 8373  14.700   3.447  10.368  0.0874 -0.1014  0.0537
  524loPI   GL2 8374  14.984   3.294  10.210  0.1264 -0.1291 -0.1115
  524loPI   C1A 8375  14.631   3.460   9.956  0.2776 -0.1839  0.0215
  524loPI   C2A 8376  14.339   3.456   9.699 -0.1780  0.4132  0.1134
  524loPI   C3A 8377  14.113   3.569   9.321  0.0143  0.0819  0.1008
  524loPI   C4A 8378  14.086   3.608   8.795  0.0467 -0.0161 -0.2581
  524loPI   C5A 8379  14.258   3.533   8.363  0.0455  0.2506 -0.0906
  524loPI   C6A 8380  14.500   3.483   8.006 -0.0467  0.4106  0.2727
  524loPI   C1B 8381  15.051   3.265   9.783 -0.0085  0.2721  0.2381
  524loPI   C2B 8382  14.966   3.129   9.389 -0.3447 -0.0778 -0.0913
  524loPI   C3B 8383  14.948   3.105   8.964  0.0736 -0.0916 -0.0192
  524loPI   C4B 8384  15.020   2.882   8.605  0.1967 -0.0744  0.1433
  525loPI    C1 8385   0.609   7.079  11.244  0.1717 -0.0276 -0.0161
  525loPI    C2 8386   0.527   6.719  11.399 -0.0963  0.0303 -0.0194
  525loPI    C3 8387   0.809   6.950  11.566 -0.1574 -0.0417  0.1870
  525loPI   PO4 8388   0.468   7.112  11.043  0.1163  0.1228  0.1445
  525loPI   GL1 8389   0.462   7.144  10.628 -0.2560 -0.1164 -0.1805
  525loPI   GL2 8390   0.756   7.306  10.460  0.0906  0.0361 -0.1381
  525loPI   C1A 8391   0.509   6.876  10.288  0.2169 -0.2014 -0.0735
  525loPI   C2A 8392   0.454   6.980   9.812  0.0814  0.3273  0.3255
  525loPI   C3A 8393   0.520   6.977   9.436  0.0951 -0.0202  0.1451
  525loPI   C4A 8394   0.554   7.086   8.967 -0.2212  0.0206 -0.0815
  525loPI   C5A 8395   0.836   7.176   8.524  0.0537  0.1488  0.1104
  525loPI   C6A 8396   0.773   7.314   8.066 -0.3060  0.0079  0.0769
  525loPI   C1B 8397   0.961   7.268  10.000 -0.0457 -0.0881 -0.0379
  525loPI   C2B 8398   0.900   7.282   9.555  0.0203 -0.0710  0.1439
  525loPI   C3B 8399   0.987   7.397   9.114  0.0108  0.1121  0.2013
  525loPI   C4B 8400   1.092   7.594   8.657 -0.0240  0.0981 -0.0388
  526loPI    C1 8401   4.244   9.438  10.732 -0.0890  0.3777  0.1499
  526loPI    C2 8402   4.538   9.246  10.925 -0.2370  0.0768  0.0817
  526loPI    C3 8403   4.158   9.134  10.977 -0.3244  0.3352  0.0169
  526loPI   PO4 8404   4.292   9.451  10.406 -0.0600  0.0154  0.0444
  526loPI   GL1 8405   3.932   9.442  10.108 -0.2267 -0.3709 -0.0951
  526loPI   GL2 8406   3.778   9.718   9.954  0.0481 -0.1199  0.0102
  526loPI   C1A 8407   3.908   9.069   9.866 -0.1047 -0.1260  0.1890
  526loPI   C2A 8408   3.691   8.804   9.577  0.0378  0.0993 -0.2758
  526loPI   C3A 8409   3.549   8.790   9.181  0.0545 -0.0383 -0.0984
  526loPI   C4A 8410   3.490   8.863   8.701  0.0386 -0.0533 -0.1054
  526loPI   C5A 8411   3.326   9.034   8.256  0.1762  0.0966  0.1964
  526loPI   C6A 8412   3.030   9.178   7.914 -0.0604  0.1385 -0.1154
  526loPI   C1B 8413   3.901   9.517   9.552  0.1231 -0.0975  0.0527
  526loPI   C2B 8414   3.823   9.254   9.241 -0.0116  0.2612  0.0105
  526loPI   C3B 8415   4.112   9.170   8.863  0.1126  0.3258 -0.0563
  526loPI   C4B 8416   4.195   9.203   8.381 -0.1721 -0.1534 -0.1695
  527loPI    C1 8417  12.113  15.994  10.643  0.0701  0.0527  0.1334
  527loPI    C2 8418  12.489  15.966  10.508 -0.0115  0.1776 -0.1258
  527loPI    C3 8419  12.410  16.183  10.835  0.1230  0.2661 -0.1511
  527loPI   PO4 8420  12.007  15.751  10.660  0.0134  0.0907 -0.3966
  527loPI   GL1 8421  11.941  15.540  10.291 -0.0205 -0.2288  0.0787
  527loPI   GL2 8422  12.249  15.545  10.260 -0.2648 -0.0604  0.0267
  527loPI   C1A 8423  11.914  15.375   9.821 -0.2037 -0.0804  0.0122
  527loPI   C2A 8424  12.009  15.212   9.486  0.0028 -0.0468 -0.0609
  527loPI   C3A 8425  12.028  15.146   9.111  0.1161 -0.0125 -0.0093
  527loPI   C4A 8426  12.033  15.121   8.793  0.2683 -0.0409 -0.0745
  527loPI   C5A 8427  12.066  15.357   8.406  0.0944  0.0647 -0.1879
  527loPI   C6A 8428  11.851  15.770   8.319 -0.0489  0.0697  0.0136
  527loPI   C1B 8429  12.373  15.407   9.947 -0.1622 -0.0275  0.0297
  527loPI   C2B 8430  12.485  15.409   9.570 -0.1266  0.1390 -0.1156
  527loPI   C3B 8431  12.446  15.340   9.154  0.0473 -0.1057 -0.1863
  527loPI   C4B 8432  12.546  15.282   8.736  0.0139 -0.1127 -0.0099
  528loPI    C1 8433   8.659  16.090  11.067 -0.2211  0.0815  0.0012
  528loPI    C2 8434   8.937  16.154  11.348 -0.0640 -0.0374 -0.1250
  528loPI    C3 8435   8.551  16.127  11.450 -0.0389  0.2051  0.0422
  528loPI   PO4 8436   8.786  16.308  10.873  0.1762 -0.1471  0.0116
  528loPI   GL1 8437   8.547  16.423  10.514 -0.1201  0.1893  0.3277
  528loPI   GL2 8438   8.537  16.826  10.466  0.0966 -0.2004  0.0633
  528loPI   C1A 8439   8.529  16.324  10.144  0.1904  0.1285  0.5215
  528loPI   C2A 8440   8.564  16.371   9.721  0.0453  0.4123  0.2190
  528loPI   C3A 8441   8.531  16.443   9.267  0.1293 -0.2481 -0.1379
  528loPI   C4A 8442   8.559  16.403   8.883  0.0477  0.1916  0.0586
  528loPI   C5A 8443   8.811  16.140   8.640 -0.1698 -0.0932  0.0143
  528loPI   C6A 8444   8.971  15.770   8.395  0.0013 -0.3239 -0.0383
  528loPI   C1B 8445   8.599  16.853  10.041 -0.2037 -0.0309  0.2414
  528loPI   C2B 8446   8.649  16.928   9.569 -0.1510 -0.0125  0.0544
  528loPI   C3B 8447   8.584  16.961   9.082 -0.4599  0.0272 -0.0859
  528loPI   C4B 8448   8.604  16.890   8.643  0.0307  0.2572 -0.1798
  529loPI    C1 8449   8.965   0.553  10.884  0.2672 -0.1757  0.0413
  529loPI    C2 8450   9.225   0.811  10.724  0.0982  0.0037  0.0519
  529loPI    C3 8451   9.034   0.904  11.063 -0.1836 -0.0074 -0.1009
  529loPI   PO4 8452   8.922   0.433  10.622 -0.1990  0.2660 -0.2552
  529loPI   GL1 8453   8.754   0.278  10.192 -0.0684 -0.2213 -0.0265
  529loPI   GL2 8454   8.597   0.494  10.005 -0.1597 -0.2972 -0.2008
  529loPI   C1A 8455   8.497  -0.037  10.036  0.4795  0.3542  0.0196
  529loPI   C2A 8456   8.412  -0.174   9.550  0.1618  0.0812 -0.0626
  529loPI   C3A 8457   8.443   0.073   9.195 -0.0011  0.2884  0.0280
  529loPI   C4A 8458   8.466   0.365   8.910  0.4752  0.0295 -0.0455
  529loPI   C5A 8459   8.389   0.499   8.522  0.0045 -0.1571 -0.0155
  529loPI   C6A 8460   8.477   0.526   8.160  0.1344  0.0646 -0.0451
  529loPI   C1B 8461   8.492   0.408   9.576 -0.0157 -0.1513 -0.3352
  529loPI   C2B 8462   8.537   0.721   9.221  0.1656 -0.2360 -0.1933
  529loPI   C3B 8463   8.501   0.907   8.832 -0.0505  0.3410 -0.0105
  529loPI   C4B 8464   8.522   0.989   8.423 -0.0828  0.0421  0.1584
  530loPI    C1 8465   8.147   8.888   9.863  0.0823  0.0580 -0.1263
  530loPI    C2 8466   7.870   8.861  10.150  0.2205 -0.0090  0.0025
  530loPI    C3 8467   7.958   9.217   9.990  0.0977  0.0198 -0.0024
  530loPI   PO4 8468   8.386   8.694   9.997 -0.1080  0.2000 -0.0253
  530loPI   GL1 8469   8.442   8.291   9.841 -0.0082 -0.2603  0.4016
  530loPI   GL2 8470   8.355   7.988   9.703  0.0906 -0.0646 -0.1139
  530loPI   C1A 8471   8.643   8.419   9.445  0.2507 -0.0512 -0.0760
  530loPI   C2A 8472   8.808   8.399   9.069 -0.0415  0.3795  0.2619
  530loPI   C3A 8473   9.015   8.295   8.738  0.2011  0.1539  0.1926
  530loPI   C4A 8474   9.013   8.264   8.299 -0.0045  0.5570 -0.0658
  530loPI   C5A 8475   8.833   8.176   7.954 -0.2961 -0.2268 -0.1328
  530loPI   C6A 8476   8.898   8.476   7.542 -0.3056  0.2031  0.1105
  530loPI   C1B 8477   8.263   8.158   9.278 -0.1683  0.0903 -0.3098
  530loPI   C2B 8478   8.276   8.514   8.968 -0.1233  0.1466 -0.0246
  530loPI   C3B 8479   8.524   8.848   9.006 -0.1948  0.0112 -0.0934
  530loPI   C4B 8480   8.922   8.949   9.026 -0.0220 -0.0677 -0.0497
  531loPI    C1 8481   7.618   4.062  10.927 -0.0659  0.0604 -0.1733
  531loPI    C2 8482   7.286   4.083  11.149  0.1222  0.0635  0.1134
  531loPI    C3 8483   7.506   3.749  11.149  0.2149  0.1241  0.0634
  531loPI   PO4 8484   7.539   4.151  10.697  0.1013  0.1538  0.2905
  531loPI   GL1 8485   7.597   4.295  10.295 -0.2141 -0.2421 -0.0342
  531loPI   GL2 8486   7.814   4.386  10.105  0.0201 -0.1282 -0.1627
  531loPI   C1A 8487   7.223   4.385  10.048  0.1189 -0.1345 -0.0839
  531loPI   C2A 8488   7.106   4.400   9.574  0.2374  0.0876  0.0152
  531loPI   C3A 8489   7.145   4.330   9.114 -0.2106 -0.3205 -0.0320
  531loPI   C4A 8490   7.193   4.324   8.644  0.1424  0.0528  0.1513
  531loPI   C5A 8491   7.246   4.423   8.228 -0.0275 -0.2668 -0.0162
  531loPI   C6A 8492   7.048   4.142   7.844  0.1200  0.2466 -0.2370
  531loPI   C1B 8493   7.622   4.387   9.651 -0.0828  0.2926  0.4248
  531loPI   C2B 8494   7.746   4.324   9.241 -0.0912 -0.1552  0.2208
  531loPI   C3B 8495   7.679   4.325   8.816 -0.2634  0.2594  0.1923
  531loPI   C4B 8496   7.647   4.147   8.398  0.2661 -0.0459  0.0844
  532loPI    C1 8497   2.137  12.011  10.949  0.0357  0.0520  0.0989
  532loPI    C2 8498   2.349  11.779  11.196 -0.2133 -0.0138  0.2542
  532loPI    C3 8499   2.073  12.028  11.343 -0.1343  0.1880  0.0669
  532loPI   PO4 8500   2.203  11.908  10.726  0.2074 -0.1189  0.1209
  532loPI   GL1 8501   2.143  11.765  10.332  0.0981  0.1466  0.3550
  532loPI   GL2 8502   2.383  11.930  10.185  0.1125 -0.0520  0.3031
  532loPI   C1A 8503   1.796  11.726  10.007 -0.0983 -0.0468 -0.2300
  532loPI   C2A 8504   1.518  11.698   9.667  0.0703  0.0356 -0.0041
  532loPI   C3A 8505   1.281  11.573   9.353 -0.1127  0.1059  0.2826
  532loPI   C4A 8506   1.098  11.531   8.994 -0.0907 -0.0775 -0.1445
  532loPI   C5A 8507   1.137  11.506   8.535  0.0435 -0.0199 -0.2918
  532loPI   C6A 8508   1.010  11.502   8.121 -0.2795  0.0198 -0.0840
  532loPI   C1B 8509   2.259  11.958   9.825  0.1197 -0.1832 -0.0035
  532loPI   C2B 8510   1.969  11.878   9.529 -0.1585 -0.1484 -0.0396
  532loPI   C3B 8511   1.732  11.749   9.225 -0.4781 -0.1844 -0.0039
  532loPI   C4B 8512   1.580  11.683   8.831  0.1189 -0.1200 -0.2249
  533loPI    C1 8513   3.946   8.116  10.882 -0.2782 -0.0320  0.0114
  533loPI    C2 8514   3.919   8.488  11.025  0.0760 -0.0504  0.1375
  533loPI    C3 8515   3.918   8.177  11.276 -0.0432 -0.1257  0.0448
  533loPI   PO4 8516   3.987   8.132  10.639 -0.2488  0.0122  0.1492
  533loPI   GL1 8517   3.990   8.341  10.237  0.1733  0.0220 -0.0691
  533loPI   GL2 8518   4.114   8.628  10.143  0.0332  0.2492  0.2819
  533loPI   C1A 8519   3.827   8.355   9.812 -0.3636 -0.0892  0.0243
  533loPI   C2A 8520   3.847   8.389   9.332  0.2534  0.1424 -0.2621
  533loPI   C3A 8521   3.639   8.303   9.028  0.3169 -0.3793  0.0109
  533loPI   C4A 8522   3.402   8.314   8.654  0.0837  0.2565  0.1975
  533loPI   C5A 8523   3.563   8.479   8.203  0.3948  0.3807  0.0323
  533loPI   C6A 8524   3.814   8.528   7.873 -0.2631  0.4042 -0.1136
  533loPI   C1B 8525   4.251   8.796   9.660  0.2602  0.0672 -0.3016
  533loPI   C2B 8526   4.242   8.757   9.181  0.2912 -0.1547  0.1329
  533loPI   C3B 8527   4.010   8.546   8.827  0.1788  0.1628 -0.1570
  533loPI   C4B 8528   3.867   8.227   8.607  0.0453 -0.1177  0.1420
  534loPI    C1 8529   9.649   9.326  10.524 -0.2431 -0.0916  0.0788
  534loPI    C2 8530   9.683   8.992  10.306 -0.1452 -0.0852  0.0841
  534loPI    C3 8531   9.880   9.027  10.653 -0.1789 -0.0339  0.0982
  534loPI   PO4 8532   9.607   9.488  10.367  0.0996  0.3330 -0.2297
  534loPI   GL1 8533   9.735   9.743  10.032 -0.0699 -0.1204  0.0226
  534loPI   GL2 8534   9.751   9.293   9.901 -0.2187  0.1394  0.0335
  534loPI   C1A 8535   9.813   9.804   9.601  0.0175  0.0353  0.1685
  534loPI   C2A 8536   9.816   9.867   9.215 -0.4424 -0.1389 -0.1770
  534loPI   C3A 8537   9.744   9.792   8.740  0.2445  0.0569 -0.1109
  534loPI   C4A 8538   9.768   9.464   8.566 -0.1413 -0.0169  0.2287
  534loPI   C5A 8539   9.674   9.331   8.124 -0.3740 -0.0274 -0.0522
  534loPI   C6A 8540   9.291   9.289   8.073  0.1082 -0.1011 -0.0565
  534loPI   C1B 8541   9.649   9.323   9.550 -0.2635  0.1569 -0.1869
  534loPI   C2B 8542   9.724   8.980   9.269 -0.0009  0.3827 -0.0163
  534loPI   C3B 8543   9.757   8.605   8.933 -0.0570  0.0255  0.2555
  534loPI   C4B 8544   9.674   8.349   8.554 -0.1816 -0.1355 -0.2014
  535loPI    C1 8545   1.322  10.269  11.140  0.1229 -0.1262  0.1880
  535loPI    C2 8546   1.354  10.663  11.201 -0.0013 -0.1305  0.2839
  535loPI    C3 8547   1.664  10.423  11.280  0.1280 -0.0343  0.0758
  535loPI   PO4 8548   1.202  10.287  10.880  0.0268 -0.2107 -0.0806
  535loPI   GL1 8549   1.216  10.222  10.496 -0.3040  0.0371 -0.1511
  535loPI   GL2 8550   1.307  10.469  10.320  0.1427 -0.0227 -0.0387
  535loPI   C1A 8551   0.786  10.394  10.335 -0.0495  0.0664 -0.0428
  535loPI   C2A 8552   0.569  10.333   9.982 -0.3184  0.1505  0.1750
  535loPI   C3A 8553   0.600  10.362   9.654 -0.0981 -0.1405  0.0109
  535loPI   C4A 8554   0.422  10.422   9.205 -0.0062 -0.0679 -0.0595
  535loPI   C5A 8555   0.352  10.514   8.765 -0.0036 -0.0363 -0.2793
  535loPI   C6A 8556   0.537  10.380   8.377  0.0212  0.2278  0.0560
  535loPI   C1B 8557   1.064  10.225   9.863 -0.2064 -0.2536 -0.2845
  535loPI   C2B 8558   1.042  10.098   9.431 -0.1062  0.0355 -0.3029
  535loPI   C3B 8559   1.052  10.081   9.017  0.0050 -0.2587 -0.0335
  535loPI   C4B 8560   0.954  10.415   8.707  0.1070  0.1633 -0.0597
  536loPI    C1 8561   9.096   5.385  11.078 -0.0402  0.3590  0.1167
  536loPI    C2 8562   9.150   5.705  11.313  0.1032  0.1532  0.3689
  536loPI    C3 8563   9.049   5.352  11.474  0.1477  0.0218  0.1145
  536loPI   PO4 8564   8.911   5.372  10.929  0.0597  0.0025  0.3566
  536loPI   GL1 8565   8.791   5.423  10.478 -0.0050 -0.0403  0.0869
  536loPI   GL2 8566   8.508   5.569  10.423 -0.1216 -0.4745 -0.0598
  536loPI   C1A 8567   9.063   5.613  10.137  0.0421  0.0807 -0.2703
  536loPI   C2A 8568   9.115   5.676   9.644 -0.2537  0.0792 -0.2079
  536loPI   C3A 8569   9.029   5.635   9.267  0.1531  0.1749  0.0632
  536loPI   C4A 8570   9.049   5.563   8.816  0.0412  0.1569  0.0959
  536loPI   C5A 8571   8.969   5.547   8.414 -0.0388 -0.0203  0.2486
  536loPI   C6A 8572   9.179   5.555   8.039 -0.1346  0.1738  0.0126
  536loPI   C1B 8573   8.482   5.593   9.947  0.1385 -0.0880  0.3093
  536loPI   C2B 8574   8.535   5.727   9.534 -0.0315  0.1572  0.2900
  536loPI   C3B 8575   8.559   5.694   9.141  0.1042 -0.1024  0.2905
  536loPI   C4B 8576   8.526   5.623   8.646  0.3613 -0.0190  0.0053
  537loPI    C1 8577  14.382  18.022  10.380 -0.0143  0.1820  0.0572
  537loPI    C2 8578  14.117  18.094  10.671  0.0004 -0.1076  0.1444
  537loPI    C3 8579  14.503  18.035  10.761  0.0542  0.0787  0.0394
  537loPI   PO4 8580  14.489  18.197  10.207 -0.0051  0.0709 -0.1289
  537loPI   GL1 8581  14.568  18.154   9.765 -0.0204 -0.0546  0.3501
  537loPI   GL2 8582  14.197  18.133   9.824 -0.0778 -0.1981  0.1461
  537loPI   C1A 8583  14.715  18.155   9.356 -0.0829 -0.0777 -0.0370
  537loPI   C2A 8584  14.573  18.204   9.018 -0.1650 -0.3583  0.1242
  537loPI   C3A 8585  14.385  18.183   8.615 -0.0180  0.1068  0.2175
  537loPI   C4A 8586  14.395  17.811   8.337 -0.2178  0.1367  0.2282
  537loPI   C5A 8587  14.373  17.550   7.912 -0.0742  0.0958  0.2228
  537loPI   C6A 8588  14.498  17.112   7.690  0.3862 -0.0819 -0.0954
  537loPI   C1B 8589  14.198  18.163   9.442 -0.2291 -0.1784  0.1849
  537loPI   C2B 8590  14.036  18.000   9.003  0.4645  0.0220  0.0468
  537loPI   C3B 8591  13.925  17.933   8.634 -0.0834 -0.2876  0.0282
  537loPI   C4B 8592  13.496  17.644   8.465  0.2594  0.2993  0.0364
  538loPI    C1 8593  16.140   7.757  10.994 -0.1610 -0.0778 -0.1149
  538loPI    C2 8594  16.447   7.513  10.912  0.0882  0.1905  0.0004
  538loPI    C3 8595  16.275   7.504  11.273 -0.0234  0.0599 -0.0550
  538loPI   PO4 8596  16.187   8.001  10.932 -0.0430  0.0601  0.0052
  538loPI   GL1 8597  16.563   8.203  10.713 -0.1129 -0.0719 -0.3700
  538loPI   GL2 8598  16.495   7.899  10.550 -0.0953  0.0374  0.0537
  538loPI   C1A 8599  16.496   8.437  10.222 -0.1890  0.0337  0.1546
  538loPI   C2A 8600  16.348   8.415   9.802  0.1061 -0.3114 -0.2931
  538loPI   C3A 8601  16.426   8.326   9.396  0.1755  0.2151 -0.1103
  538loPI   C4A 8602  16.424   8.535   8.972 -0.1514  0.2808 -0.0411
  538loPI   C5A 8603  16.184   8.359   8.613  0.0233 -0.1470  0.2218
  538loPI   C6A 8604  16.050   8.352   8.166  0.1315  0.0061 -0.3441
  538loPI   C1B 8605  16.510   7.957  10.123  0.0269 -0.2115 -0.2127
  538loPI   C2B 8606  16.531   7.850   9.704 -0.0266  0.0664  0.1390
  538loPI   C3B 8607  16.406   7.765   9.373 -0.1633  0.0963  0.1672
  538loPI   C4B 8608  16.363   7.986   8.975  0.2973 -0.1856  0.0162
  539loPI    C1 8609  12.943  14.783  10.897  0.0638  0.3074  0.0352
  539loPI    C2 8610  13.056  14.437  11.063 -0.0510  0.1917 -0.1242
  539loPI    C3 8611  13.234  14.778  11.171 -0.0901  0.1131  0.1991
  539loPI   PO4 8612  12.942  14.710  10.657  0.0215  0.0123  0.2052
  539loPI   GL1 8613  13.194  14.875  10.347 -0.0970 -0.0316  0.0321
  539loPI   GL2 8614  13.422  14.962  10.463  0.2000 -0.0288  0.3422
  539loPI   C1A 8615  13.216  14.790   9.823 -0.1665 -0.1335  0.0291
  539loPI   C2A 8616  13.155  14.667   9.363 -0.0989 -0.0446 -0.2728
  539loPI   C3A 8617  13.230  14.656   8.881  0.1051  0.1408 -0.0514
  539loPI   C4A 8618  13.475  14.605   8.409 -0.0956  0.1496 -0.1120
  539loPI   C5A 8619  13.693  14.584   8.009  0.4325  0.2860  0.0359
  539loPI   C6A 8620  13.473  14.495   7.582 -0.1113 -0.1724  0.2283
  539loPI   C1B 8621  13.606  14.931  10.076  0.0241  0.0584  0.0947
  539loPI   C2B 8622  13.776  14.967   9.702  0.0778 -0.1789  0.0763
  539loPI   C3B 8623  13.653  14.920   9.357  0.0867 -0.2156 -0.0005
  539loPI   C4B 8624  13.707  14.857   8.937 -0.2033  0.0376  0.1727
  540loPI    C1 8625   5.976  15.227  10.295  0.1682 -0.1111 -0.0874
  540loPI    C2 8626   6.250  15.472  10.453  0.0483  0.0033 -0.0544
  540loPI    C3 8627   5.896  15.427  10.632  0.1007 -0.2619 -0.0130
  540loPI   PO4 8628   5.962  15.315  10.070  0.1859 -0.1929 -0.3495
  540loPI   GL1 8629   6.208  15.439   9.921  0.0521  0.0389 -0.1280
  540loPI   GL2 8630   6.360  15.754  10.074  0.1615  0.2102  0.0181
  540loPI   C1A 8631   6.246  15.296   9.480  0.0779  0.2757  0.2697
  540loPI   C2A 8632   6.174  15.417   8.968  0.2295  0.2748 -0.2318
  540loPI   C3A 8633   6.046  15.528   8.562  0.1011 -0.4110 -0.0374
  540loPI   C4A 8634   5.850  15.818   8.329 -0.0914  0.0571  0.0181
  540loPI   C5A 8635   5.837  15.887   7.913 -0.0794  0.3244  0.0789
  540loPI   C6A 8636   5.980  15.672   7.558 -0.0160  0.1110  0.1266
  540loPI   C1B 8637   6.329  15.822   9.655  0.0071 -0.1810 -0.0942
  540loPI   C2B 8638   6.264  16.005   9.232  0.1050  0.2624  0.2395
  540loPI   C3B 8639   6.289  15.996   8.765 -0.2084 -0.0989 -0.0718
  540loPI   C4B 8640   6.381  15.880   8.381  0.0279  0.1611  0.0622
  541loPI    C1 8641   6.873   2.940  10.815 -0.1597 -0.1712  0.0729
  541loPI    C2 8642   6.566   2.968  11.069 -0.0143 -0.2716  0.2622
  541loPI    C3 8643   6.909   3.157  11.149 -0.0387 -0.1265  0.0316
  541loPI   PO4 8644   6.804   3.068  10.626 -0.1931 -0.2152 -0.0226
  541loPI   GL1 8645   6.860   3.052  10.188 -0.1661 -0.0655  0.0856
  541loPI   GL2 8646   6.760   2.734  10.086  0.1147  0.0434 -0.1579
  541loPI   C1A 8647   6.752   3.160   9.736 -0.0584  0.1361 -0.0346
  541loPI   C2A 8648   6.761   3.101   9.262 -0.0731  0.1644 -0.2271
  541loPI   C3A 8649   6.774   3.029   8.862 -0.2582  0.1889  0.0985
  541loPI   C4A 8650   6.733   2.789   8.551 -0.1129 -0.1020  0.2406
  541loPI   C5A 8651   6.983   2.426   8.448  0.0397 -0.0010  0.1751
  541loPI   C6A 8652   6.908   2.028   8.430  0.2046 -0.1065  0.0678
  541loPI   C1B 8653   6.530   2.675   9.602 -0.0852  0.0091 -0.1515
  541loPI   C2B 8654   6.485   2.666   9.167 -0.0319  0.1861 -0.1298
  541loPI   C3B 8655   6.400   2.663   8.806  0.1930  0.0503 -0.1464
  541loPI   C4B 8656   6.238   2.779   8.391  0.0127 -0.1679  0.4978
  542loPI    C1 8657   7.929  14.481  10.978  0.0805  0.1107  0.1024
  542loPI    C2 8658   7.895  14.819  11.189  0.2369  0.0847  0.1711
  542loPI    C3 8659   7.934  14.468  11.378  0.0115  0.0197  0.1007
  542loPI   PO4 8660   8.069  14.479  10.860  0.0988 -0.2387  0.1370
  542loPI   GL1 8661   8.195  14.433  10.402  0.1481  0.2483  0.0065
  542loPI   GL2 8662   8.258  14.774  10.391  0.2028  0.2118 -0.2529
  542loPI   C1A 8663   8.249  14.415   9.943 -0.1348 -0.1134  0.2188
  542loPI   C2A 8664   8.148  14.502   9.505 -0.0917 -0.0632 -0.0223
  542loPI   C3A 8665   8.043  14.729   9.220  0.2900 -0.2484 -0.0594
  542loPI   C4A 8666   7.836  14.777   8.909  0.3396  0.0269 -0.1768
  542loPI   C5A 8667   7.724  14.771   8.398  0.0149  0.0849 -0.2273
  542loPI   C6A 8668   7.694  14.943   7.983  0.0124  0.0760  0.1766
  542loPI   C1B 8669   8.420  14.830  10.017  0.0138  0.0488 -0.1523
  542loPI   C2B 8670   8.349  14.963   9.599 -0.3846 -0.1082  0.0038
  542loPI   C3B 8671   8.150  15.210   9.385 -0.0592 -0.0666 -0.3731
  542loPI   C4B 8672   7.885  15.269   9.061  0.2942 -0.0413  0.2884
  543loPI    C1 8673  18.224  17.720  10.873  0.0325 -0.0128  0.0799
  543loPI    C2 8674  18.330  17.551  11.221  0.1755  0.1474  0.1157
  543loPI    C3 8675  18.119  17.892  11.219 -0.0884 -0.0132  0.0438
  543loPI   PO4 8676  18.184  17.561  10.714 -0.0926  0.0876  0.1314
  543loPI   GL1 8677  18.216  17.512  10.268  0.2226  0.1464 -0.0957
  543loPI   GL2 8678  18.099  17.687  10.125 -0.0480 -0.4137 -0.0356
  543loPI   C1A 8679  18.360  17.271   9.874  0.0630 -0.1245  0.1733
  543loPI   C2A 8680  18.385  17.250   9.475 -0.0894 -0.0885 -0.1716
  543loPI   C3A 8681  18.279  17.220   9.058 -0.3428 -0.1433  0.0286
  543loPI   C4A 8682  18.414  17.271   8.649  0.0009  0.1600  0.2006
  543loPI   C5A 8683  18.227  17.383   8.282 -0.1247 -0.2507 -0.2127
  543loPI   C6A 8684  18.288  17.394   7.917 -0.0106 -0.0988 -0.0826
  543loPI   C1B 8685  18.032  17.625   9.756 -0.1396  0.1403  0.0547
  543loPI   C2B 8686  18.018  17.596   9.322  0.1922 -0.1387  0.3463
  543loPI   C3B 8687  17.718  17.835   9.061 -0.0717  0.2583  0.2678
  543loPI   C4B 8688  17.621  18.241   9.027 -0.0907  0.1776  0.1114
  544loPI    C1 8689  15.885   6.109  11.366 -0.1335  0.0184  0.0537
  544loPI    C2 8690  15.690   5.906  11.651  0.0660  0.0187  0.1927
  544loPI    C3 8691  15.997   6.143  11.749  0.0196  0.1621 -0.0027
  544loPI   PO4 8692  15.681   6.047  11.145 -0.1043 -0.0175 -0.3328
  544loPI   GL1 8693  15.573   6.048  10.732  0.0080 -0.1673 -0.0500
  544loPI   GL2 8694  15.650   6.294  10.673  0.0072  0.1631 -0.1893
  544loPI   C1A 8695  15.506   5.989  10.323  0.1940 -0.0061 -0.1622
  544loPI   C2A 8696  15.565   5.813   9.879 -0.0343 -0.0584  0.3068
  544loPI   C3A 8697  15.452   5.870   9.441  0.2432  0.2336  0.0684
  544loPI   C4A 8698  15.431   5.880   8.997  0.3719 -0.2120 -0.0121
  544loPI   C5A 8699  15.341   5.962   8.652 -0.0384  0.0559  0.0163
  544loPI   C6A 8700  15.075   5.768   8.325 -0.1617 -0.2841 -0.1929
  544loPI   C1B 8701  15.429   6.479  10.244 -0.3701  0.1717  0.1049
  544loPI   C2B 8702  15.383   6.298   9.748  0.2718 -0.1435 -0.2851
  544loPI   C3B 8703  15.401   6.368   9.273  0.1406 -0.0001 -0.1990
  544loPI   C4B 8704  15.242   6.449   8.882  0.0010 -0.1880  0.0846
  545loPI    C1 8705  12.049   5.901  10.955  0.4048  0.1003 -0.3055
  545loPI    C2 8706  11.925   5.889  11.335 -0.0026 -0.3833 -0.4430
  545loPI    C3 8707  12.176   6.176  11.216 -0.1025 -0.0485  0.1166
  545loPI   PO4 8708  11.863   5.882  10.710 -0.1782  0.0730 -0.1210
  545loPI   GL1 8709  11.534   6.039  10.590 -0.0283 -0.0235  0.1646
  545loPI   GL2 8710  11.224   6.202  10.526 -0.0773  0.2260 -0.2332
  545loPI   C1A 8711  11.419   5.800  10.212  0.1061  0.0759  0.3424
  545loPI   C2A 8712  11.365   5.639   9.727  0.0510  0.0778 -0.2612
  545loPI   C3A 8713  11.105   5.704   9.375 -0.0898  0.1589 -0.2727
  545loPI   C4A 8714  11.149   5.717   8.990  0.1130 -0.1211  0.0541
  545loPI   C5A 8715  11.204   5.647   8.476  0.2113 -0.0167 -0.1837
  545loPI   C6A 8716  11.324   5.787   8.173  0.2601  0.2292 -0.2404
  545loPI   C1B 8717  11.246   6.261  10.117 -0.1666  0.0729  0.2240
  545loPI   C2B 8718  11.383   6.158   9.707  0.0058  0.0542 -0.6223
  545loPI   C3B 8719  11.366   6.143   9.262  0.4783 -0.2146  0.0487
  545loPI   C4B 8720  11.434   6.092   8.754 -0.0596 -0.1435 -0.0539
  546loPI    C1 8721   2.657  12.170  10.506 -0.2504  0.0540  0.1410
  546loPI    C2 8722   2.810  12.320  10.844  0.2153 -0.2067  0.0545
  546loPI    C3 8723   2.671  11.945  10.837  0.1275 -0.1731 -0.0223
  546loPI   PO4 8724   2.856  12.232  10.260  0.1475  0.0734  0.2715
  546loPI   GL1 8725   3.101  12.223   9.936  0.0137 -0.0591 -0.1243
  546loPI   GL2 8726   2.834  11.964   9.826 -0.0329  0.1837 -0.3091
  546loPI   C1A 8727   3.172  12.298   9.541  0.3457 -0.1945 -0.1161
  546loPI   C2A 8728   3.054  12.265   9.152 -0.0655  0.1454  0.2220
  546loPI   C3A 8729   3.165  12.026   8.733 -0.1278  0.0179  0.2477
  546loPI   C4A 8730   2.963  11.824   8.441  0.0791  0.2421  0.2895
  546loPI   C5A 8731   2.809  11.422   8.373  0.0833  0.1389  0.0629
  546loPI   C6A 8732   2.938  11.047   8.462 -0.0283 -0.0486 -0.1040
  546loPI   C1B 8733   2.649  11.629   9.633 -0.0397 -0.4339 -0.0376
  546loPI   C2B 8734   2.584  11.407   9.224 -0.1306 -0.1027  0.0246
  546loPI   C3B 8735   2.876  11.271   8.914 -0.0923  0.1239 -0.4115
  546loPI   C4B 8736   3.243  11.473   8.615 -0.3019  0.1207  0.1213
  547loPI    C1 8737   5.938  13.437  10.878 -0.3056 -0.2048 -0.1004
  547loPI    C2 8738   5.660  13.354  11.153 -0.1989  0.1580  0.1254
  547loPI    C3 8739   5.568  13.584  10.840 -0.2161  0.0718  0.0665
  547loPI   PO4 8740   6.043  13.236  10.772  0.1201  0.0933 -0.0530
  547loPI   GL1 8741   6.127  13.361  10.238 -0.2002  0.2605  0.1269
  547loPI   GL2 8742   6.089  13.020  10.136 -0.1265  0.1371 -0.0541
  547loPI   C1A 8743   6.125  13.400   9.873 -0.2790 -0.0587  0.0493
  547loPI   C2A 8744   5.997  13.358   9.473 -0.1760 -0.2949  0.1970
  547loPI   C3A 8745   5.936  13.282   9.039 -0.1561 -0.0488 -0.0593
  547loPI   C4A 8746   6.023  13.239   8.551  0.2880  0.0912 -0.0815
  547loPI   C5A 8747   6.142  12.960   8.240  0.1439 -0.1723  0.0696
  547loPI   C6A 8748   6.252  13.053   7.851  0.0086 -0.3556 -0.0836
  547loPI   C1B 8749   5.987  12.885   9.703 -0.0126 -0.6692  0.1474
  547loPI   C2B 8750   5.895  12.866   9.363 -0.1864 -0.1989 -0.2816
  547loPI   C3B 8751   5.940  12.728   9.008  0.0770  0.1665  0.0770
  547loPI   C4B 8752   5.763  12.719   8.573  0.0687 -0.1736 -0.0065
  548loPI    C1 8753   5.676   0.992  10.827  0.2070 -0.0495  0.1991
  548loPI    C2 8754   5.625   0.949  11.222 -0.1329 -0.1402  0.1488
  548loPI    C3 8755   5.481   0.674  10.971 -0.2040  0.0802 -0.0560
  548loPI   PO4 8756   5.993   1.015  10.767 -0.1837 -0.1327 -0.0035
  548loPI   GL1 8757   6.113   0.977  10.302  0.0755 -0.2265  0.1106
  548loPI   GL2 8758   6.106   1.246  10.100  0.4282 -0.0810 -0.3763
  548loPI   C1A 8759   5.892   0.843   9.914 -0.2363  0.1527 -0.0248
  548loPI   C2A 8760   5.707   0.794   9.590 -0.2225 -0.0684 -0.3003
  548loPI   C3A 8761   5.753   0.841   9.200 -0.1090  0.2069  0.0504
  548loPI   C4A 8762   5.769   0.799   8.789  0.1488 -0.0060  0.2406
  548loPI   C5A 8763   5.833   0.786   8.390 -0.0568  0.3118  0.3301
  548loPI   C6A 8764   5.925   1.198   8.120  0.1504 -0.1471 -0.1354
  548loPI   C1B 8765   6.330   1.111   9.796 -0.0388  0.0723  0.1360
  548loPI   C2B 8766   6.248   1.036   9.389  0.0036  0.0684  0.0743
  548loPI   C3B 8767   6.191   0.965   8.987  0.1404  0.0111  0.0203
  548loPI   C4B 8768   6.232   1.000   8.531  0.1207 -0.2432 -0.1514
  549loPI    C1 8769  11.098   4.005  10.730  0.0331  0.1786 -0.0420
  549loPI    C2 8770  11.343   4.144  11.014 -0.0244  0.0804  0.0563
  549loPI    C3 8771  10.980   4.007  11.112 -0.0289  0.0079 -0.0591
  549loPI   PO4 8772  11.159   4.048  10.462 -0.1542 -0.0289 -0.0823
  549loPI   GL1 8773  10.859   4.280  10.287  0.1376 -0.1164 -0.1538
  549loPI   GL2 8774  11.180   4.329  10.049  0.0644  0.0583 -0.0037
  549loPI   C1A 8775  10.664   4.292   9.912  0.0707 -0.1819 -0.0722
  549loPI   C2A 8776  10.313   4.379   9.665  0.1249 -0.0405  0.0061
  549loPI   C3A 8777  10.244   4.256   9.307  0.1130 -0.1242  0.2878
  549loPI   C4A 8778  10.274   4.274   8.772  0.4115 -0.1544 -0.0265
  549loPI   C5A 8779  10.150   4.246   8.235 -0.2829  0.0315 -0.2559
  549loPI   C6A 8780  10.497   4.372   7.982 -0.0805  0.2183 -0.3172
  549loPI   C1B 8781  11.363   4.339   9.591 -0.3063 -0.3561  0.3163
  549loPI   C2B 8782  11.468   4.333   9.070 -0.0830  0.1271 -0.1546
  549loPI   C3B 8783  11.528   4.314   8.716 -0.0625 -0.0714 -0.0087
  549loPI   C4B 8784  11.834   4.337   8.383  0.4557 -0.1150 -0.0274
  550loPI    C1 8785   0.123  13.868  11.157  0.2547 -0.0317 -0.0812
  550loPI    C2 8786  -0.167  13.962  11.416  0.1517 -0.0066 -0.2046
  550loPI    C3 8787   0.187  14.148  11.435  0.1571 -0.0304 -0.0597
  550loPI   PO4 8788   0.050  13.950  10.917 -0.1877  0.0914 -0.1045
  550loPI   GL1 8789   0.204  14.007  10.537 -0.3097 -0.2017  0.0389
  550loPI   GL2 8790   0.423  14.272  10.469 -0.2050  0.1501  0.0949
  550loPI   C1A 8791   0.198  13.994  10.042  0.0470 -0.0603  0.3037
  550loPI   C2A 8792   0.255  14.097   9.619  0.0562  0.1953 -0.0629
  550loPI   C3A 8793   0.231  14.094   9.131 -0.1572 -0.1999  0.0745
  550loPI   C4A 8794   0.239  14.048   8.731 -0.3331  0.0520  0.1858
  550loPI   C5A 8795  -0.093  13.973   8.422  0.0551 -0.0821  0.0772
  550loPI   C6A 8796  -0.302  13.966   8.019  0.1082  0.0059 -0.2612
  550loPI   C1B 8797   0.332  14.424  10.127 -0.1326  0.1358  0.1673
  550loPI   C2B 8798   0.337  14.683   9.761 -0.1688  0.2507  0.1072
  550loPI   C3B 8799   0.258  14.671   9.304  0.2223 -0.0322 -0.1458
  550loPI   C4B 8800   0.352  14.587   8.869  0.1676 -0.2837  0.1367
  551loPI    C1 8801  10.597   3.897  10.563 -0.1529 -0.0449 -0.3030
  551loPI    C2 8802  10.266   3.716  10.697 -0.2439  0.2783 -0.0784
  551loPI    C3 8803  10.521   3.884  10.956  0.1256 -0.0093 -0.2456
  551loPI   PO4 8804  10.747   3.776  10.416  0.0596  0.3387 -0.3540
  551loPI   GL1 8805  10.708   3.827  10.080 -0.3599 -0.1149 -0.0413
  551loPI   GL2 8806  10.457   3.702   9.945  0.2160 -0.1273 -0.1138
  551loPI   C1A 8807  11.077   3.923   9.781  0.1326  0.0655 -0.2101
  551loPI   C2A 8808  11.203   3.966   9.344 -0.3700  0.0886 -0.1399
  551loPI   C3A 8809  11.231   3.918   8.892  0.0958 -0.0864  0.0076
  551loPI   C4A 8810  11.243   3.993   8.442  0.2836  0.2445  0.2758
  551loPI   C5A 8811  11.267   3.835   8.028 -0.0570  0.2718  0.1390
  551loPI   C6A 8812  11.179   3.489   7.722  0.2720 -0.0173  0.1611
  551loPI   C1B 8813  10.596   3.942   9.575 -0.1859 -0.4516  0.0688
  551loPI   C2B 8814  10.721   4.234   9.373  0.0989  0.0192 -0.0048
  551loPI   C3B 8815  10.876   4.280   9.052 -0.0076 -0.0363 -0.1748
  551loPI   C4B 8816  10.845   4.277   8.635  0.0831 -0.1957 -0.2682
  552loPI    C1 8817  12.553   1.502  10.240  0.0263 -0.1505  0.0278
  552loPI    C2 8818  12.320   1.566  10.558 -0.0494 -0.0003 -0.0565
  552loPI    C3 8819  12.198   1.680  10.195  0.1336  0.0336 -0.1086
  552loPI   PO4 8820  12.595   1.261  10.268 -0.1589  0.2025 -0.0188
  552loPI   GL1 8821  12.666   0.957   9.914 -0.1876 -0.0294  0.1183
  552loPI   GL2 8822  12.920   1.029   9.908 -0.1791  0.2262 -0.1484
  552loPI   C1A 8823  12.614   0.782   9.505 -0.1510  0.2811 -0.2209
  552loPI   C2A 8824  12.708   0.521   9.113 -0.0780  0.3395 -0.2227
  552loPI   C3A 8825  12.668   0.428   8.736  0.2258  0.1315  0.1952
  552loPI   C4A 8826  12.620   0.353   8.337  0.0899  0.0326  0.0426
  552loPI   C5A 8827  12.444   0.208   7.944 -0.1625  0.0609 -0.1927
  552loPI   C6A 8828  12.156   0.265   7.592 -0.0481 -0.1128 -0.1265
  552loPI   C1B 8829  13.224   1.074   9.630 -0.2214  0.2398  0.2787
  552loPI   C2B 8830  13.304   1.193   9.175 -0.2153  0.1859  0.1457
  552loPI   C3B 8831  13.215   1.207   8.760 -0.0333  0.5918 -0.0170
  552loPI   C4B 8832  12.989   1.527   8.652  0.2459 -0.0560 -0.0590
  553loPI    C1 8833   2.121   1.942  10.966  0.0712  0.3036  0.0412
  553loPI    C2 8834   2.400   1.911  11.252 -0.0367 -0.1399  0.1068
  553loPI    C3 8835   2.027   1.783  11.322 -0.2109  0.2665 -0.0474
  553loPI   PO4 8836   2.334   1.844  10.677  0.0949  0.0917 -0.1894
  553loPI   GL1 8837   2.699   1.859  10.407  0.1040 -0.1530 -0.1525
  553loPI   GL2 8838   2.560   2.095  10.280  0.2400 -0.4428 -0.0584
  553loPI   C1A 8839   2.869   1.809  10.002  0.0734  0.2809 -0.1414
  553loPI   C2A 8840   2.777   1.816   9.515 -0.0223 -0.1716 -0.1673
  553loPI   C3A 8841   2.777   1.848   9.093  0.1801  0.5339 -0.1388
  553loPI   C4A 8842   2.748   2.109   8.735  0.1104  0.3073  0.1184
  553loPI   C5A 8843   2.706   2.450   8.391 -0.0909 -0.1122  0.0235
  553loPI   C6A 8844   2.444   2.635   8.084  0.3695  0.0170 -0.0491
  553loPI   C1B 8845   2.377   2.064   9.816 -0.0032  0.0899 -0.3603
  553loPI   C2B 8846   2.340   2.132   9.401  0.1319  0.1056  0.3304
  553loPI   C3B 8847   2.348   2.328   8.976  0.0661  0.0771  0.2679
  553loPI   C4B 8848   2.371   2.700   8.705  0.1647 -0.0199 -0.2003
  554loPI    C1 8849  10.530   9.854  10.704 -0.1510  0.0858  0.0174
  554loPI    C2 8850  10.658   9.510  10.545 -0.0115  0.1507 -0.0121
  554loPI    C3 8851  10.534   9.521  10.925 -0.2370  0.0197 -0.0800
  554loPI   PO4 8852  10.358   9.960  10.492  0.0801  0.0344 -0.1451
  554loPI   GL1 8853  10.279   9.965  10.097  0.3013 -0.1678  0.0730
  554loPI   GL2 8854  10.020  10.196  10.118  0.0521  0.0345 -0.0517
  554loPI   C1A 8855  10.330   9.946   9.637  0.1628 -0.2499 -0.0353
  554loPI   C2A 8856  10.426  10.010   9.202 -0.0855  0.1186 -0.0688
  554loPI   C3A 8857  10.225  10.079   8.808  0.1055  0.1335 -0.0887
  554loPI   C4A 8858  10.075  10.008   8.332  0.0089  0.0489  0.1701
  554loPI   C5A 8859   9.806   9.798   7.949  0.0692 -0.0559 -0.0678
  554loPI   C6A 8860   9.532   9.672   7.686  0.0904 -0.1397 -0.0020
  554loPI   C1B 8861   9.943  10.298   9.688  0.0345  0.0873  0.0375
  554loPI   C2B 8862   9.978  10.397   9.286 -0.2565  0.4365  0.1346
  554loPI   C3B 8863   9.938  10.450   8.778  0.0873 -0.0343  0.0003
  554loPI   C4B 8864  10.116  10.509   8.362 -0.2436 -0.2867 -0.2548
  555loPI    C1 8865   8.803  12.131  10.832  0.0480  0.1353  0.2511
  555loPI    C2 8866   8.737  12.436  11.082 -0.2683  0.0729  0.2480
  555loPI    C3 8867   8.929  12.110  11.211  0.0203  0.2468  0.2669
  555loPI   PO4 8868   8.458  12.060  10.827 -0.3210  0.1704  0.0266
  555loPI   GL1 8869   8.219  11.952  10.480  0.1193  0.1477 -0.2752
  555loPI   GL2 8870   8.000  11.786  10.540 -0.1720 -0.0908 -0.1310
  555loPI   C1A 8871   8.084  12.089   9.983 -0.0367  0.1596  0.1089
  555loPI   C2A 8872   8.203  12.094   9.569  0.3714  0.1274 -0.0612
  555loPI   C3A 8873   8.078  12.190   9.150  0.0563  0.2040 -0.2632
  555loPI   C4A 8874   7.949  12.184   8.813 -0.1242 -0.1370  0.0206
  555loPI   C5A 8875   7.956  12.341   8.420 -0.0975  0.2436  0.2365
  555loPI   C6A 8876   7.835  12.562   8.036 -0.0186 -0.0270 -0.0542
  555loPI   C1B 8877   7.985  11.629  10.099  0.0170  0.2316 -0.0978
  555loPI   C2B 8878   7.985  11.631   9.679  0.0748  0.1389  0.0928
  555loPI   C3B 8879   7.968  11.672   9.235  0.0749  0.2461  0.0070
  555loPI   C4B 8880   7.930  11.581   8.794 -0.1623  0.1440 -0.0892
  556loPI    C1 8881   4.376   5.710  11.189 -0.3723 -0.1225  0.1501
  556loPI    C2 8882   4.372   5.312  11.223 -0.0018 -0.1446 -0.0168
  556loPI    C3 8883   4.705   5.516  11.309 -0.1599  0.1215 -0.0257
  556loPI   PO4 8884   4.282   5.687  10.898  0.1600  0.1404  0.0209
  556loPI   GL1 8885   4.255   5.450  10.501  0.0820  0.2502  0.0182
  556loPI   GL2 8886   4.484   5.479  10.367  0.1072  0.1252 -0.0702
  556loPI   C1A 8887   4.085   5.628  10.181 -0.2483  0.0691  0.1137
  556loPI   C2A 8888   4.156   5.681   9.740 -0.1616  0.1293  0.2555
  556loPI   C3A 8889   4.083   5.673   9.282  0.0776 -0.1663  0.0403
  556loPI   C4A 8890   4.181   5.592   8.833  0.2639 -0.1561 -0.0183
  556loPI   C5A 8891   3.946   5.628   8.572  0.0741 -0.0660 -0.2550
  556loPI   C6A 8892   3.596   5.695   8.508  0.0898 -0.2726 -0.0764
  556loPI   C1B 8893   4.620   5.455   9.935  0.2650  0.0531  0.1006
  556loPI   C2B 8894   4.557   5.500   9.441  0.1314 -0.1274 -0.0858
  556loPI   C3B 8895   4.645   5.456   9.109 -0.0726  0.0896  0.0416
  556loPI   C4B 8896   4.676   5.595   8.688 -0.0217  0.0137  0.1479
  557loPI    C1 8897  13.000  15.315  10.895  0.0912  0.0426 -0.0302
  557loPI    C2 8898  13.207  15.645  10.987  0.2616 -0.0638 -0.0259
  557loPI    C3 8899  13.182  15.345  11.250 -0.2028  0.0920  0.1195
  557loPI   PO4 8900  13.041  15.267  10.670 -0.0353  0.2076  0.0214
  557loPI   GL1 8901  13.117  15.438  10.232  0.4345 -0.3071  0.1138
  557loPI   GL2 8902  13.389  15.374   9.993  0.0615  0.2213  0.1860
  557loPI   C1A 8903  12.877  15.259   9.853 -0.0201 -0.2003  0.1048
  557loPI   C2A 8904  12.856  15.031   9.504  0.2649 -0.2087  0.2194
  557loPI   C3A 8905  12.845  15.029   9.080  0.0768 -0.0430 -0.1545
  557loPI   C4A 8906  12.875  14.956   8.625  0.1881 -0.3591  0.0193
  557loPI   C5A 8907  12.970  14.699   8.387  0.0212 -0.0735  0.1917
  557loPI   C6A 8908  13.171  14.636   8.008  0.0540 -0.2175 -0.3581
  557loPI   C1B 8909  13.286  15.283   9.537 -0.0311  0.0498 -0.0286
  557loPI   C2B 8910  13.294  15.210   9.104 -0.3298 -0.0874  0.1767
  557loPI   C3B 8911  13.354  15.067   8.637  0.0811 -0.2148  0.0531
  557loPI   C4B 8912  13.220  15.118   8.264 -0.0009 -0.0366  0.1757
  558loPI    C1 8913  13.167   6.414  11.227 -0.3953  0.0600  0.5018
  558loPI    C2 8914  13.265   6.800  11.262 -0.1002  0.0361  0.0317
  558loPI    C3 8915  13.420   6.531  11.514 -0.0106  0.1747  0.1267
  558loPI   PO4 8916  13.277   6.426  10.916  0.2665 -0.0411  0.2231
  558loPI   GL1 8917  13.035   6.616  10.696 -0.0870 -0.1046 -0.2603
  558loPI   GL2 8918  12.791   6.638  10.532  0.2591 -0.1379  0.2004
  558loPI   C1A 8919  13.157   6.367  10.309  0.2047 -0.1652 -0.2203
  558loPI   C2A 8920  13.114   6.385   9.884 -0.0786 -0.0345  0.0696
  558loPI   C3A 8921  13.090   6.368   9.497  0.1475  0.0219 -0.0487
  558loPI   C4A 8922  13.017   6.423   9.067  0.1289  0.2043 -0.3367
  558loPI   C5A 8923  12.764   6.671   8.793 -0.0200  0.0702 -0.3085
  558loPI   C6A 8924  12.925   7.049   8.502  0.0024 -0.0666  0.3679
  558loPI   C1B 8925  12.726   6.606  10.105  0.3493 -0.1055 -0.1799
  558loPI   C2B 8926  12.656   6.572   9.708  0.2441 -0.3396 -0.0847
  558loPI   C3B 8927  12.595   6.491   9.339  0.0966  0.1467 -0.0431
  558loPI   C4B 8928  12.440   6.318   8.927  0.1294 -0.1035  0.1769
  559loPI    C1 8929  11.094  12.703  10.777 -0.0282 -0.0389 -0.2009
  559loPI    C2 8930  11.172  12.952  11.080 -0.0590 -0.0189 -0.2095
  559loPI    C3 8931  11.226  12.559  11.126  0.2250  0.0107 -0.2744
  559loPI   PO4 8932  10.921  12.755  10.621  0.1437  0.2400 -0.1799
  559loPI   GL1 8933  10.804  12.868  10.283 -0.0844 -0.0538  0.0327
  559loPI   GL2 8934  10.595  12.769  10.073 -0.1624  0.3747 -0.1062
  559loPI   C1A 8935  11.008  13.019   9.948  0.2494  0.0622 -0.1788
  559loPI   C2A 8936  11.196  12.976   9.575  0.1399 -0.2038 -0.0759
  559loPI   C3A 8937  10.974  13.023   9.233  0.3236  0.1752 -0.1354
  559loPI   C4A 8938  11.000  12.996   8.774 -0.1634 -0.0271 -0.0048
  559loPI   C5A 8939  11.099  13.171   8.310 -0.2023  0.1142 -0.0004
  559loPI   C6A 8940  11.336  13.080   7.897  0.1620  0.3079  0.1449
  559loPI   C1B 8941  10.614  12.850   9.620 -0.2222 -0.0353  0.0680
  559loPI   C2B 8942  10.529  12.853   9.158 -0.1179 -0.2141 -0.0382
  559loPI   C3B 8943  10.491  12.816   8.677  0.0799  0.0242  0.0324
  559loPI   C4B 8944  10.539  12.970   8.174 -0.1147  0.2867  0.1403
  560loPI    C1 8945   6.450   0.424  11.154  0.0008 -0.0633  0.0699
  560loPI    C2 8946   6.807   0.599  11.207  0.1223 -0.3080  0.0723
  560loPI    C3 8947   6.680   0.320  11.464  0.0708 -0.4522 -0.1069
  560loPI   PO4 8948   6.471   0.242  10.938  0.3349 -0.0257  0.0536
  560loPI   GL1 8949   6.318   0.285  10.571  0.0695  0.0812  0.1105
  560loPI   GL2 8950   6.638   0.366  10.401 -0.0571  0.2691  0.1350
  560loPI   C1A 8951   6.057   0.443  10.243 -0.1718  0.0081 -0.2573
  560loPI   C2A 8952   6.265   0.484   9.869 -0.0457 -0.1432  0.0753
  560loPI   C3A 8953   6.170   0.477   9.428  0.0008  0.4270  0.0886
  560loPI   C4A 8954   6.120   0.459   9.088 -0.1950  0.0329  0.1800
  560loPI   C5A 8955   6.206   0.470   8.699  0.0226 -0.3690 -0.0743
  560loPI   C6A 8956   6.273   0.565   8.259 -0.0397  0.1315 -0.0977
  560loPI   C1B 8957   6.789   0.201  10.027 -0.0956 -0.0836  0.1176
  560loPI   C2B 8958   6.554   0.178   9.601 -0.1315  0.0338 -0.0016
  560loPI   C3B 8959   6.545   0.152   9.141  0.0314  0.0634 -0.2674
  560loPI   C4B 8960   6.622   0.204   8.708  0.2112  0.2768  0.5038
  561loPI    C1 8961   9.887  13.976  11.009 -0.1670 -0.2563  0.0905
  561loPI    C2 8962  10.061  14.149  11.324 -0.0875 -0.2080  0.0206
  561loPI    C3 8963   9.826  13.830  11.376 -0.3818  0.0279  0.1711
  561loPI   PO4 8964  10.032  13.896  10.850 -0.0236 -0.0688  0.4287
  561loPI   GL1 8965  10.091  13.836  10.365 -0.2331 -0.0167 -0.0923
  561loPI   GL2 8966  10.439  13.703  10.300  0.0996 -0.2716  0.1479
  561loPI   C1A 8967   9.963  14.046   9.947  0.3223 -0.2038  0.1574
  561loPI   C2A 8968  10.005  14.070   9.559  0.1184 -0.1135 -0.2818
  561loPI   C3A 8969   9.968  14.089   9.103  0.5173 -0.1066 -0.1945
  561loPI   C4A 8970   9.849  14.151   8.617 -0.0138 -0.2665  0.2901
  561loPI   C5A 8971   9.712  13.801   8.289  0.0473 -0.0004  0.3263
  561loPI   C6A 8972   9.685  13.497   7.941  0.0552  0.0515  0.1334
  561loPI   C1B 8973  10.376  13.701   9.799 -0.0392  0.0496 -0.2211
  561loPI   C2B 8974  10.272  13.687   9.376 -0.0454  0.1063 -0.3945
  561loPI   C3B 8975  10.292  13.703   8.991 -0.0602  0.2510 -0.0953
  561loPI   C4B 8976  10.243  13.841   8.546  0.0741 -0.0855  0.0506
  562loPI    C1 8977   8.408  10.118  10.835  0.1820 -0.1074  0.0067
  562loPI    C2 8978   8.686   9.964  11.077  0.2448  0.0927  0.0644
  562loPI    C3 8979   8.318  10.034  11.215  0.2205  0.0099  0.0423
  562loPI   PO4 8980   8.458  10.260  10.665  0.1482 -0.3171 -0.3379
  562loPI   GL1 8981   8.630  10.287  10.351  0.1678 -0.2452  0.3472
  562loPI   GL2 8982   8.916  10.325  10.384  0.0513 -0.0645  0.0183
  562loPI   C1A 8983   8.612  10.453   9.968 -0.1116 -0.0108 -0.0401
  562loPI   C2A 8984   8.563  10.370   9.544 -0.1460 -0.2449  0.2425
  562loPI   C3A 8985   8.586  10.355   9.099 -0.0995  0.1676  0.0795
  562loPI   C4A 8986   8.529  10.277   8.685  0.0752 -0.4210  0.0214
  562loPI   C5A 8987   8.537  10.012   8.347 -0.2376 -0.0230 -0.0230
  562loPI   C6A 8988   8.397   9.867   8.014 -0.1638  0.1834  0.2614
  562loPI   C1B 8989   9.105  10.517   9.938 -0.3986  0.3438 -0.3525
  562loPI   C2B 8990   9.096  10.526   9.531 -0.1042  0.2611 -0.1136
  562loPI   C3B 8991   9.136  10.555   9.118  0.0499 -0.3248 -0.1084
  562loPI   C4B 8992   9.076  10.478   8.683  0.1206  0.2318  0.0120
  563loPI    C1 8993   8.563   5.951  10.678  0.0234 -0.0345 -0.1142
  563loPI    C2 8994   8.942   6.002  10.561  0.1055  0.0658  0.1875
  563loPI    C3 8995   8.862   5.880  10.934 -0.1619  0.1399  0.1561
  563loPI   PO4 8996   8.392   6.076  10.566 -0.0902  0.2243  0.1697
  563loPI   GL1 8997   8.020   6.110  10.340  0.1815  0.0196 -0.3105
  563loPI   GL2 8998   8.181   5.898  10.185  0.0934  0.0057 -0.1960
  563loPI   C1A 8999   7.812   6.200  10.013  0.2780  0.1593 -0.0067
  563loPI   C2A 9000   7.798   6.143   9.586 -0.1544 -0.1764 -0.2101
  563loPI   C3A 9001   7.825   6.171   9.115 -0.0196 -0.0570 -0.1298
  563loPI   C4A 9002   7.773   6.028   8.709  0.2770  0.0312 -0.2134
  563loPI   C5A 9003   7.774   6.061   8.192  0.0127  0.0192 -0.0094
  563loPI   C6A 9004   7.947   5.898   7.930 -0.1500 -0.1627  0.1847
  563loPI   C1B 9005   8.060   5.745   9.780 -0.0962  0.0106  0.1179
  563loPI   C2B 9006   7.999   5.708   9.322 -0.0858  0.1033  0.1639
  563loPI   C3B 9007   8.020   5.536   8.913  0.1231  0.0255 -0.0553
  563loPI   C4B 9008   7.963   5.557   8.520 -0.0849 -0.2464 -0.2920
  564loPI    C1 9009  17.138   6.456  11.191 -0.0389  0.1806 -0.1257
  564loPI    C2 9010  16.896   6.755  11.301 -0.0559  0.1236 -0.0057
  564loPI    C3 9011  16.868   6.399  11.481  0.0006  0.0654 -0.1110
  564loPI   PO4 9012  17.021   6.447  10.817 -0.0700  0.0177  0.2558
  564loPI   GL1 9013  17.104   6.576  10.446  0.0748 -0.0886  0.1070
  564loPI   GL2 9014  16.806   6.738  10.317 -0.0093  0.1695 -0.0628
  564loPI   C1A 9015  17.120   6.637   9.932  0.0050  0.0004 -0.0782
  564loPI   C2A 9016  17.098   6.621   9.377 -0.2114  0.1106  0.1505
  564loPI   C3A 9017  17.117   6.686   9.062 -0.3070 -0.0514 -0.0769
  564loPI   C4A 9018  17.002   6.915   8.709 -0.0002 -0.0424  0.0184
  564loPI   C5A 9019  17.204   7.117   8.462 -0.1217  0.1854 -0.0447
  564loPI   C6A 9020  17.638   7.399   8.304  0.2387 -0.3712  0.1617
  564loPI   C1B 9021  16.628   6.852   9.927 -0.2556  0.1176 -0.0854
  564loPI   C2B 9022  16.643   6.780   9.524  0.1515  0.0343 -0.0054
  564loPI   C3B 9023  16.601   6.895   9.105 -0.0632  0.2162 -0.0804
  564loPI   C4B 9024  16.516   7.058   8.657  0.0381 -0.1571  0.0688
  565loPI    C1 9025  13.154   3.706  10.769 -0.1472 -0.3549  0.1050
  565loPI    C2 9026  13.546   3.672  10.700 -0.0542  0.2421  0.2868
  565loPI    C3 9027  13.370   3.436  10.970  0.1555 -0.0949  0.1357
  565loPI   PO4 9028  12.964   3.649  10.488 -0.0558  0.0753 -0.1215
  565loPI   GL1 9029  13.088   3.443  10.076 -0.1431  0.0830 -0.1401
  565loPI   GL2 9030  13.285   3.273   9.920 -0.4198 -0.1325 -0.3244
  565loPI   C1A 9031  12.870   3.664   9.768 -0.0613  0.3673  0.0669
  565loPI   C2A 9032  12.740   3.847   9.423  0.4096 -0.1672  0.1826
  565loPI   C3A 9033  12.768   3.873   8.975  0.0595  0.1812 -0.1339
  565loPI   C4A 9034  12.714   3.891   8.529 -0.0780 -0.0640  0.0774
  565loPI   C5A 9035  12.473   4.026   8.188  0.0498 -0.1712  0.1936
  565loPI   C6A 9036  12.574   4.080   7.824  0.1962 -0.0561  0.0246
  565loPI   C1B 9037  13.180   3.302   9.550 -0.3093 -0.0892 -0.2247
  565loPI   C2B 9038  13.019   3.422   9.176  0.0003 -0.0406 -0.2607
  565loPI   C3B 9039  13.083   3.562   8.780  0.5687 -0.0749  0.0830
  565loPI   C4B 9040  13.053   3.588   8.393 -0.3488  0.1763  0.1267
  566loPI    C1 9041  16.089   1.234  10.941  0.2427 -0.0407  0.0111
  566loPI    C2 9042  16.472   1.314  11.026  0.1666  0.1473  0.1833
  566loPI    C3 9043  16.211   1.247  11.322  0.0010  0.3266  0.0799
  566loPI   PO4 9044  16.096   1.094  10.675  0.0034  0.1546  0.1461
  566loPI   GL1 9045  16.129   1.199  10.250  0.0000 -0.3024 -0.0083
  566loPI   GL2 9046  16.445   0.982  10.259 -0.1157 -0.1519  0.0736
  566loPI   C1A 9047  16.046   1.097   9.803  0.0419 -0.0996 -0.0327
  566loPI   C2A 9048  15.869   1.112   9.450  0.3708  0.0651  0.1981
  566loPI   C3A 9049  15.666   1.064   9.018  0.0361 -0.3218 -0.0487
  566loPI   C4A 9050  15.627   1.265   8.575 -0.2955 -0.3491 -0.2013
  566loPI   C5A 9051  15.716   1.494   8.215  0.0863  0.0831 -0.0842
  566loPI   C6A 9052  15.737   1.881   7.940 -0.1488 -0.1300 -0.1583
  566loPI   C1B 9053  16.493   1.028   9.785  0.0326  0.2709 -0.0273
  566loPI   C2B 9054  16.505   0.828   9.394 -0.3659 -0.1206  0.1868
  566loPI   C3B 9055  16.350   0.841   8.975  0.1006  0.0851  0.0957
  566loPI   C4B 9056  16.122   1.012   8.729  0.0378  0.2073  0.0128
  567loPI    C1 9057   9.583  15.927  10.912 -0.1116 -0.3025  0.0501
  567loPI    C2 9058   9.843  15.972  11.212 -0.0087 -0.3241 -0.0349
  567loPI    C3 9059   9.455  16.052  11.270  0.0209 -0.2630  0.0843
  567loPI   PO4 9060   9.740  15.988  10.713 -0.2606 -0.3778 -0.0260
  567loPI   GL1 9061   9.938  15.684  10.409  0.0355 -0.2182  0.0116
  567loPI   GL2 9062   9.983  15.990  10.212 -0.0456 -0.0671  0.1245
  567loPI   C1A 9063   9.741  15.446  10.144  0.3085  0.0495  0.0143
  567loPI   C2A 9064   9.753  15.517   9.709  0.1918 -0.2206 -0.1630
  567loPI   C3A 9065   9.701  15.469   9.233  0.0791 -0.0696 -0.1730
  567loPI   C4A 9066   9.730  15.408   8.828 -0.0921  0.0666 -0.0941
  567loPI   C5A 9067   9.721  15.483   8.346  0.1148 -0.0201 -0.4131
  567loPI   C6A 9068   9.658  15.513   7.954  0.2158  0.0252  0.0395
  567loPI   C1B 9069   9.838  16.016   9.766 -0.0816 -0.2836 -0.0137
  567loPI   C2B 9070   9.782  15.918   9.371 -0.0585  0.1754  0.0852
  567loPI   C3B 9071   9.828  15.941   9.012  0.2896 -0.3868  0.0507
  567loPI   C4B 9072   9.816  15.992   8.601  0.0997 -0.0051  0.0790
  568loPI    C1 9073  17.434  10.141  11.422  0.1533  0.0314 -0.0204
  568loPI    C2 9074  17.468   9.747  11.361 -0.4237 -0.0124 -0.1170
  568loPI    C3 9075  17.296   9.884  11.696  0.0543  0.1718  0.0632
  568loPI   PO4 9076  17.344  10.250  11.118  0.0464 -0.3575 -0.2026
  568loPI   GL1 9077  17.109  10.224  10.850 -0.0657 -0.1833 -0.4299
  568loPI   GL2 9078  16.830  10.163  10.785 -0.2218 -0.1209 -0.0842
  568loPI   C1A 9079  17.225  10.060  10.456  0.0767 -0.1889  0.1020
  568loPI   C2A 9080  17.164  10.064  10.065  0.1003  0.1807 -0.0103
  568loPI   C3A 9081  17.071  10.030   9.691  0.2931 -0.2571  0.0071
  568loPI   C4A 9082  17.076   9.950   9.283 -0.1281 -0.0206 -0.3696
  568loPI   C5A 9083  16.963  10.021   8.937  0.3428  0.1563  0.0730
  568loPI   C6A 9084  17.020   9.925   8.587 -0.0776 -0.0745  0.1703
  568loPI   C1B 9085  16.708  10.185  10.331 -0.1221 -0.2381 -0.2710
  568loPI   C2B 9086  16.642  10.237   9.893  0.0504 -0.0509  0.0719
  568loPI   C3B 9087  16.625  10.329   9.644  0.1027 -0.2210  0.0620
  568loPI   C4B 9088  16.754  10.324   9.262  0.0275  0.2277  0.2120
  569loPI    C1 9089   1.565  12.870  10.920  0.0827 -0.0647  0.0715
  569loPI    C2 9090   1.382  12.705  11.235 -0.4061  0.1279 -0.1019
  569loPI    C3 9091   1.730  12.896  11.283 -0.2920 -0.1582  0.2535
  569loPI   PO4 9092   1.347  13.093  10.819 -0.1337  0.0749 -0.0689
  569loPI   GL1 9093   1.155  13.077  10.396  0.3523 -0.1154  0.1888
  569loPI   GL2 9094   1.451  12.970  10.364  0.1613  0.2002 -0.1128
  569loPI   C1A 9095   1.005  13.352  10.007 -0.0609 -0.2583  0.1196
  569loPI   C2A 9096   0.995  13.297   9.575  0.0499  0.1494 -0.0110
  569loPI   C3A 9097   1.007  13.387   9.178  0.0753  0.0818 -0.0530
  569loPI   C4A 9098   1.025  13.335   8.762  0.2355  0.2857  0.1216
  569loPI   C5A 9099   1.345  13.248   8.431 -0.1036  0.1722 -0.2458
  569loPI   C6A 9100   1.539  12.881   8.211  0.2348 -0.0051  0.0322
  569loPI   C1B 9101   1.448  13.056   9.903 -0.0916  0.0977 -0.3224
  569loPI   C2B 9102   1.420  13.030   9.508  0.0784 -0.0282 -0.2232
  569loPI   C3B 9103   1.442  13.142   9.029  0.0538  0.1205 -0.0179
  569loPI   C4B 9104   1.722  13.177   8.765  0.0615 -0.1033  0.0906
  570loPI    C1 9105  10.857  16.889  10.809  0.0643  0.0312  0.2153
  570loPI    C2 9106  10.790  17.172  10.534  0.0540 -0.1070  0.0739
  570loPI    C3 9107  10.818  17.271  10.921 -0.0816  0.0690  0.0399
  570loPI   PO4 9108  10.976  16.747  10.664  0.1350  0.1852 -0.0080
  570loPI   GL1 9109  10.802  16.690  10.176  0.0084 -0.1690 -0.0450
  570loPI   GL2 9110  11.017  16.519  10.211  0.1299  0.0488  0.4276
  570loPI   C1A 9111  10.562  16.648   9.894 -0.0150 -0.2383 -0.0407
  570loPI   C2A 9112  10.404  16.604   9.518  0.0291  0.0938  0.0847
  570loPI   C3A 9113  10.463  16.510   9.070  0.0663  0.1553 -0.0339
  570loPI   C4A 9114  10.396  16.599   8.637 -0.0834  0.1947  0.0792
  570loPI   C5A 9115  10.513  16.514   8.249  0.0716  0.0643  0.0892
  570loPI   C6A 9116  10.601  16.073   8.073 -0.1568  0.0685  0.2054
  570loPI   C1B 9117  10.982  16.396   9.785  0.0679  0.2921 -0.0572
  570loPI   C2B 9118  10.772  16.329   9.423  0.1638  0.1991 -0.2659
  570loPI   C3B 9119  10.832  16.196   8.972  0.3523 -0.1041 -0.1111
  570loPI   C4B 9120  11.209  16.292   8.820 -0.0565  0.1495 -0.1118
  571loPI    C1 9121   3.306   3.117  10.946 -0.2805 -0.0175 -0.0166
  571loPI    C2 9122   3.488   3.244  11.279  0.3229 -0.2043 -0.2622
  571loPI    C3 9123   3.275   3.500  11.057  0.1655 -0.0113  0.1036
  571loPI   PO4 9124   3.439   3.091  10.824  0.0490  0.0813 -0.0751
  571loPI   GL1 9125   3.414   3.053  10.388  0.1755  0.1435  0.3281
  571loPI   GL2 9126   3.128   3.237  10.243 -0.0849 -0.1865 -0.2823
  571loPI   C1A 9127   3.412   2.914   9.967 -0.2182  0.3384 -0.0833
  571loPI   C2A 9128   3.626   2.857   9.608  0.0179  0.1292 -0.0970
  571loPI   C3A 9129   3.583   2.836   9.219 -0.0105  0.0861  0.2755
  571loPI   C4A 9130   3.634   2.811   8.825  0.0054 -0.1979 -0.1607
  571loPI   C5A 9131   3.896   2.862   8.411  0.0582 -0.1094  0.0407
  571loPI   C6A 9132   4.325   2.875   8.299  0.0114 -0.0280 -0.0463
  571loPI   C1B 9133   3.050   3.460   9.895 -0.0082 -0.0447 -0.0178
  571loPI   C2B 9134   2.686   3.443   9.562 -0.1238 -0.1437  0.1349
  571loPI   C3B 9135   2.575   3.646   9.225 -0.3155  0.0705 -0.1668
  571loPI   C4B 9136   2.424   3.832   8.748 -0.1400 -0.3072 -0.1514
  572loPI    C1 9137  16.392   5.696  11.031  0.1210 -0.1632 -0.0495
  572loPI    C2 9138  16.088   5.675  11.290  0.1065  0.1648 -0.0355
  572loPI    C3 9139  16.420   5.462  11.354 -0.0208 -0.0009  0.0822
  572loPI   PO4 9140  16.308   5.648  10.816 -0.0675  0.1919 -0.1652
  572loPI   GL1 9141  16.431   5.628  10.417 -0.0610 -0.0251 -0.1276
  572loPI   GL2 9142  16.188   5.416  10.391 -0.0166  0.0432  0.1116
  572loPI   C1A 9143  16.457   5.519   9.934 -0.0791  0.1793 -0.2287
  572loPI   C2A 9144  16.414   5.455   9.432 -0.2795  0.1677  0.2971
  572loPI   C3A 9145  16.421   5.542   8.960  0.0900 -0.1234 -0.1122
  572loPI   C4A 9146  16.384   5.621   8.429 -0.1472  0.1200 -0.2559
  572loPI   C5A 9147  16.523   5.281   8.171  0.0638  0.1995 -0.1807
  572loPI   C6A 9148  16.727   5.000   7.973 -0.2068  0.1800 -0.3953
  572loPI   C1B 9149  16.015   5.503  10.051  0.0197  0.1876 -0.4884
  572loPI   C2B 9150  15.980   5.747   9.655  0.0052  0.1805  0.2901
  572loPI   C3B 9151  15.874   5.717   9.182  0.1177 -0.0809 -0.0822
  572loPI   C4B 9152  15.859   5.747   8.731  0.0301  0.0303 -0.2095
  573loPI    C1 9153   5.882  10.065  10.976  0.0532 -0.3360  0.1003
  573loPI    C2 9154   6.249  10.065  10.817  0.0652 -0.1101  0.1241
  573loPI    C3 9155   6.180  10.260  11.159 -0.1164  0.0017  0.0254
  573loPI   PO4 9156   5.778  10.012  10.802 -0.1641 -0.1007  0.2304
  573loPI   GL1 9157   5.672   9.814  10.497 -0.2213  0.1012 -0.0626
  573loPI   GL2 9158   5.649   9.612  10.454 -0.1077  0.0777  0.0282
  573loPI   C1A 9159   5.293   9.813  10.052 -0.4067 -0.0338 -0.2405
  573loPI   C2A 9160   5.270  10.000   9.596  0.0385 -0.1425 -0.1488
  573loPI   C3A 9161   5.112   9.967   9.184  0.0178 -0.4639  0.0033
  573loPI   C4A 9162   5.236   9.985   8.723  0.0271 -0.0557 -0.3724
  573loPI   C5A 9163   5.320   9.916   8.324 -0.2074 -0.0651 -0.2470
  573loPI   C6A 9164   5.617   9.551   8.046 -0.1179  0.1652 -0.2285
  573loPI   C1B 9165   5.703   9.534  10.020  0.0113  0.0725 -0.2189
  573loPI   C2B 9166   5.753   9.504   9.530 -0.0569  0.0023  0.0305
  573loPI   C3B 9167   5.892   9.513   9.136  0.1650  0.3420  0.0089
  573loPI   C4B 9168   6.018   9.490   8.739  0.1954  0.0163 -0.0743
  574loPI    C1 9169  13.968   6.886  11.060 -0.1791 -0.1955 -0.0211
  574loPI    C2 9170  14.128   6.792  11.415  0.0924  0.0859 -0.0645
  574loPI    C3 9171  13.952   7.148  11.363 -0.2472 -0.0867 -0.1181
  574loPI   PO4 9172  13.686   6.673  11.037 -0.0894 -0.0827  0.1686
  574loPI   GL1 9173  13.560   6.599  10.554  0.1599  0.1023  0.0696
  574loPI   GL2 9174  13.838   6.597  10.521  0.0143  0.0157  0.1774
  574loPI   C1A 9175  13.491   6.718  10.205 -0.1144 -0.1692 -0.1554
  574loPI   C2A 9176  13.522   6.658   9.753  0.1020 -0.1842 -0.0053
  574loPI   C3A 9177  13.441   6.730   9.344 -0.0473  0.2630  0.0341
  574loPI   C4A 9178  13.486   6.833   8.929  0.1031 -0.2735 -0.0999
  574loPI   C5A 9179  13.282   6.699   8.507  0.0391  0.0691  0.0751
  574loPI   C6A 9180  13.227   6.455   8.204  0.0622 -0.2435  0.0853
  574loPI   C1B 9181  13.958   6.605  10.090 -0.1571  0.3939 -0.2011
  574loPI   C2B 9182  13.981   6.425   9.761 -0.0552  0.0877 -0.2469
  574loPI   C3B 9183  13.825   6.476   9.355  0.0423 -0.2154  0.1714
  574loPI   C4B 9184  13.925   6.551   8.892 -0.1132 -0.0642 -0.1021
  575loPI    C1 9185   8.974  14.390  10.989 -0.1230  0.0643  0.1777
  575loPI    C2 9186   8.780  14.631  10.735 -0.2303 -0.0200  0.1790
  575loPI    C3 9187   8.831  14.741  11.116 -0.2094  0.0357  0.1601
  575loPI   PO4 9188   9.064  14.160  10.744 -0.1705  0.0105  0.0649
  575loPI   GL1 9189   8.895  13.960  10.449 -0.2997  0.0593  0.0537
  575loPI   GL2 9190   9.175  13.731  10.454 -0.1839 -0.1976  0.0846
  575loPI   C1A 9191   9.092  14.151  10.167  0.2868 -0.0436  0.2506
  575loPI   C2A 9192   9.145  14.240   9.794  0.1108 -0.0520  0.1429
  575loPI   C3A 9193   9.107  14.266   9.350 -0.4035  0.2418  0.3114
  575loPI   C4A 9194   8.965  14.283   8.940  0.1391  0.2065  0.0390
  575loPI   C5A 9195   8.810  14.402   8.596  0.1878 -0.0257 -0.0127
  575loPI   C6A 9196   8.522  14.447   8.225  0.0930  0.0306  0.0295
  575loPI   C1B 9197   9.119  13.687  10.021  0.1759  0.2152  0.3073
  575loPI   C2B 9198   9.051  13.727   9.586 -0.3669  0.1021 -0.0469
  575loPI   C3B 9199   8.929  13.799   9.162 -0.0221  0.0466  0.1815
  575loPI   C4B 9200   8.869  13.861   8.726 -0.1386 -0.2004  0.0505
  576loPI    C1 9201   4.349   4.565  10.991 -0.0317  0.1633  0.2972
  576loPI    C2 9202   3.993   4.558  11.172 -0.1769  0.1244  0.0157
  576loPI    C3 9203   4.258   4.843  11.263 -0.1883  0.0200  0.3938
  576loPI   PO4 9204   4.281   4.519  10.687 -0.1738 -0.0705  0.0607
  576loPI   GL1 9205   4.289   4.714  10.364  0.1528 -0.1085 -0.2979
  576loPI   GL2 9206   3.983   4.572  10.235 -0.1255 -0.3591  0.0790
  576loPI   C1A 9207   4.647   4.945  10.144  0.3101  0.1525  0.4486
  576loPI   C2A 9208   4.810   4.993   9.710  0.1523 -0.2378 -0.1409
  576loPI   C3A 9209   4.900   5.089   9.317 -0.1063 -0.3869 -0.1620
  576loPI   C4A 9210   4.856   5.109   8.871  0.1139  0.1158  0.0444
  576loPI   C5A 9211   4.892   5.088   8.448 -0.3742 -0.1947  0.2975
  576loPI   C6A 9212   4.967   5.280   8.099  0.2455 -0.1132  0.2635
  576loPI   C1B 9213   3.978   4.711   9.802  0.1842 -0.0817  0.2493
  576loPI   C2B 9214   4.014   4.662   9.377  0.2424  0.0887  0.2660
  576loPI   C3B 9215   3.952   4.778   9.012  0.1072 -0.1729  0.0058
  576loPI   C4B 9216   4.087   4.631   8.687  0.1712 -0.0893  0.1688
  577loPI    C1 9217  10.908  17.707  10.724  0.3681 -0.0085 -0.0414
  577loPI    C2 9218  10.998  17.983  11.000 -0.1472  0.0212  0.1072
  577loPI    C3 9219  10.660  17.770  11.032 -0.2026  0.0035 -0.4860
  577loPI   PO4 9220  11.145  17.667  10.624  0.0258  0.2243  0.0430
  577loPI   GL1 9221  11.192  17.339  10.230  0.1668 -0.1705 -0.0927
  577loPI   GL2 9222  11.243  16.974  10.339  0.0462 -0.0935 -0.2943
  577loPI   C1A 9223  11.024  17.432   9.847 -0.1176  0.3188  0.0574
  577loPI   C2A 9224  10.701  17.554   9.529  0.0099  0.0401  0.1040
  577loPI   C3A 9225  10.643  17.632   9.091 -0.3289  0.0625  0.1227
  577loPI   C4A 9226  10.599  17.534   8.641  0.0545 -0.0935 -0.0387
  577loPI   C5A 9227  10.493  17.556   8.110  0.3110  0.0745 -0.0830
  577loPI   C6A 9228  10.563  17.569   7.634 -0.0689  0.0457 -0.0512
  577loPI   C1B 9229  11.179  16.923   9.926  0.0574  0.2849 -0.0511
  577loPI   C2B 9230  11.050  16.801   9.541 -0.1155  0.3976 -0.0582
  577loPI   C3B 9231  10.890  16.799   9.152 -0.0409  0.3427  0.0756
  577loPI   C4B 9232  10.866  16.728   8.672  0.1854  0.0903 -0.0472
  578loPI    C1 9233  13.403   1.646  10.496 -0.2397  0.0139  0.1025
  578loPI    C2 9234  13.782   1.608  10.619 -0.1859 -0.1539 -0.1091
  578loPI    C3 9235  13.484   1.614  10.886 -0.0497 -0.2190  0.0462
  578loPI   PO4 9236  13.340   1.459  10.356  0.0830 -0.2655 -0.1409
  578loPI   GL1 9237  13.641   1.328   9.969 -0.1281  0.0496  0.3121
  578loPI   GL2 9238  13.837   1.512  10.157 -0.0631  0.1982 -0.1762
  578loPI   C1A 9239  13.682   1.288   9.591 -0.0246  0.1216  0.1578
  578loPI   C2A 9240  13.934   1.221   9.203 -0.0558  0.0993 -0.0937
  578loPI   C3A 9241  13.850   1.304   8.752 -0.1609  0.3713 -0.3036
  578loPI   C4A 9242  13.857   1.390   8.315 -0.0071 -0.1517 -0.2132
  578loPI   C5A 9243  14.188   1.760   8.125 -0.0034 -0.0182  0.1679
  578loPI   C6A 9244  14.218   2.162   7.994  0.0584 -0.0233  0.2966
  578loPI   C1B 9245  14.049   1.716   9.857 -0.0127 -0.1114  0.2316
  578loPI   C2B 9246  14.094   1.618   9.454 -0.4719  0.1304 -0.2534
  578loPI   C3B 9247  13.717   1.626   9.233  0.0933  0.1602  0.0224
  578loPI   C4B 9248  13.426   1.688   8.891 -0.0627 -0.2378 -0.1322
  579loPI    C1 9249   7.038  10.658  11.090  0.1077 -0.2523  0.2076
  579loPI    C2 9250   6.807  10.837  11.363  0.0118 -0.0122 -0.0270
  579loPI    C3 9251   6.670  10.519  11.162 -0.0167 -0.0287  0.0183
  579loPI   PO4 9252   7.065  10.849  10.903  0.1749  0.0079 -0.0122
  579loPI   GL1 9253   6.848  11.033  10.507 -0.1892  0.3437  0.1119
  579loPI   GL2 9254   6.742  10.722  10.248  0.1234 -0.0207 -0.1495
  579loPI   C1A 9255   6.722  11.226  10.145  0.1549 -0.0317  0.0338
  579loPI   C2A 9256   7.045  11.345   9.791 -0.0061  0.1923 -0.1723
  579loPI   C3A 9257   7.028  11.291   9.325 -0.1203  0.2216  0.0327
  579loPI   C4A 9258   6.990  11.285   8.887 -0.1568  0.0941  0.5508
  579loPI   C5A 9259   7.135  10.963   8.499  0.3126  0.1766  0.0298
  579loPI   C6A 9260   7.229  10.620   8.177  0.0796 -0.2063 -0.0135
  579loPI   C1B 9261   6.951  10.803   9.870 -0.2423 -0.0497 -0.1588
  579loPI   C2B 9262   6.866  10.706   9.445  0.3712 -0.2008 -0.4538
  579loPI   C3B 9263   6.889  10.778   9.032  0.0697 -0.0889  0.1161
  579loPI   C4B 9264   6.715  10.730   8.578  0.0593 -0.2228  0.3325
  580loPI    C1 9265   1.775   2.581  10.890  0.0441 -0.0205  0.0539
  580loPI    C2 9266   1.739   2.228  11.074  0.2836 -0.0236  0.0979
  580loPI    C3 9267   1.692   2.567  11.281 -0.3012 -0.0240 -0.0161
  580loPI   PO4 9268   1.634   2.530  10.660  0.1723 -0.0666 -0.0363
  580loPI   GL1 9269   1.633   2.542  10.230 -0.2164 -0.1491  0.1607
  580loPI   GL2 9270   1.662   2.279  10.220 -0.0361 -0.1545  0.1019
  580loPI   C1A 9271   1.402   2.462   9.790 -0.0021  0.0174 -0.0742
  580loPI   C2A 9272   1.416   2.488   9.321  0.1924 -0.0816  0.2251
  580loPI   C3A 9273   1.392   2.470   8.869  0.0022  0.0792  0.0508
  580loPI   C4A 9274   1.379   2.595   8.511 -0.2921 -0.0783  0.1814
  580loPI   C5A 9275   1.418   2.691   8.019  0.0231  0.0585  0.0110
  580loPI   C6A 9276   1.490   3.114   7.840  0.3178 -0.1839  0.0674
  580loPI   C1B 9277   2.010   2.377   9.874 -0.0080 -0.0088 -0.0216
  580loPI   C2B 9278   2.167   2.593   9.639  0.0292  0.1326 -0.1815
  580loPI   C3B 9279   2.329   2.724   9.294 -0.1512  0.1293 -0.2154
  580loPI   C4B 9280   2.710   2.978   9.192  0.2319 -0.0775 -0.2370
  581loPI    C1 9281  18.273   7.283  11.189  0.0932 -0.1072  0.0591
  581loPI    C2 9282  18.191   7.429  11.553  0.0557  0.1248 -0.0402
  581loPI    C3 9283  18.091   7.052  11.461 -0.0497  0.1059  0.1474
  581loPI   PO4 9284  18.198   7.437  10.991 -0.1088  0.0731 -0.0071
  581loPI   GL1 9285  18.351   7.350  10.553 -0.0138 -0.0815 -0.5583
  581loPI   GL2 9286  17.999   7.229  10.457  0.0770  0.1193 -0.2891
  581loPI   C1A 9287  18.273   7.637  10.178  0.0306 -0.0935  0.2230
  581loPI   C2A 9288  18.238   7.693   9.733 -0.1356 -0.2286  0.1060
  581loPI   C3A 9289  18.282   7.666   9.311  0.0629  0.1816  0.2781
  581loPI   C4A 9290  18.365   7.715   8.883  0.0054  0.0069 -0.2542
  581loPI   C5A 9291  18.630   7.905   8.502  0.0136 -0.0181 -0.1861
  581loPI   C6A 9292  18.755   8.114   8.170  0.3243 -0.2417  0.0686
  581loPI   C1B 9293  17.905   7.225   9.981  0.0695 -0.0396  0.0557
  581loPI   C2B 9294  17.882   7.365   9.534  0.0531 -0.2111  0.4266
  581loPI   C3B 9295  17.942   7.354   9.079  0.1318  0.1055  0.3248
  581loPI   C4B 9296  17.914   7.511   8.708  0.0075 -0.2404 -0.1533
  582loPI    C1 9297  10.130   8.312  11.184  0.0897 -0.1748 -0.0137
  582loPI    C2 9298  10.530   8.323  11.182  0.0855  0.0277  0.0153
  582loPI    C3 9299  10.328   8.444  11.506 -0.0026  0.0844 -0.0602
  582loPI   PO4 9300  10.072   8.497  10.811 -0.1732 -0.2585 -0.1608
  582loPI   GL1 9301  10.132   8.619  10.419 -0.0321 -0.2310  0.0276
  582loPI   GL2 9302  10.062   8.240  10.320 -0.4039 -0.0469 -0.0861
  582loPI   C1A 9303  10.431   8.487  10.107 -0.0644  0.0701  0.1208
  582loPI   C2A 9304  10.372   8.565   9.604  0.1056  0.2549  0.3743
  582loPI   C3A 9305  10.572   8.586   9.152 -0.2752 -0.0952  0.0662
  582loPI   C4A 9306  10.817   8.687   8.738 -0.0560  0.1507 -0.1333
  582loPI   C5A 9307  11.206   8.843   8.615 -0.2522  0.0236 -0.0020
  582loPI   C6A 9308  11.321   9.215   8.484 -0.0133 -0.6033 -0.0695
  582loPI   C1B 9309  10.188   8.060   9.994 -0.1067  0.0205 -0.3681
  582loPI   C2B 9310  10.386   7.837   9.716 -0.1442  0.2114  0.0202
  582loPI   C3B 9311  10.468   7.852   9.279 -0.1814  0.2143 -0.0232
  582loPI   C4B 9312  10.282   7.869   8.926 -0.2366  0.2583 -0.3440
  583loPI    C1 9313  10.457  18.108  10.624  0.0996  0.0520 -0.0541
  583loPI    C2 9314  10.071  18.002  10.627  0.0811  0.1167  0.2578
  583loPI    C3 9315  10.256  18.091  10.970  0.3996 -0.0022  0.1210
  583loPI   PO4 9316  10.490  18.112  10.394 -0.1382 -0.0286 -0.0800
  583loPI   GL1 9317  10.304  17.820  10.168  0.3623  0.0982  0.1007
  583loPI   GL2 9318  10.458  17.967   9.915  0.0656  0.0488 -0.1324
  583loPI   C1A 9319  10.230  17.515   9.868  0.3155 -0.1959 -0.2383
  583loPI   C2A 9320  10.178  17.533   9.394 -0.3193  0.0005  0.0400
  583loPI   C3A 9321  10.071  17.471   9.016  0.0109 -0.1309  0.2732
  583loPI   C4A 9322  10.129  17.457   8.627  0.2221  0.0383 -0.1341
  583loPI   C5A 9323  10.018  17.472   8.180  0.1158  0.0343  0.1288
  583loPI   C6A 9324  10.154  17.338   7.772  0.2973  0.0241 -0.0186
  583loPI   C1B 9325  10.349  17.951   9.578 -0.1972 -0.1425 -0.1473
  583loPI   C2B 9326  10.155  18.007   9.178 -0.0596 -0.0262 -0.1669
  583loPI   C3B 9327  10.211  17.932   8.803 -0.1159 -0.1744 -0.0807
  583loPI   C4B 9328  10.294  17.950   8.375 -0.0381 -0.1776  0.0832
  584loPI    C1 9329  17.392   6.857  11.359 -0.1952 -0.0333  0.0780
  584loPI    C2 9330  17.604   7.088  11.607  0.1349 -0.1087 -0.1266
  584loPI    C3 9331  17.242   7.206  11.484  0.0124 -0.0206  0.2998
  584loPI   PO4 9332  17.585   6.801  11.199 -0.2253 -0.1031  0.0914
  584loPI   GL1 9333  17.521   6.531  10.784  0.1489 -0.3469  0.2144
  584loPI   GL2 9334  17.683   6.788  10.567 -0.0323 -0.3320 -0.0342
  584loPI   C1A 9335  17.548   6.391  10.352 -0.4671 -0.1057 -0.0459
  584loPI   C2A 9336  17.622   6.487   9.885 -0.0679 -0.0121  0.2674
  584loPI   C3A 9337  17.762   6.476   9.458  0.1279  0.0306  0.1340
  584loPI   C4A 9338  17.577   6.475   9.110  0.0686 -0.2137  0.2842
  584loPI   C5A 9339  17.752   6.452   8.631 -0.0405  0.1365 -0.2779
  584loPI   C6A 9340  18.196   6.471   8.662 -0.0256 -0.1993  0.0573
  584loPI   C1B 9341  17.545   6.949  10.266 -0.0555  0.0923  0.0255
  584loPI   C2B 9342  17.486   7.029   9.847  0.1212 -0.1267  0.1091
  584loPI   C3B 9343  17.481   6.961   9.376 -0.0883  0.1320  0.1178
  584loPI   C4B 9344  17.517   6.998   8.962 -0.0546 -0.0427  0.0486
  585loPI    C1 9345  11.934   2.735  10.978  0.4295  0.0815 -0.0202
  585loPI    C2 9346  11.986   2.374  11.142 -0.0265 -0.0206 -0.0882
  585loPI    C3 9347  11.799   2.662  11.347 -0.0968  0.0253 -0.2158
  585loPI   PO4 9348  11.837   2.672  10.732 -0.0789 -0.1479 -0.0074
  585loPI   GL1 9349  12.120   2.589  10.361  0.1566 -0.2727  0.1227
  585loPI   GL2 9350  11.841   2.759  10.261 -0.1999  0.1466  0.0537
  585loPI   C1A 9351  12.313   2.352   9.963 -0.3491  0.0617  0.4852
  585loPI   C2A 9352  12.236   2.246   9.539  0.0553 -0.3711  0.1990
  585loPI   C3A 9353  11.995   2.139   9.279  0.0817  0.1584  0.1729
  585loPI   C4A 9354  11.746   2.274   8.889  0.1360  0.0701 -0.1689
  585loPI   C5A 9355  11.566   2.029   8.631 -0.3287  0.0244  0.0109
  585loPI   C6A 9356  11.183   1.837   8.414  0.0675  0.1367  0.1293
  585loPI   C1B 9357  11.828   2.581   9.937 -0.1439 -0.2996  0.2437
  585loPI   C2B 9358  11.634   2.668   9.637  0.0984 -0.0884  0.0197
  585loPI   C3B 9359  11.879   2.662   9.253 -0.3075  0.1580  0.0043
  585loPI   C4B 9360  11.883   2.760   8.810 -0.0945  0.1519  0.0708
  586loPI    C1 9361  13.742   2.187  10.972  0.0101 -0.1707 -0.0763
  586loPI    C2 9362  13.807   1.859  11.192 -0.1685 -0.2544 -0.1463
  586loPI    C3 9363  13.954   2.212  11.311 -0.2576 -0.2994  0.1046
  586loPI   PO4 9364  13.749   2.073  10.712 -0.2253 -0.2713  0.0779
  586loPI   GL1 9365  13.703   2.261  10.411  0.0226  0.1298 -0.0313
  586loPI   GL2 9366  13.593   2.012  10.165  0.3712 -0.5077  0.0797
  586loPI   C1A 9367  13.978   2.197   9.914 -0.0518  0.0213 -0.2691
  586loPI   C2A 9368  13.860   2.161   9.486 -0.0881  0.3071 -0.3224
  586loPI   C3A 9369  13.873   2.101   9.019 -0.4303  0.0659 -0.2509
  586loPI   C4A 9370  13.579   2.214   8.741 -0.1974 -0.0896  0.1288
  586loPI   C5A 9371  13.389   2.285   8.308 -0.2960  0.0317  0.4816
  586loPI   C6A 9372  13.190   2.202   7.863  0.1275 -0.2036 -0.1311
  586loPI   C1B 9373  13.473   1.810   9.784  0.0749  0.2708  0.1422
  586loPI   C2B 9374  13.233   1.641   9.450  0.1296  0.0070  0.2712
  586loPI   C3B 9375  12.959   1.597   9.208 -0.3982 -0.0620  0.0575
  586loPI   C4B 9376  12.633   1.565   9.028  0.2654 -0.6172 -0.0391
  587loPI    C1 9377  13.616   0.268  10.649  0.0385 -0.0389  0.1426
  587loPI    C2 9378  13.403   0.320  10.984  0.1443 -0.1673  0.2309
  587loPI    C3 9379  13.736   0.533  10.924  0.0104  0.0105  0.1073
  587loPI   PO4 9380  13.596  -0.013  10.629 -0.0087 -0.1560  0.0799
  587loPI   GL1 9381  13.472  -0.221  10.178  0.1440 -0.0946 -0.1265
  587loPI   GL2 9382  13.163  -0.424  10.100 -0.1028 -0.1360  0.0138
  587loPI   C1A 9383  13.722  -0.201   9.829 -0.2517  0.1376  0.0578
  587loPI   C2A 9384  13.669  -0.255   9.375  0.1323  0.1278 -0.1671
  587loPI   C3A 9385  13.513  -0.297   8.921  0.3487 -0.0531 -0.2810
  587loPI   C4A 9386  13.556  -0.060   8.510  0.0086 -0.0006 -0.1566
  587loPI   C5A 9387  14.020   0.058   8.283 -0.2195  0.2414 -0.0980
  587loPI   C6A 9388  14.112   0.169   7.900  0.0892 -0.4527 -0.4152
  587loPI   C1B 9389  13.203  -0.354   9.645 -0.1801  0.0208 -0.2663
  587loPI   C2B 9390  13.137  -0.227   9.322 -0.1923  0.2060  0.1518
  587loPI   C3B 9391  13.043  -0.490   8.933  0.2089 -0.0196  0.0700
  587loPI   C4B 9392  12.891  -0.463   8.571  0.0012 -0.0538  0.2656
  588loPI    C1 9393   6.105   4.662  10.835  0.2078 -0.0212  0.1446
  588loPI    C2 9394   5.797   4.416  10.906  0.1791  0.0355  0.2186
  588loPI    C3 9395   5.840   4.751  11.121  0.2886  0.0316  0.2036
  588loPI   PO4 9396   6.079   4.723  10.639  0.0598 -0.1592 -0.0890
  588loPI   GL1 9397   6.190   4.837  10.238  0.0786 -0.2348 -0.2650
  588loPI   GL2 9398   6.169   4.476  10.050 -0.2303 -0.0985  0.1097
  588loPI   C1A 9399   6.338   4.896   9.816  0.0683 -0.2880 -0.1765
  588loPI   C2A 9400   6.491   4.890   9.485  0.0923 -0.0770 -0.0713
  588loPI   C3A 9401   6.464   4.735   9.030  0.2044  0.0695  0.1124
  588loPI   C4A 9402   6.332   4.854   8.575 -0.1095 -0.1373 -0.2255
  588loPI   C5A 9403   6.482   4.779   8.145  0.1347  0.0506  0.0146
  588loPI   C6A 9404   6.875   4.663   7.972 -0.2047 -0.0136  0.1451
  588loPI   C1B 9405   6.097   4.477   9.654 -0.2857  0.0291  0.3787
  588loPI   C2B 9406   6.097   4.382   9.219  0.0003 -0.0445 -0.2113
  588loPI   C3B 9407   6.101   4.438   8.703 -0.1191 -0.0497  0.0307
  588loPI   C4B 9408   6.185   4.340   8.281  0.0656  0.1269  0.1962
  589loPI    C1 9409   1.083  13.412  11.031 -0.0005 -0.2114  0.0422
  589loPI    C2 9410   1.453  13.563  11.048 -0.0838 -0.0098  0.0916
  589loPI    C3 9411   1.355  13.250  11.276  0.0475 -0.0445  0.1012
  589loPI   PO4 9412   0.923  13.480  10.803  0.0415 -0.1316 -0.1262
  589loPI   GL1 9413   0.806  13.573  10.454 -0.0991 -0.2846  0.3688
  589loPI   GL2 9414   1.083  13.778  10.426 -0.1473  0.2604 -0.0895
  589loPI   C1A 9415   0.576  13.667  10.185 -0.4757 -0.0399 -0.0505
  589loPI   C2A 9416   0.580  13.640   9.791 -0.2765  0.0704  0.2103
  589loPI   C3A 9417   0.588  13.800   9.379 -0.1705 -0.1107  0.0837
  589loPI   C4A 9418   0.728  13.734   8.960  0.1250  0.1028  0.0213
  589loPI   C5A 9419   0.635  13.802   8.606 -0.2149 -0.3569 -0.1967
  589loPI   C6A 9420   0.495  13.977   8.246 -0.1117 -0.2754  0.0900
  589loPI   C1B 9421   1.111  13.854   9.879 -0.1129 -0.2080  0.0216
  589loPI   C2B 9422   1.022  14.011   9.481 -0.1207  0.0406 -0.0921
  589loPI   C3B 9423   1.141  13.931   9.086  0.1121  0.0597 -0.1397
  589loPI   C4B 9424   1.093  13.967   8.686 -0.1627  0.1740 -0.1004
  590loPI    C1 9425  15.603  14.368  11.104  0.3238 -0.3026 -0.0971
  590loPI    C2 9426  15.946  14.438  11.297  0.1036  0.0277  0.1857
  590loPI    C3 9427  15.597  14.531  11.469 -0.1142  0.0265 -0.2426
  590loPI   PO4 9428  15.800  14.349  10.782 -0.0947 -0.1034  0.1907
  590loPI   GL1 9429  15.839  14.289  10.380 -0.0942 -0.0875  0.0183
  590loPI   GL2 9430  16.165  14.445  10.416 -0.1110 -0.0827  0.1166
  590loPI   C1A 9431  15.751  14.181   9.943  0.2243 -0.0383  0.0245
  590loPI   C2A 9432  15.831  14.148   9.531 -0.0322  0.0265 -0.0032
  590loPI   C3A 9433  15.796  14.162   9.056 -0.2873 -0.1324  0.1439
  590loPI   C4A 9434  15.791  14.056   8.663  0.3287 -0.1156  0.0041
  590loPI   C5A 9435  15.947  13.892   8.333 -0.2678  0.1684  0.0047
  590loPI   C6A 9436  16.009  13.860   7.864  0.0009  0.0256  0.0162
  590loPI   C1B 9437  15.934  14.632  10.029  0.0229 -0.0110  0.2691
  590loPI   C2B 9438  15.886  14.710   9.631 -0.3503 -0.1174  0.2960
  590loPI   C3B 9439  15.872  14.635   9.237 -0.1839 -0.2304 -0.2350
  590loPI   C4B 9440  15.864  14.572   8.801  0.2450  0.0258  0.0617
  591loPI    C1 9441  12.013   4.942  10.940  0.2182  0.0314  0.0867
  591loPI    C2 9442  12.335   4.936  11.178  0.0379 -0.2228  0.3319
  591loPI    C3 9443  12.047   4.662  11.224 -0.0511 -0.2123 -0.1150
  591loPI   PO4 9444  12.115   5.019  10.718  0.2349  0.0557  0.0221
  591loPI   GL1 9445  12.049   5.168  10.270  0.0360  0.0457  0.3551
  591loPI   GL2 9446  12.001   4.922   9.987  0.0413  0.0161  0.1093
  591loPI   C1A 9447  12.361   5.323   9.836 -0.1717 -0.0200 -0.4290
  591loPI   C2A 9448  12.486   5.187   9.346 -0.2324 -0.0986 -0.0103
  591loPI   C3A 9449  12.354   5.297   8.930 -0.0717  0.0496  0.3121
  591loPI   C4A 9450  12.377   5.380   8.581  0.0779 -0.1784 -0.1657
  591loPI   C5A 9451  12.369   5.575   8.158 -0.0720  0.1437 -0.0828
  591loPI   C6A 9452  12.695   5.530   7.835 -0.4697  0.1181  0.0675
  591loPI   C1B 9453  12.133   4.838   9.490  0.1412  0.2226 -0.1744
  591loPI   C2B 9454  12.209   4.835   9.016 -0.1269 -0.0533  0.2219
  591loPI   C3B 9455  12.267   4.848   8.570 -0.1357  0.1417 -0.3546
  591loPI   C4B 9456  12.566   5.076   8.174 -0.2990  0.1110 -0.1398
  592loPI    C1 9457  14.729  14.069  10.854 -0.2050 -0.1611 -0.0512
  592loPI    C2 9458  14.647  14.038  11.244 -0.1073 -0.2343 -0.0360
  592loPI    C3 9459  14.672  13.709  11.018 -0.0839 -0.1973 -0.0873
  592loPI   PO4 9460  14.972  14.247  10.842 -0.2554  0.1629  0.1128
  592loPI   GL1 9461  15.112  14.259  10.406 -0.0516  0.0127 -0.2273
  592loPI   GL2 9462  14.987  14.500  10.294 -0.0891  0.1927 -0.0636
  592loPI   C1A 9463  15.304  13.995  10.074  0.0565 -0.1582  0.0356
  592loPI   C2A 9464  15.322  14.008   9.641  0.1904  0.0308 -0.0900
  592loPI   C3A 9465  15.268  14.033   9.247  0.0038  0.0575 -0.1018
  592loPI   C4A 9466  15.324  13.976   8.881 -0.0531 -0.1158  0.0393
  592loPI   C5A 9467  15.412  13.880   8.478  0.2012 -0.2661  0.0174
  592loPI   C6A 9468  15.542  13.751   8.075  0.1145 -0.0440  0.2811
  592loPI   C1B 9469  14.964  14.383   9.859  0.3479 -0.1205  0.1090
  592loPI   C2B 9470  14.931  14.388   9.427 -0.2047  0.0041  0.0021
  592loPI   C3B 9471  14.963  14.373   8.963  0.2601 -0.1497  0.0809
  592loPI   C4B 9472  14.921  14.205   8.515  0.0389  0.0009  0.0568
  593loPI    C1 9473   9.435  13.043  11.158  0.1628  0.0469 -0.2831
  593loPI    C2 9474   9.553  13.252  11.478  0.0096  0.0340 -0.2172
  593loPI    C3 9475   9.814  13.021  11.281  0.0972  0.0176 -0.0831
  593loPI   PO4 9476   9.243  13.272  11.062 -0.0320  0.0801 -0.1125
  593loPI   GL1 9477   9.228  13.213  10.618  0.0757  0.0745 -0.0260
  593loPI   GL2 9478   9.378  12.874  10.458  0.1327 -0.5738  0.1211
  593loPI   C1A 9479   9.028  13.181  10.253  0.0443  0.0417  0.0482
  593loPI   C2A 9480   8.986  13.192   9.802 -0.0401  0.0433 -0.1366
  593loPI   C3A 9481   8.828  13.249   9.439 -0.0227  0.1201  0.0580
  593loPI   C4A 9482   8.874  13.291   8.997 -0.0211 -0.1569 -0.0028
  593loPI   C5A 9483   8.787  13.371   8.472 -0.1551 -0.2294 -0.1325
  593loPI   C6A 9484   8.861  13.425   7.991  0.4239 -0.0568 -0.1600
  593loPI   C1B 9485   9.354  12.869   9.958  0.1788  0.0465 -0.1590
  593loPI   C2B 9486   9.343  12.891   9.524 -0.2053  0.1277  0.0470
  593loPI   C3B 9487   9.225  12.943   9.199 -0.0829 -0.1381  0.4879
  593loPI   C4B 9488   9.114  13.032   8.722 -0.2790 -0.0834  0.2017
  594loPI    C1 9489   6.085   3.699  10.919  0.3061  0.0476  0.0292
  594loPI    C2 9490   5.954   3.989  11.162  0.1397  0.0718 -0.0877
  594loPI    C3 9491   5.953   3.608  11.285  0.2483  0.1069  0.0232
  594loPI   PO4 9492   6.005   3.798  10.642 -0.1675  0.2860  0.0478
  594loPI   GL1 9493   5.964   3.888  10.128  0.0513  0.1317  0.3788
  594loPI   GL2 9494   6.039   3.548  10.211  0.0751  0.3219  0.3262
  594loPI   C1A 9495   5.827   4.061   9.753 -0.1293  0.0799 -0.0668
  594loPI   C2A 9496   5.708   4.070   9.310 -0.0835 -0.2244 -0.3159
  594loPI   C3A 9497   5.823   4.050   8.906  0.0479  0.1776 -0.1442
  594loPI   C4A 9498   5.776   4.053   8.557 -0.0466  0.0067  0.0179
  594loPI   C5A 9499   5.683   4.105   8.044  0.1937 -0.1178  0.0149
  594loPI   C6A 9500   5.489   4.082   7.570 -0.2466  0.2827  0.0374
  594loPI   C1B 9501   6.101   3.571   9.788  0.1850 -0.0589  0.1864
  594loPI   C2B 9502   5.999   3.563   9.344  0.1833 -0.2935  0.2028
  594loPI   C3B 9503   5.977   3.520   8.872 -0.1536 -0.0399 -0.2843
  594loPI   C4B 9504   5.793   3.455   8.480  0.1959  0.0201 -0.0204
  595loPI    C1 9505   8.772  15.527  10.941 -0.0543 -0.0084 -0.2674
  595loPI    C2 9506   8.894  15.689  11.286 -0.0671  0.0120 -0.2725
  595loPI    C3 9507   8.873  15.292  11.249 -0.2119  0.0122 -0.1991
  595loPI   PO4 9508   8.705  15.742  10.722  0.0249  0.1274 -0.1838
  595loPI   GL1 9509   8.908  16.043  10.422 -0.1007 -0.0737  0.1201
  595loPI   GL2 9510   9.177  16.184  10.360  0.1380 -0.1468 -0.2950
  595loPI   C1A 9511   8.967  16.107   9.930  0.3769 -0.1066 -0.0576
  595loPI   C2A 9512   8.960  16.125   9.549 -0.1761  0.4249 -0.0769
  595loPI   C3A 9513   8.985  16.114   9.084  0.0215  0.0152 -0.1011
  595loPI   C4A 9514   8.887  15.643   8.890 -0.4758  0.2884  0.0242
  595loPI   C5A 9515   8.821  15.166   8.922  0.0841 -0.1127  0.3401
  595loPI   C6A 9516   9.115  14.787   9.073  0.0748 -0.1028  0.1660
  595loPI   C1B 9517   9.090  16.548  10.149 -0.1021 -0.1610 -0.0788
  595loPI   C2B 9518   9.068  16.663   9.807 -0.5258 -0.1361  0.0497
  595loPI   C3B 9519   9.039  16.607   9.351  0.0081 -0.1078 -0.1455
  595loPI   C4B 9520   9.048  16.594   8.954  0.1039 -0.3735  0.2996
  596loPI    C1 9521  11.531   9.536  10.773 -0.0975  0.0675  0.1930
  596loPI    C2 9522  11.917   9.431  10.748 -0.1094  0.0574  0.0449
  596loPI    C3 9523  11.799   9.697  11.023 -0.0392 -0.1321  0.2610
  596loPI   PO4 9524  11.465   9.616  10.612 -0.1863  0.1893 -0.3663
  596loPI   GL1 9525  11.412   9.477  10.188 -0.3935 -0.3815 -0.0067
  596loPI   GL2 9526  11.147   9.626  10.187 -0.2117 -0.1688 -0.0470
  596loPI   C1A 9527  11.735   9.719   9.841 -0.1008  0.0025 -0.1104
  596loPI   C2A 9528  11.795  10.004   9.422 -0.0628 -0.0173 -0.2003
  596loPI   C3A 9529  11.692   9.900   9.095 -0.3627 -0.2610  0.1501
  596loPI   C4A 9530  11.636   9.534   8.860 -0.3266  0.0441 -0.0799
  596loPI   C5A 9531  11.456   9.183   9.086 -0.1418 -0.1552 -0.1502
  596loPI   C6A 9532  11.466   9.048   9.501 -0.0062  0.2151  0.0228
  596loPI   C1B 9533  11.247   9.745   9.700 -0.1006  0.0860  0.0050
  596loPI   C2B 9534  11.505   9.540   9.439  0.1461  0.2644  0.0513
  596loPI   C3B 9535  11.904   9.466   9.305  0.0125  0.1359 -0.0566
  596loPI   C4B 9536  12.138   9.644   9.014 -0.2988 -0.0749 -0.1357
  597loPI    C1 9537   3.644  12.614  10.823 -0.4640 -0.1446 -0.2219
  597loPI    C2 9538   3.636  12.258  11.006 -0.1713 -0.0201  0.0440
  597loPI    C3 9539   3.309  12.488  11.001 -0.2812 -0.1730  0.1105
  597loPI   PO4 9540   3.773  12.480  10.520  0.1171  0.0568 -0.0577
  597loPI   GL1 9541   3.556  12.405  10.111 -0.1016 -0.1096  0.1376
  597loPI   GL2 9542   3.514  12.777  10.154 -0.1220 -0.0177 -0.0236
  597loPI   C1A 9543   3.644  12.442   9.718  0.0851 -0.0652  0.0289
  597loPI   C2A 9544   3.869  12.647   9.502 -0.2069 -0.0843  0.1233
  597loPI   C3A 9545   4.132  12.661   9.157 -0.2886 -0.1035 -0.0108
  597loPI   C4A 9546   3.961  12.675   8.707  0.1175  0.0997  0.0724
  597loPI   C5A 9547   4.005  12.701   8.263 -0.0720 -0.1477  0.4674
  597loPI   C6A 9548   4.375  12.824   7.978 -0.3098 -0.0217  0.0174
  597loPI   C1B 9549   3.656  13.012   9.858  0.1695 -0.0640 -0.2765
  597loPI   C2B 9550   3.590  13.051   9.426  0.0032 -0.1004 -0.4766
  597loPI   C3B 9551   3.636  12.884   9.086  0.2254  0.0321 -0.1818
  597loPI   C4B 9552   3.498  12.465   9.112  0.2497 -0.0278 -0.0280
  598loPI    C1 9553   7.551  13.328  11.143  0.0998 -0.0156  0.0285
  598loPI    C2 9554   7.218  13.106  11.149  0.1209 -0.0485 -0.0094
  598loPI    C3 9555   7.340  13.292  11.481  0.1609 -0.1794  0.0499
  598loPI   PO4 9556   7.670  13.152  10.949 -0.0095  0.0140 -0.1021
  598loPI   GL1 9557   7.590  13.089  10.525 -0.2561  0.0528 -0.0311
  598loPI   GL2 9558   7.852  12.836  10.624 -0.0222 -0.0438  0.1950
  598loPI   C1A 9559   7.516  13.281  10.092 -0.2664  0.3272  0.0806
  598loPI   C2A 9560   7.499  13.515   9.744 -0.1501  0.0770  0.0167
  598loPI   C3A 9561   7.449  13.411   9.360  0.0202 -0.3032 -0.1192
  598loPI   C4A 9562   7.392  13.390   8.932  0.2119  0.3347  0.1011
  598loPI   C5A 9563   7.583  13.410   8.583  0.0872 -0.0185  0.0356
  598loPI   C6A 9564   7.828  13.757   8.274  0.3669  0.0119  0.3178
  598loPI   C1B 9565   7.932  12.988  10.131 -0.2091  0.0925  0.0404
  598loPI   C2B 9566   7.862  13.050   9.662 -0.0507  0.1571 -0.1281
  598loPI   C3B 9567   7.909  13.100   9.220 -0.0603  0.0920  0.1062
  598loPI   C4B 9568   7.731  13.022   8.928 -0.1801  0.0289 -0.0215
  599loPI    C1 9569   0.148  17.101  10.727  0.0885  0.2055  0.0260
  599loPI    C2 9570  -0.103  17.082  11.038  0.1319 -0.0391  0.0476
  599loPI    C3 9571   0.282  16.983  11.085  0.2157  0.2530 -0.0053
  599loPI   PO4 9572   0.023  17.035  10.550 -0.2189  0.0491 -0.0939
  599loPI   GL1 9573  -0.144  16.815  10.180 -0.2092 -0.1248 -0.0042
  599loPI   GL2 9574   0.127  16.622  10.332  0.0609  0.3231 -0.0474
  599loPI   C1A 9575  -0.117  16.788   9.727 -0.0685 -0.0009 -0.0118
  599loPI   C2A 9576  -0.154  16.811   9.324  0.0942 -0.2171  0.2855
  599loPI   C3A 9577  -0.149  16.814   8.805 -0.0898 -0.0289 -0.1444
  599loPI   C4A 9578   0.058  16.840   8.330 -0.2291 -0.0157  0.0951
  599loPI   C5A 9579   0.158  16.575   7.937  0.0792 -0.1107  0.2591
  599loPI   C6A 9580   0.059  16.100   7.884  0.0836  0.2243  0.3076
  599loPI   C1B 9581   0.181  16.443   9.934 -0.0129  0.1198  0.2704
  599loPI   C2B 9582   0.224  16.380   9.532 -0.2971 -0.1561  0.1903
  599loPI   C3B 9583   0.210  16.514   9.102  0.1193 -0.1476  0.0989
  599loPI   C4B 9584   0.342  16.522   8.729 -0.2861 -0.2657  0.0733
  600loPI    C1 9585  13.076   5.576  10.940  0.1514  0.0372 -0.0427
  600loPI    C2 9586  13.433   5.550  10.761  0.2194 -0.1504  0.1172
  600loPI    C3 9587  13.348   5.864  10.994  0.1690  0.0422 -0.1569
  600loPI   PO4 9588  12.885   5.567  10.773  0.0423 -0.0807  0.2400
  600loPI   GL1 9589  12.734   5.554  10.365  0.0189  0.0695 -0.0525
  600loPI   GL2 9590  12.604   5.278  10.326 -0.1617 -0.2475 -0.0142
  600loPI   C1A 9591  12.775   5.615   9.952 -0.3112 -0.1311  0.0289
  600loPI   C2A 9592  12.700   5.610   9.552 -0.0969  0.2229 -0.0307
  600loPI   C3A 9593  12.761   5.632   9.037  0.4042  0.2495 -0.0157
  600loPI   C4A 9594  12.714   5.857   8.740 -0.0721 -0.1311  0.0646
  600loPI   C5A 9595  12.947   6.205   8.584 -0.3761  0.0842  0.0660
  600loPI   C6A 9596  12.629   6.454   8.344 -0.0092 -0.1991  0.0497
  600loPI   C1B 9597  12.886   5.118  10.043 -0.1026  0.1485  0.0006
  600loPI   C2B 9598  12.919   5.113   9.664 -0.1457  0.0893 -0.3484
  600loPI   C3B 9599  13.089   5.350   9.368  0.0420 -0.3185  0.2232
  600loPI   C4B 9600  13.316   5.322   9.046  0.2869  0.0696 -0.0836
  601loPI    C1 9601  12.466  14.476  10.760  0.2404  0.0071 -0.0820
  601loPI    C2 9602  12.527  14.600  11.135 -0.0333 -0.0317 -0.0227
  601loPI    C3 9603  12.593  14.218  11.038 -0.0867 -0.0512  0.0170
  601loPI   PO4 9604  12.246  14.580  10.674  0.0174  0.2319 -0.0898
  601loPI   GL1 9605  11.999  14.609  10.312 -0.0422  0.1778 -0.0750
  601loPI   GL2 9606  12.017  14.289  10.307 -0.0724 -0.0142 -0.1786
  601loPI   C1A 9607  11.806  14.707   9.921  0.0141  0.2247 -0.1494
  601loPI   C2A 9608  11.885  14.714   9.530 -0.0104 -0.3062 -0.1805
  601loPI   C3A 9609  11.898  14.688   9.110 -0.0169  0.1149  0.3699
  601loPI   C4A 9610  11.892  14.639   8.721 -0.0355 -0.1407  0.2429
  601loPI   C5A 9611  11.668  14.545   8.331 -0.0650 -0.1502  0.0063
  601loPI   C6A 9612  11.384  14.438   8.111 -0.3731  0.1692  0.2876
  601loPI   C1B 9613  11.932  14.193   9.981 -0.1265 -0.3757 -0.2228
  601loPI   C2B 9614  11.852  14.223   9.569 -0.0655  0.2474  0.1455
  601loPI   C3B 9615  11.791  14.200   9.129  0.1032  0.1036 -0.0344
  601loPI   C4B 9616  11.817  14.186   8.711 -0.3379  0.0222  0.1792
  602loPI    C1 9617  10.081  11.576  10.596  0.0283  0.4453 -0.0899
  602loPI    C2 9618   9.820  11.809  10.402 -0.4010 -0.0198 -0.0923
  602loPI    C3 9619   9.773  11.739  10.793  0.0666  0.3602  0.0417
  602loPI   PO4 9620  10.043  11.314  10.413  0.0367 -0.1755 -0.0500
  602loPI   GL1 9621   9.990  11.187  10.063 -0.1062  0.1448 -0.0451
  602loPI   GL2 9622   9.742  11.121   9.902 -0.0748 -0.0564 -0.1182
  602loPI   C1A 9623  10.161  11.282   9.716 -0.0681  0.3370  0.0278
  602loPI   C2A 9624  10.161  11.369   9.332  0.1209  0.1310 -0.0211
  602loPI   C3A 9625  10.254  11.293   8.875  0.2536  0.1874  0.0025
  602loPI   C4A 9626  10.005  11.420   8.476  0.0330 -0.0220 -0.0598
  602loPI   C5A 9627  10.080  11.355   7.928  0.2040 -0.0284  0.1738
  602loPI   C6A 9628  10.090  11.475   7.467  0.1740  0.2231  0.0185
  602loPI   C1B 9629   9.755  11.117   9.449 -0.1319 -0.1247 -0.1948
  602loPI   C2B 9630   9.617  11.213   8.977 -0.3769 -0.1581  0.1968
  602loPI   C3B 9631   9.544  11.275   8.533 -0.1390 -0.0279  0.2663
  602loPI   C4B 9632   9.546  11.361   8.155 -0.1436  0.0785  0.0759
  603loPI    C1 9633  17.747   7.361  11.168 -0.1562  0.0563 -0.0317
  603loPI    C2 9634  17.594   7.600  11.451 -0.0410  0.1032 -0.0087
  603loPI    C3 9635  17.858   7.745  11.189  0.0054  0.0089 -0.0144
  603loPI   PO4 9636  17.498   7.260  11.017  0.0557  0.0556  0.1090
  603loPI   GL1 9637  17.508   7.280  10.627  0.0515  0.0247 -0.2564
  603loPI   GL2 9638  17.686   7.589  10.724 -0.0925 -0.1630  0.1501
  603loPI   C1A 9639  17.386   7.455  10.265 -0.0219  0.1422 -0.0012
  603loPI   C2A 9640  17.415   7.498   9.780 -0.0800  0.1066  0.0565
  603loPI   C3A 9641  17.415   7.487   9.343 -0.3474 -0.0787  0.1104
  603loPI   C4A 9642  17.531   7.569   8.988  0.1205  0.1999 -0.0048
  603loPI   C5A 9643  17.606   7.882   8.545  0.1591 -0.1900 -0.2332
  603loPI   C6A 9644  17.670   8.329   8.311 -0.1065 -0.1579 -0.1910
  603loPI   C1B 9645  17.802   7.716  10.309 -0.1171  0.1540 -0.0928
  603loPI   C2B 9646  17.848   7.840   9.950 -0.0848  0.0523 -0.2234
  603loPI   C3B 9647  17.793   7.861   9.485 -0.0436  0.0546 -0.4685
  603loPI   C4B 9648  17.851   7.986   9.020  0.2095  0.1830  0.1354
  604loPI    C1 9649  12.628  10.991  10.510 -0.0754 -0.0284 -0.0048
  604loPI    C2 9650  12.938  11.150  10.706 -0.0108  0.0852 -0.1960
  604loPI    C3 9651  12.596  11.073  10.900 -0.0130  0.3751 -0.0804
  604loPI   PO4 9652  12.595  11.121  10.298  0.2075 -0.0256 -0.2657
  604loPI   GL1 9653  12.734  10.843   9.930 -0.3026 -0.0927 -0.2715
  604loPI   GL2 9654  13.060  10.856   9.855  0.0031 -0.2506 -0.0411
  604loPI   C1A 9655  12.583  11.115   9.646 -0.0077  0.1034  0.1664
  604loPI   C2A 9656  12.457  11.049   9.187 -0.1091 -0.2516  0.0627
  604loPI   C3A 9657  12.448  11.103   8.788  0.1795 -0.1486  0.1835
  604loPI   C4A 9658  12.515  10.997   8.296 -0.4094  0.1234 -0.0962
  604loPI   C5A 9659  12.755  10.813   7.900  0.3191  0.0525  0.0883
  604loPI   C6A 9660  12.957  10.695   7.448 -0.0908 -0.0519 -0.2870
  604loPI   C1B 9661  13.391  10.838   9.513  0.1617  0.0559 -0.0408
  604loPI   C2B 9662  13.342  11.018   9.136  0.1800  0.3220 -0.0791
  604loPI   C3B 9663  13.316  10.966   8.646  0.1913 -0.4523  0.2384
  604loPI   C4B 9664  13.150  11.022   8.167  0.3998  0.2579 -0.0923
  605loPI    C1 9665  16.619  10.209  11.388 -0.0804  0.0431  0.1905
  605loPI    C2 9666  16.894  10.489  11.312 -0.0095 -0.1071 -0.1222
  605loPI    C3 9667  16.946  10.236  11.617  0.1661 -0.0900 -0.1371
  605loPI   PO4 9668  16.574  10.040  11.143 -0.0746  0.1723  0.0780
  605loPI   GL1 9669  16.355   9.963  10.759  0.0714 -0.0815 -0.0968
  605loPI   GL2 9670  16.273  10.314  10.767 -0.0392 -0.1481 -0.0890
  605loPI   C1A 9671  16.268   9.806  10.382 -0.2261 -0.2548  0.0006
  605loPI   C2A 9672  16.246   9.917  10.010  0.2833  0.1827  0.0118
  605loPI   C3A 9673  16.181   9.954   9.607 -0.3091  0.0526 -0.3143
  605loPI   C4A 9674  16.241  10.104   9.150  0.0319 -0.0953 -0.4560
  605loPI   C5A 9675  16.495  10.197   8.805 -0.3145 -0.0434 -0.1081
  605loPI   C6A 9676  16.563   9.908   8.327  0.0854  0.2028 -0.1757
  605loPI   C1B 9677  16.207  10.317  10.294 -0.0320  0.0466 -0.0629
  605loPI   C2B 9678  16.152  10.419   9.864  0.2394  0.0506  0.1882
  605loPI   C3B 9679  16.165  10.509   9.422  0.3153 -0.0088  0.0355
  605loPI   C4B 9680  16.372  10.625   9.089 -0.1721 -0.1971  0.0316
  606loPI    C1 9681   9.870   1.770  10.740  0.0415  0.1030  0.1016
  606loPI    C2 9682   9.588   1.829  11.018 -0.0425 -0.0423  0.0484
  606loPI    C3 9683   9.971   1.910  11.101 -0.0987  0.1562  0.1210
  606loPI   PO4 9684   9.629   1.488  10.635  0.1597 -0.1559  0.0263
  606loPI   GL1 9685   9.446   1.385  10.289  0.0240  0.1565 -0.1031
  606loPI   GL2 9686   9.309   1.084  10.254 -0.0191 -0.4373  0.0506
  606loPI   C1A 9687   9.630   1.259   9.883  0.1086 -0.1856 -0.1625
  606loPI   C2A 9688   9.649   1.290   9.458  0.0280 -0.1896  0.2474
  606loPI   C3A 9689   9.852   1.010   9.261  0.2579 -0.2666  0.0149
  606loPI   C4A 9690   9.917   0.981   8.843 -0.2022 -0.0502  0.0029
  606loPI   C5A 9691   9.928   1.094   8.393  0.1060 -0.2226  0.2239
  606loPI   C6A 9692   9.693   1.137   7.913  0.1035 -0.5492 -0.2688
  606loPI   C1B 9693   9.211   1.062   9.746 -0.3646  0.0750 -0.1713
  606loPI   C2B 9694   9.152   1.134   9.285 -0.5504 -0.0658 -0.0939
  606loPI   C3B 9695   9.437   1.284   8.982  0.1314  0.2093 -0.1901
  606loPI   C4B 9696   9.584   1.414   8.603 -0.2543 -0.0604  0.0920
  607loPI    C1 9697   5.034   5.061  10.960  0.0881 -0.0981 -0.3506
  607loPI    C2 9698   4.938   4.679  10.890  0.1831 -0.1574 -0.1630
  607loPI    C3 9699   4.740   4.887  11.168  0.0650 -0.0391 -0.3339
  607loPI   PO4 9700   5.088   5.092  10.664 -0.3662  0.1704 -0.0815
  607loPI   GL1 9701   5.190   4.901  10.335  0.1804  0.1199 -0.0727
  607loPI   GL2 9702   5.003   4.571  10.424  0.0089 -0.1550 -0.2569
  607loPI   C1A 9703   5.315   4.966   9.891  0.2259 -0.2522 -0.2153
  607loPI   C2A 9704   5.384   5.022   9.468  0.0451 -0.3192  0.3916
  607loPI   C3A 9705   5.386   5.017   9.088 -0.0919  0.2027  0.0149
  607loPI   C4A 9706   5.393   5.041   8.663  0.1895  0.0768 -0.1820
  607loPI   C5A 9707   5.302   4.900   8.231 -0.3172 -0.1047  0.0565
  607loPI   C6A 9708   5.087   4.571   8.150 -0.1176  0.2849  0.0116
  607loPI   C1B 9709   4.970   4.556   9.931 -0.1950 -0.0981 -0.1670
  607loPI   C2B 9710   5.037   4.600   9.446 -0.0184  0.0765  0.2108
  607loPI   C3B 9711   5.069   4.625   9.026 -0.2386 -0.1820 -0.0871
  607loPI   C4B 9712   5.048   4.587   8.611 -0.2728 -0.0302 -0.0484
  608loPI    C1 9713   8.578  18.082  10.883 -0.0834 -0.0059  0.0117
  608loPI    C2 9714   8.738  18.257  10.560  0.0964 -0.0730  0.0627
  608loPI    C3 9715   8.944  18.244  10.903  0.0123 -0.2296  0.1086
  608loPI   PO4 9716   8.438  17.968  10.794 -0.1319  0.0290  0.0457
  608loPI   GL1 9717   8.476  17.810  10.379  0.0843 -0.1459 -0.0950
  608loPI   GL2 9718   8.253  17.726  10.067 -0.1745  0.3450 -0.1173
  608loPI   C1A 9719   8.754  17.882   9.935 -0.2277 -0.1619 -0.0832
  608loPI   C2A 9720   8.844  17.953   9.497  0.3121  0.0226  0.2184
  608loPI   C3A 9721   8.739  17.996   9.100  0.0303 -0.1784  0.0050
  608loPI   C4A 9722   8.867  17.941   8.735 -0.0322 -0.0163 -0.1211
  608loPI   C5A 9723   8.618  17.791   8.374  0.2429 -0.0917  0.2258
  608loPI   C6A 9724   8.201  17.720   8.139  0.0774  0.0421  0.1979
  608loPI   C1B 9725   8.248  17.633   9.613  0.1616  0.0402 -0.1363
  608loPI   C2B 9726   8.324  17.685   9.154  0.0704  0.1419 -0.2073
  608loPI   C3B 9727   8.343  17.887   8.816 -0.0678  0.2373 -0.0353
  608loPI   C4B 9728   8.439  18.255   8.688 -0.0027  0.0118  0.1650
  609loPI    C1 9729   7.710  11.312  11.133 -0.1087 -0.1423  0.0736
  609loPI    C2 9730   8.041  11.497  11.258 -0.1844  0.1006 -0.0793
  609loPI    C3 9731   7.964  11.123  11.377  0.1296  0.0520 -0.0206
  609loPI   PO4 9732   7.674  11.561  10.909 -0.0138  0.1548 -0.0123
  609loPI   GL1 9733   7.497  11.834  10.671 -0.1217 -0.0062 -0.1647
  609loPI   GL2 9734   7.187  11.948  10.540  0.0861 -0.1780  0.0503
  609loPI   C1A 9735   7.610  11.956  10.219 -0.1414  0.2662  0.2604
  609loPI   C2A 9736   7.596  11.987   9.872 -0.0265  0.0950  0.2220
  609loPI   C3A 9737   7.722  12.032   9.479  0.0019 -0.1029  0.0231
  609loPI   C4A 9738   7.553  11.917   9.061 -0.2764 -0.5122  0.0315
  609loPI   C5A 9739   7.501  11.979   8.676  0.0501  0.1820 -0.0841
  609loPI   C6A 9740   7.378  11.630   8.552 -0.1994 -0.1387  0.0157
  609loPI   C1B 9741   7.171  12.302  10.176  0.1734 -0.0846 -0.1588
  609loPI   C2B 9742   7.249  12.357   9.756  0.2261  0.0300  0.1720
  609loPI   C3B 9743   7.216  12.427   9.340  0.0626  0.1306  0.1521
  609loPI   C4B 9744   7.097  12.334   8.863  0.1064  0.0445  0.0849
  610loPI    C1 9745   9.159   9.410  10.842  0.1143 -0.0815  0.1139
  610loPI    C2 9746   9.104   9.722  11.087 -0.2124  0.0483 -0.1174
  610loPI    C3 9747   8.888   9.389  11.136 -0.1546  0.0101 -0.1223
  610loPI   PO4 9748   9.157   9.523  10.612 -0.1084  0.0309 -0.0732
  610loPI   GL1 9749   9.087   9.468  10.179  0.3232  0.1777  0.2105
  610loPI   GL2 9750   9.302   9.484   9.949  0.0517 -0.1593  0.0915
  610loPI   C1A 9751   8.813   9.497   9.784 -0.0419  0.0307 -0.0923
  610loPI   C2A 9752   8.877   9.567   9.366 -0.0797 -0.2199  0.1797
  610loPI   C3A 9753   8.851   9.457   8.904 -0.0060 -0.0932 -0.3843
  610loPI   C4A 9754   8.585   9.254   8.694 -0.2047  0.2529  0.3928
  610loPI   C5A 9755   8.417   9.212   8.304 -0.0252 -0.2592 -0.1694
  610loPI   C6A 9756   8.076   8.900   8.163 -0.0153 -0.3799 -0.0596
  610loPI   C1B 9757   9.315   9.676   9.530  0.0972  0.1050  0.2948
  610loPI   C2B 9758   9.371   9.715   9.128 -0.0164 -0.1122  0.0121
  610loPI   C3B 9759   9.296   9.647   8.708  0.2669 -0.0464 -0.0431
  610loPI   C4B 9760   8.909   9.616   8.418 -0.1693 -0.0071  0.3179
  611loPI    C1 9761  11.176   1.130  10.815 -0.1920  0.2028 -0.0503
  611loPI    C2 9762  11.075   1.374  11.115  0.1216  0.1593  0.0945
  611loPI    C3 9763  11.407   1.153  11.140 -0.0578 -0.1424 -0.1169
  611loPI   PO4 9764  11.042   1.208  10.606 -0.0650 -0.1586  0.1080
  611loPI   GL1 9765  10.909   1.240  10.293  0.4066  0.0010  0.0581
  611loPI   GL2 9766  11.102   1.444  10.096  0.0795  0.0606 -0.0770
  611loPI   C1A 9767  11.113   0.935  10.010 -0.0022  0.1318  0.0865
  611loPI   C2A 9768  11.141   0.573   9.860 -0.0293 -0.0473 -0.0504
  611loPI   C3A 9769  11.112   0.502   9.517  0.2862  0.1149 -0.1200
  611loPI   C4A 9770  11.374   0.467   9.163 -0.1928  0.1432  0.0065
  611loPI   C5A 9771  11.243   0.532   8.730 -0.1230 -0.3866 -0.1036
  611loPI   C6A 9772  11.203   0.721   8.353 -0.1655 -0.1218  0.2408
  611loPI   C1B 9773  11.271   1.278   9.754 -0.1518 -0.0887 -0.0089
  611loPI   C2B 9774  10.919   1.015   9.568  0.1747 -0.3215  0.1294
  611loPI   C3B 9775  10.769   0.884   9.155  0.2492 -0.0573 -0.0893
  611loPI   C4B 9776  10.868   0.908   8.697  0.2176 -0.0078 -0.1012
  612loPI    C1 9777  16.681   4.242  10.807  0.3428 -0.2035 -0.0995
  612loPI    C2 9778  16.544   4.070  11.141 -0.0797 -0.0042 -0.1641
  612loPI    C3 9779  16.903   4.247  11.140  0.0094 -0.1766  0.1270
  612loPI   PO4 9780  16.553   4.208  10.569 -0.1407 -0.0717  0.0614
  612loPI   GL1 9781  16.107   4.184  10.391 -0.1795  0.2475  0.3099
  612loPI   GL2 9782  15.778   4.366  10.301  0.1205 -0.0705  0.0012
  612loPI   C1A 9783  16.186   4.183   9.885  0.0560 -0.0394 -0.2836
  612loPI   C2A 9784  16.176   4.285   9.397  0.1813  0.0489  0.0057
  612loPI   C3A 9785  16.192   4.250   9.008 -0.0491  0.0638  0.3844
  612loPI   C4A 9786  16.212   4.211   8.578 -0.4723 -0.0117  0.2354
  612loPI   C5A 9787  16.324   4.080   8.294  0.2281 -0.2962 -0.1662
  612loPI   C6A 9788  16.463   3.951   7.841 -0.1392 -0.1405 -0.0368
  612loPI   C1B 9789  15.725   4.506   9.929  0.0083  0.0367  0.1668
  612loPI   C2B 9790  15.698   4.351   9.483 -0.0217  0.0623 -0.0585
  612loPI   C3B 9791  15.678   4.446   9.163 -0.3718 -0.1165 -0.0028
  612loPI   C4B 9792  15.809   4.414   8.738  0.0719 -0.3102 -0.0327
  613loPI    C1 9793   0.701   8.127  11.125 -0.0898 -0.0202  0.0181
  613loPI    C2 9794   0.318   8.240  11.148 -0.0438  0.1460 -0.0176
  613loPI    C3 9795   0.478   8.017  11.438 -0.2097 -0.0566 -0.0793
  613loPI   PO4 9796   0.827   8.162  10.854  0.0614  0.0086  0.0307
  613loPI   GL1 9797   0.655   8.138  10.454  0.1791 -0.0205 -0.2555
  613loPI   GL2 9798   0.348   8.151  10.621 -0.0841 -0.1000  0.3957
  613loPI   C1A 9799   0.366   7.916  10.057 -0.1024  0.1564  0.0613
  613loPI   C2A 9800   0.374   7.957   9.598 -0.1451  0.0131  0.0413
  613loPI   C3A 9801   0.406   7.990   9.186  0.0460  0.0474 -0.0268
  613loPI   C4A 9802   0.448   8.226   8.886  0.3001  0.2283  0.0507
  613loPI   C5A 9803   0.818   8.153   8.601 -0.0697  0.0531  0.1209
  613loPI   C6A 9804   1.212   8.327   8.541 -0.2019 -0.1304  0.0516
  613loPI   C1B 9805   0.296   8.495  10.397  0.1879 -0.0287  0.1804
  613loPI   C2B 9806   0.433   8.477   9.939  0.0334  0.2612 -0.0366
  613loPI   C3B 9807   0.335   8.481   9.455  0.4168 -0.2729  0.0981
  613loPI   C4B 9808   0.396   8.737   9.051 -0.0723  0.0267  0.1297
  614loPI    C1 9809  12.615  13.531  11.036  0.0376  0.1868 -0.0046
  614loPI    C2 9810  12.605  13.809  11.324 -0.1362 -0.0038  0.1767
  614loPI    C3 9811  12.376  13.483  11.353 -0.2712  0.0464 -0.2536
  614loPI   PO4 9812  12.662  13.701  10.802  0.2252  0.1041 -0.0861
  614loPI   GL1 9813  12.795  13.715  10.390 -0.1405 -0.3306  0.0858
  614loPI   GL2 9814  12.771  13.964  10.211 -0.1079 -0.2860 -0.0393
  614loPI   C1A 9815  12.976  13.535  10.036  0.2138  0.0685  0.1170
  614loPI   C2A 9816  13.056  13.656   9.694  0.2170  0.0155  0.2171
  614loPI   C3A 9817  13.068  13.634   9.171  0.0022 -0.2376 -0.0117
  614loPI   C4A 9818  13.068  13.650   8.776 -0.4742  0.0880  0.1685
  614loPI   C5A 9819  13.041  13.751   8.364 -0.2856  0.2573 -0.0516
  614loPI   C6A 9820  13.339  13.627   8.027 -0.2802 -0.4839 -0.0011
  614loPI   C1B 9821  12.611  14.024   9.870 -0.1390 -0.0932  0.1795
  614loPI   C2B 9822  12.700  13.998   9.432  0.2784  0.2430  0.1894
  614loPI   C3B 9823  12.633  13.993   9.057 -0.2521 -0.0242 -0.3246
  614loPI   C4B 9824  12.676  14.043   8.575  0.1249  0.2789 -0.1532
  615loPI    C1 9825  10.264  15.662  11.042  0.2673  0.0273  0.1338
  615loPI    C2 9826  10.009  15.510  11.310 -0.0256  0.0212 -0.1422
  615loPI    C3 9827  10.282  15.779  11.425 -0.1198 -0.0111  0.1680
  615loPI   PO4 9828  10.282  15.477  10.902  0.1657  0.2430  0.1675
  615loPI   GL1 9829  10.127  15.258  10.419 -0.3598 -0.0578  0.1053
  615loPI   GL2 9830  10.361  15.422  10.438  0.1411 -0.0990 -0.1367
  615loPI   C1A 9831  10.165  15.102   9.974 -0.1253  0.3860  0.2841
  615loPI   C2A 9832  10.129  15.034   9.488  0.0543 -0.0741  0.3360
  615loPI   C3A 9833  10.092  15.074   8.971 -0.2371  0.0214  0.0989
  615loPI   C4A 9834  10.196  15.129   8.537 -0.3101 -0.0940  0.2158
  615loPI   C5A 9835  10.238  15.374   8.183  0.1430 -0.0053  0.1867
  615loPI   C6A 9836  10.149  15.537   7.786  0.1321  0.1702 -0.3840
  615loPI   C1B 9837  10.233  15.589   9.968  0.0922 -0.0387  0.0158
  615loPI   C2B 9838  10.192  15.550   9.562 -0.1967 -0.1518  0.0449
  615loPI   C3B 9839  10.246  15.601   9.109 -0.0890  0.0751  0.0074
  615loPI   C4B 9840  10.128  15.633   8.680 -0.0244 -0.1490 -0.0337
  616loPI    C1 9841   0.181   5.198  10.799  0.1362 -0.0445  0.1596
  616loPI    C2 9842   0.237   4.825  10.933  0.1303 -0.0846  0.0520
  616loPI    C3 9843   0.494   4.984  10.671  0.0573 -0.0623 -0.0062
  616loPI   PO4 9844  -0.113   5.196  10.762  0.1592  0.0584 -0.1281
  616loPI   GL1 9845  -0.294   5.483  10.418  0.2737  0.3235 -0.0229
  616loPI   GL2 9846  -0.574   5.353  10.315  0.0914  0.0124 -0.1168
  616loPI   C1A 9847  -0.065   5.649  10.260  0.1715 -0.1265  0.0356
  616loPI   C2A 9848   0.114   5.643   9.894  0.0690  0.1640  0.2969
  616loPI   C3A 9849   0.151   5.787   9.478 -0.0558  0.0770  0.2087
  616loPI   C4A 9850  -0.156   5.907   9.158  0.0571 -0.1772  0.0313
  616loPI   C5A 9851  -0.209   5.956   8.708 -0.0854  0.0330  0.2552
  616loPI   C6A 9852   0.176   5.800   8.385 -0.0057  0.1438 -0.1071
  616loPI   C1B 9853  -0.453   5.500   9.944  0.1051 -0.0310  0.1935
  616loPI   C2B 9854  -0.526   5.529   9.516 -0.0918  0.0179 -0.3961
  616loPI   C3B 9855  -0.571   5.528   8.989  0.2339  0.2334  0.1494
  616loPI   C4B 9856  -0.574   5.547   8.565 -0.0763  0.1631  0.1890
  617loPI    C1 9857  10.160   6.143  11.072  0.0377  0.0452  0.0028
  617loPI    C2 9858  10.288   6.180  11.449 -0.0105  0.1940  0.0055
  617loPI    C3 9859   9.898   6.214  11.366 -0.0058  0.1128 -0.0518
  617loPI   PO4 9860  10.242   6.294  10.868  0.1042 -0.1319 -0.0650
  617loPI   GL1 9861  10.163   6.140  10.439  0.3416 -0.3806  0.1055
  617loPI   GL2 9862  10.409   6.065  10.196  0.1394 -0.1973 -0.2350
  617loPI   C1A 9863   9.875   6.017  10.030 -0.0921 -0.0159  0.1362
  617loPI   C2A 9864   9.794   6.078   9.636 -0.2077  0.0733 -0.2692
  617loPI   C3A 9865   9.819   6.036   9.242  0.2719 -0.2916  0.1973
  617loPI   C4A 9866   9.898   6.059   8.848 -0.1387 -0.2313 -0.4455
  617loPI   C5A 9867   9.739   6.125   8.442 -0.0226  0.3758  0.2759
  617loPI   C6A 9868   9.494   6.500   8.178 -0.1074  0.3886  0.2123
  617loPI   C1B 9869  10.319   5.990   9.798 -0.4295 -0.0133 -0.2469
  617loPI   C2B 9870  10.297   6.103   9.449 -0.1453  0.2490 -0.1273
  617loPI   C3B 9871  10.360   6.088   9.039  0.0222 -0.1567 -0.0605
  617loPI   C4B 9872  10.491   6.054   8.666  0.2818 -0.0899  0.3082
  618loPI    C1 9873   1.282  12.051  11.165  0.3000 -0.0680 -0.0832
  618loPI    C2 9874   0.936  12.029  11.364  0.1562 -0.1341 -0.3356
  618loPI    C3 9875   1.283  12.010  11.563  0.0197  0.3171 -0.0376
  618loPI   PO4 9876   1.226  12.266  11.001 -0.1567  0.2413 -0.1978
  618loPI   GL1 9877   1.112  12.304  10.563  0.2641 -0.1787  0.3070
  618loPI   GL2 9878   1.272  12.573  10.652 -0.0246  0.0781 -0.1314
  618loPI   C1A 9879   1.196  12.452  10.161 -0.1662  0.1940  0.2106
  618loPI   C2A 9880   1.351  12.540   9.748  0.0888  0.2082  0.0631
  618loPI   C3A 9881   1.245  12.585   9.292 -0.0031  0.0370  0.0344
  618loPI   C4A 9882   1.295  12.634   8.875 -0.2710  0.2863 -0.1482
  618loPI   C5A 9883   1.450  12.460   8.474  0.2635 -0.1412 -0.0802
  618loPI   C6A 9884   1.650  12.385   8.090  0.0415 -0.3355 -0.1367
  618loPI   C1B 9885   1.625  12.574  10.491  0.1925 -0.0281  0.0720
  618loPI   C2B 9886   1.771  12.642  10.045  0.1200  0.0419 -0.1594
  618loPI   C3B 9887   1.781  12.702   9.599  0.1852 -0.1056 -0.2520
  618loPI   C4B 9888   1.731  12.693   9.147 -0.1989  0.1583  0.2607
  619loPI    C1 9889  13.723  16.985  11.101  0.2060  0.0379 -0.0725
  619loPI    C2 9890  13.329  17.047  11.127  0.1716 -0.1674 -0.0880
  619loPI    C3 9891  13.575  17.353  11.050  0.0426  0.0112  0.1930
  619loPI   PO4 9892  13.842  16.846  10.874 -0.0297  0.0123  0.1241
  619loPI   GL1 9893  14.104  16.760  10.429 -0.1695 -0.0545 -0.0016
  619loPI   GL2 9894  13.854  16.727  10.260  0.2238  0.0658  0.2759
  619loPI   C1A 9895  14.365  16.699  10.134 -0.2904  0.0786 -0.2435
  619loPI   C2A 9896  14.706  16.789   9.874  0.1558 -0.2058  0.1381
  619loPI   C3A 9897  15.000  16.738   9.563  0.2036 -0.0113  0.0722
  619loPI   C4A 9898  14.926  16.791   9.096  0.0821  0.0398  0.1765
  619loPI   C5A 9899  15.033  17.029   8.722  0.0135  0.1241  0.0737
  619loPI   C6A 9900  15.191  17.222   8.325 -0.0030 -0.2112 -0.2839
  619loPI   C1B 9901  13.863  16.414   9.978 -0.1068 -0.0229 -0.3133
  619loPI   C2B 9902  13.917  16.344   9.504  0.0776 -0.0399  0.1167
  619loPI   C3B 9903  13.962  16.405   8.984 -0.1190 -0.1174 -0.2884
  619loPI   C4B 9904  13.678  16.514   8.777  0.2343 -0.0436 -0.0728
  620loPI    C1 9905   0.085   1.407  10.617 -0.1715  0.0068  0.0403
  620loPI    C2 9906   0.112   1.792  10.722 -0.0504 -0.0048  0.0525
  620loPI    C3 9907  -0.010   1.521  10.989  0.0945 -0.0093  0.1155
  620loPI   PO4 9908   0.072   1.427  10.388  0.0355  0.1704  0.4775
  620loPI   GL1 9909   0.382   1.530  10.061 -0.2842 -0.0487 -0.2146
  620loPI   GL2 9910   0.483   1.320   9.839 -0.1059 -0.1799  0.0545
  620loPI   C1A 9911   0.511   1.833   9.789 -0.2274  0.0502  0.4150
  620loPI   C2A 9912   0.730   1.849   9.384 -0.2712  0.0582 -0.0899
  620loPI   C3A 9913   0.940   2.174   9.144 -0.1862  0.1269 -0.0424
  620loPI   C4A 9914   1.081   2.189   8.670  0.3028  0.0270  0.0269
  620loPI   C5A 9915   1.108   2.253   8.201 -0.0389 -0.0320  0.0683
  620loPI   C6A 9916   0.930   2.580   7.953 -0.3333 -0.2624 -0.0436
  620loPI   C1B 9917   0.340   1.455   9.457  0.5365  0.2994  0.0912
  620loPI   C2B 9918   0.383   1.533   9.040 -0.0246  0.1030  0.0367
  620loPI   C3B 9919   0.285   1.599   8.640 -0.1093 -0.0898 -0.1529
  620loPI   C4B 9920   0.341   1.601   8.226 -0.1817 -0.1270 -0.0015
  621loPI    C1 9921  12.947   1.042  10.510 -0.0425  0.0530  0.0025
  621loPI    C2 9922  13.255   1.162  10.737  0.0687  0.0420 -0.1410
  621loPI    C3 9923  12.884   1.158  10.888  0.1265  0.1377  0.0059
  621loPI   PO4 9924  12.912   0.783  10.377  0.2447  0.2933  0.0124
  621loPI   GL1 9925  12.845   0.489  10.050 -0.1841 -0.2671 -0.0830
  621loPI   GL2 9926  12.591   0.404  10.052 -0.3252 -0.0195 -0.1338
  621loPI   C1A 9927  13.016   0.533   9.694 -0.0685  0.1334  0.0859
  621loPI   C2A 9928  13.101   0.787   9.277  0.2538  0.0357  0.2721
  621loPI   C3A 9929  13.115   0.692   8.884 -0.0179  0.0756 -0.1599
  621loPI   C4A 9930  12.962   0.756   8.476 -0.1093  0.0018 -0.0761
  621loPI   C5A 9931  12.936   1.107   8.344 -0.1966 -0.0688 -0.0944
  621loPI   C6A 9932  13.382   1.256   8.227 -0.0066  0.0100 -0.1427
  621loPI   C1B 9933  12.613   0.247   9.686 -0.0317  0.0490  0.0545
  621loPI   C2B 9934  12.490   0.024   9.204  0.0940  0.3673 -0.0262
  621loPI   C3B 9935  12.527  -0.065   8.724 -0.0124  0.1373  0.1928
  621loPI   C4B 9936  12.521  -0.144   8.347 -0.2246  0.2421  0.0128
  622loPI    C1 9937   0.553   3.698  10.717  0.0931 -0.0326  0.2080
  622loPI    C2 9938   0.695   3.991  10.949  0.2437  0.1819 -0.1475
  622loPI    C3 9939   0.383   4.060  10.707  0.1555 -0.0090 -0.0899
  622loPI   PO4 9940   0.733   3.509  10.512  0.2595  0.1299 -0.0105
  622loPI   GL1 9941   0.819   3.253  10.095  0.2588  0.1275  0.1737
  622loPI   GL2 9942   1.054   3.179  10.255 -0.0233  0.0553 -0.1426
  622loPI   C1A 9943   0.857   3.194   9.658 -0.0405 -0.0840  0.0554
  622loPI   C2A 9944   0.949   3.187   9.205  0.0331 -0.2587  0.0013
  622loPI   C3A 9945   0.839   3.272   8.783  0.2117  0.1386  0.0788
  622loPI   C4A 9946   0.587   3.440   8.364 -0.1427 -0.1625  0.0728
  622loPI   C5A 9947   0.357   3.468   8.010 -0.1494 -0.0655 -0.0602
  622loPI   C6A 9948   0.008   3.670   7.734 -0.1343 -0.1106 -0.2521
  622loPI   C1B 9949   1.226   2.964  10.011 -0.0862 -0.0292  0.2001
  622loPI   C2B 9950   1.341   2.970   9.524  0.0678 -0.1420  0.1272
  622loPI   C3B 9951   1.444   2.939   9.068  0.0659  0.3419  0.0067
  622loPI   C4B 9952   1.307   3.093   8.629 -0.0259  0.0049  0.1422
  623loPI    C1 9953  15.343  12.755  11.150  0.0594  0.0522  0.0409
  623loPI    C2 9954  15.130  12.712  11.486  0.0905  0.0744  0.0637
  623loPI    C3 9955  15.296  12.392  11.312  0.0393  0.0572  0.0462
  623loPI   PO4 9956  15.518  12.860  11.145  0.1294 -0.1096 -0.4499
  623loPI   GL1 9957  15.653  12.882  10.721  0.0777 -0.1838  0.2927
  623loPI   GL2 9958  15.956  12.834  10.417  0.0179  0.0971 -0.1301
  623loPI   C1A 9959  15.584  13.157  10.390 -0.0534  0.1715 -0.0984
  623loPI   C2A 9960  15.583  13.134   9.969 -0.1387  0.0975  0.0734
  623loPI   C3A 9961  15.560  13.131   9.558  0.1123  0.0667  0.1210
  623loPI   C4A 9962  15.655  13.183   9.068 -0.1341  0.0371  0.0956
  623loPI   C5A 9963  15.553  13.024   8.672  0.2451  0.0911 -0.1493
  623loPI   C6A 9964  15.517  12.589   8.503  0.1258  0.1274  0.0188
  623loPI   C1B 9965  16.004  12.776   9.902 -0.3393  0.0527  0.0471
  623loPI   C2B 9966  16.001  12.822   9.415 -0.1079 -0.0874  0.2157
  623loPI   C3B 9967  16.034  12.793   9.000  0.0630 -0.3814  0.2117
  623loPI   C4B 9968  16.043  12.916   8.528 -0.1529 -0.1066 -0.0491
  624loPI    C1 9969   2.028   7.459  11.119 -0.1087  0.0483  0.0542
  624loPI    C2 9970   2.177   7.328  11.466 -0.0137  0.1648  0.0581
  624loPI    C3 9971   1.842   7.546  11.462 -0.2580 -0.2032  0.0391
  624loPI   PO4 9972   2.212   7.316  10.932 -0.2291  0.1437 -0.0796
  624loPI   GL1 9973   2.379   7.027  10.630 -0.2916 -0.0116 -0.2012
  624loPI   GL2 9974   2.270   7.290  10.445 -0.2761  0.2420 -0.0655
  624loPI   C1A 9975   2.456   6.854  10.197 -0.1572  0.2022  0.0302
  624loPI   C2A 9976   2.495   6.840   9.836 -0.1364  0.2332 -0.0210
  624loPI   C3A 9977   2.590   6.666   9.418 -0.0617  0.1745  0.0142
  624loPI   C4A 9978   2.708   6.590   8.956 -0.1357  0.0795  0.1074
  624loPI   C5A 9979   2.739   6.396   8.482  0.1082 -0.0024 -0.1311
  624loPI   C6A 9980   2.746   6.370   8.051  0.0994 -0.1733  0.1816
  624loPI   C1B 9981   2.265   7.302  10.018 -0.0903  0.0569  0.0191
  624loPI   C2B 9982   2.351   7.231   9.443 -0.0557  0.1630  0.2081
  624loPI   C3B 9983   2.415   7.074   9.036 -0.0361  0.0161 -0.2856
  624loPI   C4B 9984   2.454   6.888   8.586  0.1617  0.1311  0.1150
  625loPI    C1 9985   3.420  15.872  10.357  0.1865  0.0410  0.0477
  625loPI    C2 9986   3.256  16.178  10.555 -0.1920 -0.0976 -0.0430
  625loPI    C3 9987   3.438  15.883  10.756 -0.2030 -0.0274  0.0708
  625loPI   PO4 9988   3.257  15.713  10.274  0.1076 -0.0271 -0.2490
  625loPI   GL1 9989   3.031  15.653   9.963 -0.0487 -0.1015  0.1359
  625loPI   GL2 9990   3.377  15.811   9.799  0.0253  0.0270 -0.0361
  625loPI   C1A 9991   2.822  15.834   9.515 -0.2139  0.0065  0.0342
  625loPI   C2A 9992   2.875  15.903   9.096 -0.0017 -0.0197  0.1160
  625loPI   C3A 9993   2.977  15.887   8.784 -0.0609  0.2031 -0.2649
  625loPI   C4A 9994   3.220  15.986   8.382 -0.0099 -0.0027  0.6018
  625loPI   C5A 9995   3.009  16.062   7.865 -0.1260  0.1754  0.0960
  625loPI   C6A 9996   2.969  15.968   7.371 -0.2113  0.1009  0.1684
  625loPI   C1B 9997   3.240  15.545   9.459  0.1105 -0.0478 -0.0511
  625loPI   C2B 9998   3.188  15.451   9.067  0.6276  0.2274 -0.1089
  625loPI   C3B 9999   3.165  15.510   8.570  0.0345 -0.0111  0.2534
  625loPI   C4B10000   3.178  15.579   8.031  0.1067  0.0834 -0.0263
  626loPI    C110001  17.876  12.559  11.122  0.0309  0.2674  0.0985
  626loPI    C210002  17.741  12.856  11.353  0.0476  0.2468  0.1346
  626loPI    C310003  17.822  12.499  11.514 -0.3826  0.0920  0.0203
  626loPI   PO410004  17.712  12.573  10.921 -0.1347 -0.1953 -0.0276
  626loPI   GL110005  17.623  12.225  10.608  0.0705 -0.1699 -0.0983
  626loPI   GL210006  17.740  12.306  10.482  0.1292 -0.2255  0.3266
  626loPI   C1A10007  17.609  11.880  10.183 -0.0964  0.0134 -0.1541
  626loPI   C2A10008  17.779  11.839   9.867  0.4640  0.3552  0.1628
  626loPI   C3A10009  18.120  12.038   9.616  0.0493  0.1276 -0.1346
  626loPI   C4A10010  18.173  11.982   9.127  0.0280  0.1521 -0.0953
  626loPI   C5A10011  18.128  12.093   8.586 -0.2767  0.0690  0.1104
  626loPI   C6A10012  18.152  11.750   8.273  0.1178  0.3028 -0.2495
  626loPI   C1B10013  17.908  12.260  10.075 -0.1814  0.0137  0.0305
  626loPI   C2B10014  17.776  12.422   9.687 -0.1104  0.0034  0.1750
  626loPI   C3B10015  17.817  12.322   9.337  0.2266 -0.0275  0.1295
  626loPI   C4B10016  17.820  12.287   8.898  0.1532  0.0000 -0.1891
  627loPI    C110017  16.086  10.170  11.250  0.0855 -0.1975 -0.0350
  627loPI    C210018  16.212   9.968  11.571  0.1361  0.0056  0.0744
  627loPI    C310019  16.045  10.329  11.615 -0.3224 -0.1801 -0.0838
  627loPI   PO410020  15.963  10.032  11.087 -0.0000 -0.1032  0.1588
  627loPI   GL110021  15.850   9.824  10.790  0.1324  0.1151 -0.0101
  627loPI   GL210022  15.818  10.122  10.546  0.0973  0.2042 -0.0283
  627loPI   C1A10023  15.830   9.659  10.314 -0.0783 -0.0686 -0.1250
  627loPI   C2A10024  15.889   9.590   9.924  0.0320 -0.0842  0.0853
  627loPI   C3A10025  15.761   9.653   9.562 -0.1545  0.0612  0.1044
  627loPI   C4A10026  15.967   9.718   9.215 -0.0308 -0.2021  0.2373
  627loPI   C5A10027  15.900   9.947   8.836 -0.1686 -0.0219  0.0643
  627loPI   C6A10028  16.096  10.172   8.486 -0.2693 -0.0268 -0.0173
  627loPI   C1B10029  15.736  10.127  10.058  0.1474 -0.1591  0.0005
  627loPI   C2B10030  15.705  10.183   9.678  0.1127  0.3425 -0.1428
  627loPI   C3B10031  15.771  10.176   9.278 -0.0520  0.0350 -0.0269
  627loPI   C4B10032  15.932  10.428   8.948  0.0876  0.2551  0.3030
  628loPI    C110033   5.380   8.067  10.890 -0.1738 -0.0448  0.0742
  628loPI    C210034   5.575   7.965  11.224 -0.1411  0.1910  0.1288
  628loPI    C310035   5.209   8.125  11.247 -0.2508 -0.0417  0.0371
  628loPI   PO410036   5.611   8.164  10.752  0.0891  0.1228  0.0791
  628loPI   GL110037   5.748   8.299  10.408  0.1720  0.1644 -0.0046
  628loPI   GL210038   5.675   8.508  10.171  0.1084 -0.0106 -0.0537
  628loPI   C1A10039   5.853   8.072  10.037 -0.0253 -0.1274 -0.1194
  628loPI   C2A10040   5.936   8.124   9.637 -0.0912  0.0594 -0.2514
  628loPI   C3A10041   5.898   8.145   9.160  0.0055 -0.1399 -0.0309
  628loPI   C4A10042   5.991   8.183   8.713  0.1023  0.0209 -0.0458
  628loPI   C5A10043   6.171   8.118   8.311 -0.1649  0.2615 -0.0051
  628loPI   C6A10044   6.401   8.237   7.916  0.2652  0.2395 -0.1240
  628loPI   C1B10045   5.709   8.585   9.755  0.0304 -0.0790  0.1842
  628loPI   C2B10046   5.660   8.675   9.295  0.3315  0.0179  0.1415
  628loPI   C3B10047   5.768   8.603   8.871 -0.1078 -0.1196 -0.4277
  628loPI   C4B10048   5.766   8.562   8.463  0.2743  0.2626  0.1169
  629loPI    C110049   2.059   9.145  11.050 -0.1329 -0.0493  0.0855
  629loPI    C210050   1.910   8.854  11.281  0.1510 -0.1470  0.1507
  629loPI    C310051   2.237   8.786  11.061  0.0689  0.0452 -0.0342
  629loPI   PO410052   1.868   9.232  10.938  0.0299 -0.2654 -0.1982
  629loPI   GL110053   1.615   9.052  10.498  0.4637 -0.2128  0.0475
  629loPI   GL210054   1.585   9.390  10.457 -0.2366 -0.0223  0.1877
  629loPI   C1A10055   1.673   9.056  10.091 -0.0776  0.1228  0.0432
  629loPI   C2A10056   1.654   8.933   9.746  0.2193  0.0441  0.3995
  629loPI   C3A10057   1.686   8.874   9.409  0.0693 -0.0895  0.2884
  629loPI   C4A10058   1.897   8.713   9.044 -0.1311 -0.2943 -0.0768
  629loPI   C5A10059   1.876   8.692   8.675  0.0626  0.1686  0.0764
  629loPI   C6A10060   2.070   8.516   8.292 -0.0519 -0.1590  0.0822
  629loPI   C1B10061   1.644   9.531  10.050 -0.1668  0.0125  0.0869
  629loPI   C2B10062   1.646   9.425   9.605 -0.1074 -0.0467  0.0004
  629loPI   C3B10063   1.737   9.330   9.171 -0.3245 -0.2226  0.1520
  629loPI   C4B10064   1.811   9.157   8.784  0.3163 -0.0314  0.1514
  630loPI    C110065   7.037   0.730  10.599  0.1688 -0.1618  0.1618
  630loPI    C210066   7.017   1.122  10.523  0.0417 -0.2105 -0.0644
  630loPI    C310067   6.959   0.987  10.895  0.1695 -0.0089  0.0303
  630loPI   PO410068   7.159   0.714  10.299  0.1710  0.0725 -0.2521
  630loPI   GL110069   7.305   0.912  10.085  0.1321 -0.1106 -0.0850
  630loPI   GL210070   7.239   1.229  10.021 -0.2766  0.3433 -0.1684
  630loPI   C1A10071   7.213   0.890   9.665 -0.1553 -0.1846 -0.0474
  630loPI   C2A10072   7.081   0.861   9.184 -0.2886  0.1052 -0.1481
  630loPI   C3A10073   7.067   0.899   8.813 -0.2428  0.1346  0.1288
  630loPI   C4A10074   7.027   0.932   8.319  0.0905  0.0161  0.2375
  630loPI   C5A10075   6.677   0.935   8.174 -0.2538 -0.0222  0.0099
  630loPI   C6A10076   6.341   1.166   7.901  0.3171 -0.3463  0.0573
  630loPI   C1B10077   7.314   1.470   9.593  0.0947 -0.1101  0.1545
  630loPI   C2B10078   7.173   1.342   9.166  0.0866  0.1707  0.1601
  630loPI   C3B10079   7.017   1.436   8.742 -0.0076  0.0815  0.4429
  630loPI   C4B10080   7.288   1.752   8.594 -0.0735 -0.0778  0.0157
  631loPI    C110081   8.130   8.470  10.694 -0.1171 -0.1924 -0.0732
  631loPI    C210082   8.242   8.783  10.917  0.0241 -0.1840 -0.1552
  631loPI    C310083   8.190   8.424  11.087 -0.0375 -0.1390 -0.0790
  631loPI   PO410084   7.976   8.524  10.520  0.1996 -0.0194  0.2542
  631loPI   GL110085   7.550   8.326  10.406 -0.0545 -0.3374  0.1347
  631loPI   GL210086   7.392   8.562  10.195 -0.2011  0.1462  0.0832
  631loPI   C1A10087   7.422   8.077  10.014 -0.2487  0.1775 -0.1146
  631loPI   C2A10088   7.360   8.004   9.537  0.0205  0.1405  0.1355
  631loPI   C3A10089   7.398   7.888   9.149 -0.3565  0.1044 -0.1233
  631loPI   C4A10090   7.435   7.924   8.661 -0.2182 -0.0635  0.2785
  631loPI   C5A10091   7.618   7.637   8.217 -0.3046  0.1044 -0.3546
  631loPI   C6A10092   7.821   7.555   7.817 -0.2371  0.1617 -0.1152
  631loPI   C1B10093   7.293   8.457   9.732  0.0259 -0.1501 -0.1631
  631loPI   C2B10094   7.221   8.422   9.253  0.1900  0.1452  0.1030
  631loPI   C3B10095   7.355   8.371   8.903  0.0293 -0.1030  0.0842
  631loPI   C4B10096   7.304   8.378   8.429 -0.0446 -0.0203 -0.0665
  632loPI    C110097  17.399  15.980  10.829  0.1513 -0.2005 -0.0696
  632loPI    C210098  17.040  15.830  10.920  0.1189 -0.0761  0.0101
  632loPI    C310099  17.111  16.220  10.969  0.2091 -0.0685 -0.1753
  632loPI   PO410100  17.481  15.886  10.644  0.0516  0.1687 -0.0887
  632loPI   GL110101  17.772  15.790  10.256  0.1104  0.1459  0.2427
  632loPI   GL210102  17.493  15.604  10.176  0.0983  0.1033 -0.1957
  632loPI   C1A10103  17.980  15.778   9.920  0.0295  0.3262  0.3127
  632loPI   C2A10104  17.999  15.834   9.517 -0.0102  0.2076  0.0515
  632loPI   C3A10105  17.869  15.784   9.156 -0.0744 -0.0834  0.2722
  632loPI   C4A10106  18.015  15.892   8.707 -0.2306 -0.4167 -0.0725
  632loPI   C5A10107  18.034  15.908   8.263  0.1982  0.0898 -0.0568
  632loPI   C6A10108  18.200  15.601   8.019  0.1198 -0.2258 -0.1761
  632loPI   C1B10109  17.471  15.737   9.751 -0.1176 -0.2110  0.0685
  632loPI   C2B10110  17.443  15.672   9.404  0.0910  0.0190  0.3770
  632loPI   C3B10111  17.440  15.629   8.965  0.0578 -0.1699  0.0239
  632loPI   C4B10112  17.474  15.673   8.607 -0.1583 -0.1799  0.0663
  633loPI    C110113   5.562   9.285  11.016  0.0202 -0.1289  0.0968
  633loPI    C210114   5.320   9.013  11.181  0.0048 -0.1343  0.0655
  633loPI    C310115   5.566   9.228  11.412  0.0897 -0.2454  0.0798
  633loPI   PO410116   5.606   9.225  10.711  0.1270  0.2069 -0.0465
  633loPI   GL110117   5.910   9.171  10.257  0.2349  0.1157 -0.2986
  633loPI   GL210118   6.114   9.205  10.286  0.2462  0.0351  0.3839
  633loPI   C1A10119   5.577   9.032   9.936 -0.0537  0.1103  0.0754
  633loPI   C2A10120   5.453   9.052   9.510  0.3593 -0.0024 -0.1013
  633loPI   C3A10121   5.580   9.129   9.023  0.1233  0.3227  0.0038
  633loPI   C4A10122   5.596   9.020   8.586 -0.0032 -0.2499 -0.2367
  633loPI   C5A10123   5.757   9.095   8.085 -0.1578 -0.2259  0.0985
  633loPI   C6A10124   6.155   9.182   7.839 -0.1653 -0.1953 -0.0057
  633loPI   C1B10125   6.022   9.139   9.770 -0.1884  0.0311 -0.4034
  633loPI   C2B10126   6.046   9.060   9.348  0.0357 -0.0910  0.3881
  633loPI   C3B10127   6.147   9.059   8.949 -0.2789 -0.1616  0.2804
  633loPI   C4B10128   6.102   9.048   8.467 -0.0895 -0.1455  0.1140
  634loPI    C110129  16.719   3.078  10.763 -0.0607  0.1635 -0.0703
  634loPI    C210130  16.538   3.273  11.062 -0.1353 -0.0554  0.0298
  634loPI    C310131  16.407   2.912  10.950 -0.0895  0.0115 -0.2494
  634loPI   PO410132  16.740   3.237  10.569  0.0678 -0.0090  0.0564
  634loPI   GL110133  16.881   3.278  10.179  0.2502 -0.1631 -0.1437
  634loPI   GL210134  16.705   3.076  10.045 -0.1391 -0.1158  0.0927
  634loPI   C1A10135  16.788   3.499   9.764  0.0892 -0.0637  0.0506
  634loPI   C2A10136  16.735   3.515   9.398 -0.2934 -0.2544  0.2208
  634loPI   C3A10137  16.730   3.562   8.998  0.0510  0.1409  0.2571
  634loPI   C4A10138  16.726   3.601   8.609 -0.0181 -0.1471 -0.2015
  634loPI   C5A10139  16.691   3.704   8.289  0.0224 -0.0889 -0.0507
  634loPI   C6A10140  16.916   3.746   7.968 -0.0803 -0.2644 -0.0635
  634loPI   C1B10141  16.376   3.222   9.773  0.1142  0.2347  0.1017
  634loPI   C2B10142  16.353   3.264   9.303 -0.0581 -0.1515  0.3269
  634loPI   C3B10143  16.356   3.261   8.816 -0.1343 -0.0472  0.1088
  634loPI   C4B10144  16.420   3.118   8.380 -0.0469 -0.0694  0.1335
  635loPI    C110145  15.478  11.865  11.136  0.1519  0.0682  0.0391
  635loPI    C210146  15.704  12.076  11.390 -0.0688 -0.0846  0.3699
  635loPI    C310147  15.741  11.678  11.371  0.0022 -0.0671  0.1011
  635loPI   PO410148  15.474  11.994  10.920 -0.1898  0.1410  0.4827
  635loPI   GL110149  15.690  12.057  10.580  0.1914  0.2388 -0.0236
  635loPI   GL210150  15.831  12.327  10.486 -0.2705 -0.0572 -0.5211
  635loPI   C1A10151  15.480  12.126  10.149 -0.2169 -0.1400 -0.3554
  635loPI   C2A10152  15.443  12.134   9.744  0.1244 -0.0182  0.3180
  635loPI   C3A10153  15.510  12.185   9.317  0.0392 -0.1439  0.1667
  635loPI   C4A10154  15.464  12.175   8.828  0.1715 -0.0859  0.2646
  635loPI   C5A10155  15.555  12.135   8.326  0.0633 -0.1753  0.3906
  635loPI   C6A10156  15.466  12.138   7.935 -0.0944  0.1662 -0.1264
  635loPI   C1B10157  16.018  12.272  10.117  0.3413  0.1643 -0.0469
  635loPI   C2B10158  15.959  12.211   9.691 -0.3070 -0.0490 -0.1874
  635loPI   C3B10159  15.972  12.291   9.167  0.1257  0.2524  0.0103
  635loPI   C4B10160  15.973  12.302   8.710  0.0613  0.0204  0.0661
  636loPI    C110161   0.251  10.316  11.440 -0.0199  0.2471 -0.2354
  636loPI    C210162   0.555  10.536  11.580  0.2462 -0.2884  0.0582
  636loPI    C310163   0.193  10.562  11.750  0.1946  0.1355 -0.1045
  636loPI   PO410164   0.320  10.293  11.219  0.3522 -0.0510  0.5409
  636loPI   GL110165   0.276  10.335  10.721 -0.2288  0.1575  0.0606
  636loPI   GL210166   0.054  10.461  10.735 -0.3360  0.1942 -0.2863
  636loPI   C1A10167   0.205  10.070  10.400 -0.0475  0.3636  0.0518
  636loPI   C2A10168   0.157   9.965   9.879  0.0193  0.2356  0.1100
  636loPI   C3A10169   0.114  10.129   9.457  0.0405 -0.3106 -0.2917
  636loPI   C4A10170   0.033  10.176   9.020  0.0216 -0.1831 -0.2619
  636loPI   C5A10171   0.198  10.078   8.534 -0.2448  0.4704  0.2556
  636loPI   C6A10172   0.343   9.971   8.046  0.1298 -0.1766  0.0799
  636loPI   C1B10173   0.109  10.488  10.233 -0.1118 -0.2307 -0.1189
  636loPI   C2B10174   0.042  10.544   9.861  0.0198  0.0831  0.2774
  636loPI   C3B10175  -0.028  10.637   9.421 -0.0346 -0.0030  0.0514
  636loPI   C4B10176   0.001  10.763   8.986 -0.1744 -0.1512 -0.0790
  637loPI    C110177   2.987  11.657  10.595  0.1077 -0.0262  0.0423
  637loPI    C210178   3.199  11.849  10.315  0.1042 -0.3871 -0.2147
  637loPI    C310179   3.367  11.554  10.526  0.1834  0.0424  0.3452
  637loPI   PO410180   2.725  11.614  10.409 -0.0227 -0.0528  0.2490
  637loPI   GL110181   2.457  11.424  10.168 -0.2521  0.1051  0.3291
  637loPI   GL210182   2.533  11.126  10.094 -0.1661  0.0554  0.1171
  637loPI   C1A10183   2.181  11.416   9.933  0.0901  0.0080  0.1630
  637loPI   C2A10184   2.039  11.374   9.467 -0.3163 -0.0333 -0.0819
  637loPI   C3A10185   2.127  11.493   9.014  0.1199  0.1039 -0.0068
  637loPI   C4A10186   2.026  11.447   8.618  0.2685  0.0756 -0.1166
  637loPI   C5A10187   1.815  11.102   8.407 -0.1136 -0.1718 -0.0860
  637loPI   C6A10188   1.605  10.943   7.936 -0.1311  0.0868 -0.1056
  637loPI   C1B10189   2.516  11.162   9.666  0.0587  0.2773 -0.0441
  637loPI   C2B10190   2.278  11.013   9.269 -0.2211  0.1322  0.4948
  637loPI   C3B10191   2.390  11.150   8.828 -0.2617  0.1202  0.1820
  637loPI   C4B10192   2.398  11.145   8.500  0.0427 -0.1486 -0.0896
  638loPI    C110193  10.681  13.761  10.860  0.1034 -0.1181  0.0666
  638loPI    C210194  10.470  14.050  10.681  0.2521 -0.1005 -0.0821
  638loPI    C310195  10.591  14.096  11.060 -0.0737 -0.1427  0.0302
  638loPI   PO410196  10.822  13.722  10.711 -0.1806 -0.1325 -0.3967
  638loPI   GL110197  10.901  13.941  10.277 -0.4010  0.1885  0.2974
  638loPI   GL210198  11.285  13.909  10.172 -0.2961 -0.0337 -0.1416
  638loPI   C1A10199  10.835  13.836   9.832 -0.0240  0.0807 -0.1954
  638loPI   C2A10200  10.786  13.901   9.431 -0.0723 -0.0512  0.2821
  638loPI   C3A10201  10.756  13.899   8.992 -0.1728 -0.0844  0.0430
  638loPI   C4A10202  10.810  13.858   8.597 -0.2214 -0.0354  0.1033
  638loPI   C5A10203  10.587  13.902   8.178  0.2033 -0.4877  0.0243
  638loPI   C6A10204  10.196  13.839   8.039  0.1184 -0.0017 -0.1285
  638loPI   C1B10205  11.250  14.013   9.736  0.0438 -0.0598 -0.0442
  638loPI   C2B10206  11.304  14.073   9.279  0.0254  0.4738  0.0486
  638loPI   C3B10207  11.247  13.932   8.878  0.0008  0.1145  0.0376
  638loPI   C4B10208  11.342  14.075   8.509  0.2298  0.0611 -0.2075
  639loPI    C110209  11.962   1.083  10.504 -0.0193 -0.0603 -0.0693
  639loPI    C210210  12.307   1.093  10.706  0.0294 -0.2740 -0.1395
  639loPI    C310211  11.967   1.201  10.886  0.1186 -0.1526 -0.0418
  639loPI   PO410212  12.043   1.177  10.289  0.5271  0.2143 -0.1264
  639loPI   GL110213  12.125   1.108   9.917  0.0810 -0.0161 -0.3187
  639loPI   GL210214  12.289   1.379   9.765  0.1414  0.3284  0.0776
  639loPI   C1A10215  12.111   0.826   9.631  0.1263  0.0242  0.2691
  639loPI   C2A10216  11.841   0.666   9.324 -0.0418 -0.2613 -0.1923
  639loPI   C3A10217  11.799   0.619   8.819  0.1287  0.0469  0.0704
  639loPI   C4A10218  11.679   0.492   8.368  0.0513  0.1245  0.3066
  639loPI   C5A10219  11.608   0.252   7.989 -0.3592  0.1617  0.2626
  639loPI   C6A10220  11.655   0.085   7.538  0.0602  0.3349  0.0853
  639loPI   C1B10221  12.278   1.242   9.325  0.1138 -0.0742 -0.4009
  639loPI   C2B10222  12.316   0.918   9.097  0.0356 -0.0528 -0.0669
  639loPI   C3B10223  12.354   0.770   8.748  0.2596  0.0728 -0.0587
  639loPI   C4B10224  12.183   0.772   8.455 -0.2710 -0.0312  0.3211
  640loPI    C110225  17.234  12.467  10.877 -0.1752  0.2182 -0.0363
  640loPI    C210226  16.947  12.580  11.131 -0.0292  0.0673  0.2005
  640loPI    C310227  17.327  12.564  11.254  0.0413 -0.0231 -0.0246
  640loPI   PO410228  17.127  12.643  10.624 -0.1822  0.2386 -0.0421
  640loPI   GL110229  17.324  12.676  10.294  0.3209 -0.1287  0.1789
  640loPI   GL210230  17.466  12.872  10.396 -0.4306  0.2465  0.2430
  640loPI   C1A10231  17.410  12.762   9.826 -0.0170 -0.4173  0.0591
  640loPI   C2A10232  17.382  12.825   9.440 -0.0278  0.3145  0.1405
  640loPI   C3A10233  17.377  12.750   9.017 -0.1362  0.2218  0.1527
  640loPI   C4A10234  17.505  12.576   8.660  0.0382  0.2915  0.0241
  640loPI   C5A10235  17.745  12.559   8.477  0.1161  0.1767 -0.1833
  640loPI   C6A10236  18.124  12.402   8.112 -0.2725 -0.3351 -0.0252
  640loPI   C1B10237  17.455  13.210  10.108  0.1433 -0.0564  0.2351
  640loPI   C2B10238  17.393  13.278   9.616 -0.2139  0.2201  0.0737
  640loPI   C3B10239  17.534  13.245   9.206 -0.0361 -0.1085  0.2638
  640loPI   C4B10240  17.458  13.245   8.732 -0.0794 -0.2314 -0.0117
  641loPI    C110241  16.471  14.340  10.824 -0.0124 -0.3290 -0.0873
  641loPI    C210242  16.252  14.131  11.085 -0.1815  0.0672  0.0960
  641loPI    C310243  16.450  14.456  11.206  0.1555 -0.0350 -0.1645
  641loPI   PO410244  16.560  14.121  10.645 -0.1007 -0.2443  0.4081
  641loPI   GL110245  16.758  13.996  10.266 -0.0152 -0.0948  0.1938
  641loPI   GL210246  16.678  14.351  10.190  0.3568 -0.1905  0.0650
  641loPI   C1A10247  16.663  13.915   9.853 -0.1003  0.1497  0.2554
  641loPI   C2A10248  16.654  13.914   9.463 -0.0687 -0.2753 -0.2492
  641loPI   C3A10249  16.747  13.944   9.048 -0.0334  0.0080 -0.1167
  641loPI   C4A10250  16.651  13.849   8.654  0.0772  0.0677 -0.0589
  641loPI   C5A10251  16.440  14.009   8.311  0.1411 -0.0324 -0.0393
  641loPI   C6A10252  16.496  13.979   7.856  0.2464  0.1975  0.0242
  641loPI   C1B10253  16.801  14.433   9.776 -0.0789  0.1111 -0.2868
  641loPI   C2B10254  16.797  14.438   9.368 -0.1876 -0.0059  0.2872
  641loPI   C3B10255  16.800  14.461   9.022  0.2204  0.2219  0.1871
  641loPI   C4B10256  16.697  14.377   8.554 -0.1866  0.0253  0.2746
  642loPI    C110257  12.782   6.933  11.056  0.0387  0.0196  0.1033
  642loPI    C210258  12.768   6.672  11.359  0.0502  0.0100  0.0956
  642loPI    C310259  12.897   7.045  11.423  0.4022 -0.0966  0.0292
  642loPI   PO410260  12.586   6.879  10.961 -0.2488  0.2616  0.1058
  642loPI   GL110261  12.393   7.008  10.483 -0.0921  0.0236  0.3308
  642loPI   GL210262  12.612   7.060  10.231  0.0332  0.3066  0.1581
  642loPI   C1A10263  12.166   7.192  10.172 -0.1986 -0.2858  0.0933
  642loPI   C2A10264  12.119   7.242   9.770  0.0664 -0.3379  0.0843
  642loPI   C3A10265  12.002   7.180   9.301 -0.2251  0.0534 -0.2091
  642loPI   C4A10266  12.123   7.423   8.921 -0.0827 -0.0319  0.0622
  642loPI   C5A10267  12.272   7.476   8.477  0.1830 -0.2221  0.0298
  642loPI   C6A10268  12.309   7.692   8.038 -0.1896  0.1928  0.0940
  642loPI   C1B10269  12.577   7.131   9.812 -0.0362 -0.0790  0.0874
  642loPI   C2B10270  12.499   7.019   9.339 -0.0164 -0.2947  0.0934
  642loPI   C3B10271  12.534   7.151   8.899 -0.1190  0.1378 -0.0961
  642loPI   C4B10272  12.307   6.933   8.429  0.0710  0.1622 -0.0080
  643loPI    C110273  16.086   2.425  10.756  0.1686 -0.1974 -0.2212
  643loPI    C210274  16.372   2.302  11.007 -0.0148 -0.0460  0.0671
  643loPI    C310275  15.990   2.203  11.075 -0.1203  0.3645  0.0988
  643loPI   PO410276  16.116   2.608  10.710  0.0442  0.1892 -0.0229
  643loPI   GL110277  15.853   2.800  10.335 -0.0816 -0.0794 -0.2191
  643loPI   GL210278  15.920   3.013  10.099  0.1365 -0.2584 -0.0690
  643loPI   C1A10279  15.624   2.615   9.926  0.2156 -0.1990 -0.0520
  643loPI   C2A10280  15.493   2.538   9.578  0.0583  0.1068 -0.0496
  643loPI   C3A10281  15.638   2.514   9.140 -0.0598  0.2300 -0.3850
  643loPI   C4A10282  15.651   2.419   8.655 -0.2110 -0.1506 -0.2279
  643loPI   C5A10283  15.662   2.548   8.171 -0.0172 -0.0356  0.0743
  643loPI   C6A10284  15.664   2.357   7.806 -0.2480  0.0868  0.1014
  643loPI   C1B10285  16.005   2.962   9.673  0.0020  0.0299 -0.1730
  643loPI   C2B10286  15.916   2.848   9.359 -0.1445 -0.1037  0.0204
  643loPI   C3B10287  16.036   2.844   8.899  0.0785  0.3165  0.3599
  643loPI   C4B10288  15.952   2.790   8.527  0.0648  0.1145  0.0882
  644loPI    C110289  17.822  13.290  10.951 -0.0221  0.0066  0.3295
  644loPI    C210290  17.679  13.340  11.321 -0.3183  0.2187  0.1907
  644loPI    C310291  18.006  13.539  11.204 -0.1318  0.0321  0.3846
  644loPI   PO410292  17.898  13.115  10.890 -0.0932 -0.1882  0.0924
  644loPI   GL110293  17.941  12.862  10.561 -0.2978 -0.2799  0.1422
  644loPI   GL210294  17.956  13.214  10.400  0.2900  0.1619  0.3822
  644loPI   C1A10295  17.881  12.780  10.099 -0.0330 -0.3680 -0.1425
  644loPI   C2A10296  17.867  12.903   9.645 -0.0844 -0.1675  0.0118
  644loPI   C3A10297  17.863  12.887   9.241  0.2982  0.0188  0.1014
  644loPI   C4A10298  17.868  12.911   8.792 -0.3128  0.0178 -0.1938
  644loPI   C5A10299  18.018  13.006   8.373  0.4374 -0.2597 -0.0822
  644loPI   C6A10300  17.897  12.890   8.014 -0.4626  0.2457 -0.0601
  644loPI   C1B10301  17.932  13.422   9.932  0.1538  0.2035  0.1957
  644loPI   C2B10302  17.943  13.353   9.459  0.0922 -0.1338  0.1593
  644loPI   C3B10303  18.076  13.481   9.023  0.1172 -0.3749 -0.0836
  644loPI   C4B10304  18.030  13.531   8.660  0.1086 -0.5283  0.3145
  645loPI    C110305   7.670   7.203  10.974  0.2410  0.2771 -0.0290
  645loPI    C210306   7.888   7.044  11.268 -0.1335  0.0185  0.1164
  645loPI    C310307   7.621   7.330  11.350 -0.1104  0.0746 -0.0022
  645loPI   PO410308   7.749   7.330  10.711 -0.2864  0.0748 -0.0850
  645loPI   GL110309   7.673   7.473  10.310 -0.1351 -0.0299  0.0376
  645loPI   GL210310   7.994   7.536  10.144  0.1392  0.0692 -0.0016
  645loPI   C1A10311   7.539   7.539   9.920 -0.0997 -0.1444  0.2302
  645loPI   C2A10312   7.550   7.489   9.448  0.1476  0.3575  0.1472
  645loPI   C3A10313   7.627   7.408   9.021  0.1551 -0.0498  0.0079
  645loPI   C4A10314   7.534   7.379   8.675 -0.1512 -0.0923  0.2421
  645loPI   C5A10315   7.424   7.158   8.275 -0.0775 -0.1725  0.0424
  645loPI   C6A10316   7.125   6.836   8.375  0.0445 -0.1278  0.4416
  645loPI   C1B10317   7.988   7.454   9.694 -0.2770  0.1139  0.0075
  645loPI   C2B10318   8.021   7.340   9.252 -0.1549  0.0828 -0.0301
  645loPI   C3B10319   8.032   7.241   8.808 -0.3056  0.1403  0.0146
  645loPI   C4B10320   8.326   7.015   8.540 -0.0120 -0.1086 -0.1129
  646loPI    C110321   2.891  16.542  10.449  0.1641  0.1409  0.0558
  646loPI    C210322   2.760  16.293  10.732  0.0207 -0.1498 -0.2593
  646loPI    C310323   2.981  16.611  10.832 -0.1209 -0.1845  0.1858
  646loPI   PO410324   2.683  16.457  10.258 -0.2787 -0.1421  0.0169
  646loPI   GL110325   2.403  16.278  10.115  0.0289  0.0655 -0.0962
  646loPI   GL210326   2.095  16.138  10.067  0.0520 -0.0862  0.1161
  646loPI   C1A10327   2.496  16.291   9.717  0.0531  0.0409  0.1044
  646loPI   C2A10328   2.890  16.387   9.427  0.0661 -0.2384  0.0897
  646loPI   C3A10329   3.228  16.131   9.351  0.0371 -0.1641  0.0235
  646loPI   C4A10330   3.643  16.210   9.552 -0.2301  0.0352 -0.0769
  646loPI   C5A10331   3.722  16.233   9.100 -0.2065  0.3111 -0.3241
  646loPI   C6A10332   3.522  16.253   8.620 -0.0036 -0.1562  0.1745
  646loPI   C1B10333   1.963  16.040   9.680 -0.1462  0.2164  0.0668
  646loPI   C2B10334   2.083  16.070   9.245 -0.2627  0.0477  0.0326
  646loPI   C3B10335   2.119  16.183   8.776  0.1408 -0.1125 -0.0857
  646loPI   C4B10336   2.304  16.127   8.319  0.0210 -0.4045 -0.0714
  647loPI    C110337  17.693  10.671  11.503  0.0486 -0.1238  0.0261
  647loPI    C210338  17.293  10.662  11.506  0.0480 -0.1348 -0.0704
  647loPI    C310339  17.499  10.469  11.789 -0.0163 -0.0168  0.0584
  647loPI   PO410340  17.735  10.562  11.262 -0.4174 -0.0230 -0.2460
  647loPI   GL110341  17.863  10.606  10.813  0.0524 -0.0883 -0.2378
  647loPI   GL210342  17.592  10.426  10.743  0.1091 -0.0053  0.1687
  647loPI   C1A10343  17.939  10.681  10.342  0.1423 -0.0236  0.0453
  647loPI   C2A10344  17.895  10.673   9.922 -0.1080 -0.2057 -0.0197
  647loPI   C3A10345  17.787  10.626   9.489 -0.0337 -0.0438  0.0144
  647loPI   C4A10346  17.883  10.492   8.988 -0.0311 -0.1860  0.1123
  647loPI   C5A10347  17.587  10.475   8.641 -0.0924 -0.4878 -0.1801
  647loPI   C6A10348  17.522  10.295   8.307 -0.1883  0.0987 -0.1284
  647loPI   C1B10349  17.595  10.347  10.234 -0.2570  0.0289 -0.0167
  647loPI   C2B10350  17.507  10.398   9.846 -0.0282 -0.0565  0.0229
  647loPI   C3B10351  17.314  10.352   9.432 -0.1973  0.3040  0.0198
  647loPI   C4B10352  17.295  10.383   9.044 -0.0095 -0.2992  0.1630
  648loPI    C110353   4.254   3.458  10.698 -0.3197 -0.3061  0.0116
  648loPI    C210354   4.282   3.582  11.077 -0.0506 -0.0845 -0.0778
  648loPI    C310355   4.464   3.244  10.964 -0.1201 -0.1440 -0.0131
  648loPI   PO410356   4.275   3.603  10.531  0.1857  0.0802  0.0505
  648loPI   GL110357   4.125   3.567  10.129 -0.1685  0.2865 -0.2322
  648loPI   GL210358   4.452   3.771  10.126 -0.0437 -0.0077  0.1774
  648loPI   C1A10359   4.011   3.505   9.619 -0.0064 -0.0770 -0.0913
  648loPI   C2A10360   3.736   3.799   9.403 -0.1337 -0.1407 -0.0195
  648loPI   C3A10361   3.352   4.055   9.182 -0.1449 -0.0980 -0.0030
  648loPI   C4A10362   3.225   4.304   8.790  0.0485 -0.0643  0.0566
  648loPI   C5A10363   3.205   4.484   8.372 -0.2814 -0.0489  0.4371
  648loPI   C6A10364   2.977   4.628   8.043 -0.1786 -0.0876  0.0331
  648loPI   C1B10365   4.429   3.723   9.669 -0.0922  0.1717  0.0255
  648loPI   C2B10366   4.418   3.768   9.145  0.3189  0.0053  0.2550
  648loPI   C3B10367   4.372   3.801   8.713  0.0672  0.0680  0.1981
  648loPI   C4B10368   4.453   3.538   8.253  0.3032  0.0260  0.1152
  649loPI    C110369  17.268   8.218  11.132 -0.1821 -0.1700  0.0093
  649loPI    C210370  17.647   8.173  11.013 -0.1074  0.3236  0.0398
  649loPI    C310371  17.539   8.065  11.383 -0.0093  0.1416  0.0168
  649loPI   PO410372  17.156   8.137  10.996  0.0261 -0.0284  0.1982
  649loPI   GL110373  17.148   8.132  10.616 -0.0887 -0.0908  0.3822
  649loPI   GL210374  17.351   7.878  10.601  0.0442  0.1560  0.0732
  649loPI   C1A10375  16.945   8.132  10.289 -0.1749 -0.2658  0.0962
  649loPI   C2A10376  16.945   8.282   9.903 -0.2339 -0.0753 -0.1955
  649loPI   C3A10377  16.919   8.196   9.446  0.0886  0.2926  0.1214
  649loPI   C4A10378  16.982   8.261   9.038 -0.3701 -0.0822  0.3606
  649loPI   C5A10379  17.026   8.499   8.762  0.1575  0.2092  0.1061
  649loPI   C6A10380  17.253   8.558   8.404 -0.0946  0.1124 -0.2093
  649loPI   C1B10381  17.418   7.965  10.141 -0.0415 -0.1490 -0.1750
  649loPI   C2B10382  17.342   8.017   9.687 -0.0973 -0.0580 -0.0577
  649loPI   C3B10383  17.389   8.052   9.225 -0.1179 -0.0423 -0.1487
  649loPI   C4B10384  17.498   8.260   8.830  0.0760  0.3042  0.1410
  650loPI    C110385  11.323  13.719  10.791 -0.0994  0.1528 -0.0336
  650loPI    C210386  11.332  13.397  11.029  0.1368  0.0313 -0.2021
  650loPI    C310387  11.195  13.746  11.169 -0.1304 -0.1427 -0.0203
  650loPI   PO410388  11.289  13.588  10.530 -0.1988  0.0327 -0.1492
  650loPI   GL110389  11.070  13.459  10.240 -0.0192  0.0271  0.0980
  650loPI   GL210390  10.787  13.395  10.181  0.0118 -0.1467  0.1648
  650loPI   C1A10391  11.266  13.470   9.888 -0.3222 -0.2809  0.0818
  650loPI   C2A10392  11.218  13.567   9.477  0.0800  0.0029 -0.0811
  650loPI   C3A10393  11.106  13.555   9.153 -0.2667  0.0991  0.0990
  650loPI   C4A10394  11.184  13.475   8.745 -0.0693  0.1823  0.0040
  650loPI   C5A10395  11.267  13.631   8.324  0.0096 -0.0215  0.0284
  650loPI   C6A10396  11.559  13.532   7.968  0.1178  0.1812  0.0081
  650loPI   C1B10397  10.792  13.372   9.701  0.3194  0.0153  0.2117
  650loPI   C2B10398  10.676  13.441   9.304  0.2645  0.0363 -0.1142
  650loPI   C3B10399  10.719  13.331   8.906  0.0342  0.0919  0.1618
  650loPI   C4B10400  10.563  13.438   8.489  0.0585 -0.0156  0.0109
  651loPI    C110401   4.245  16.549  10.622  0.0991  0.0379 -0.1385
  651loPI    C210402   4.406  16.672  10.967 -0.0412 -0.1153 -0.0170
  651loPI    C310403   4.297  16.289  10.922 -0.1185 -0.0732 -0.1950
  651loPI   PO410404   4.092  16.762  10.579  0.2979  0.0285  0.0253
  651loPI   GL110405   4.146  17.047  10.222  0.1028 -0.1285  0.0233
  651loPI   GL210406   3.761  17.018  10.212  0.2423  0.2633  0.0139
  651loPI   C1A10407   4.172  16.989   9.852  0.2504 -0.0328  0.2245
  651loPI   C2A10408   4.182  16.987   9.480  0.0373  0.1481 -0.0650
  651loPI   C3A10409   4.133  16.944   8.977 -0.0053 -0.1081  0.1079
  651loPI   C4A10410   4.218  16.932   8.596 -0.1156  0.0438 -0.0324
  651loPI   C5A10411   4.134  16.970   8.125  0.0809  0.1058 -0.1953
  651loPI   C6A10412   4.179  17.278   7.839  0.0127 -0.3687  0.0182
  651loPI   C1B10413   3.730  16.716   9.808  0.1655 -0.4102 -0.1767
  651loPI   C2B10414   3.811  16.684   9.343 -0.2765 -0.1691 -0.0136
  651loPI   C3B10415   3.671  16.689   8.855 -0.2418 -0.1136 -0.0012
  651loPI   C4B10416   3.659  16.731   8.443  0.0314 -0.0204  0.2197
  652loPI    C110417  10.136  14.918  11.070 -0.2295 -0.1729  0.1289
  652loPI    C210418  10.023  15.045  11.433 -0.0515 -0.0445  0.1408
  652loPI    C310419  10.126  14.663  11.378 -0.2111 -0.0960  0.1937
  652loPI   PO410420  10.062  15.028  10.895 -0.0208  0.1485 -0.1643
  652loPI   GL110421   9.722  14.946  10.610  0.0439  0.2283 -0.2008
  652loPI   GL210422   9.487  15.193  10.540  0.0498  0.0679 -0.0085
  652loPI   C1A10423   9.706  14.905  10.172  0.0708 -0.0108 -0.2715
  652loPI   C2A10424   9.618  14.972   9.796  0.0554 -0.0086  0.0144
  652loPI   C3A10425   9.613  14.974   9.387  0.0087  0.0561 -0.2178
  652loPI   C4A10426   9.565  14.958   8.979 -0.2709  0.1455  0.3070
  652loPI   C5A10427   9.689  14.997   8.589  0.2145 -0.1507  0.2845
  652loPI   C6A10428   9.879  15.034   8.111 -0.0311  0.1277 -0.1978
  652loPI   C1B10429   9.326  15.216  10.104 -0.1960 -0.2111 -0.0835
  652loPI   C2B10430   9.250  15.236   9.670 -0.2558 -0.0773  0.0842
  652loPI   C3B10431   9.223  15.312   9.207  0.1347 -0.2800 -0.1398
  652loPI   C4B10432   9.264  15.257   8.701 -0.2614 -0.0843  0.1515
  653loPI    C110433   9.466  10.037  11.027 -0.1515 -0.0111 -0.0310
  653loPI    C210434   9.559   9.669  10.900 -0.0798  0.0185 -0.0651
  653loPI    C310435   9.567   9.753  11.291  0.0258  0.0173 -0.0667
  653loPI   PO410436   9.531  10.155  10.801  0.0145  0.0187 -0.0020
  653loPI   GL110437   9.571  10.263  10.349  0.2270  0.0125  0.0396
  653loPI   GL210438   9.327   9.968  10.384  0.1473 -0.2055  0.0444
  653loPI   C1A10439   9.458  10.109   9.912  0.0499  0.0596  0.2088
  653loPI   C2A10440   9.490  10.221   9.418 -0.0972  0.1253 -0.0488
  653loPI   C3A10441   9.488  10.192   8.973 -0.1309 -0.1017  0.2119
  653loPI   C4A10442   9.564  10.222   8.526 -0.1674 -0.0395  0.0896
  653loPI   C5A10443   9.601  10.292   8.126  0.2720 -0.1901 -0.3724
  653loPI   C6A10444   9.342  10.108   7.732  0.1133  0.0658 -0.1616
  653loPI   C1B10445   9.004   9.937  10.123  0.0800  0.1786 -0.0761
  653loPI   C2B10446   8.975  10.043   9.660  0.1143 -0.0690  0.1353
  653loPI   C3B10447   8.994  10.060   9.234  0.3584  0.2060 -0.0336
  653loPI   C4B10448   8.890   9.956   8.832 -0.0667  0.4684  0.1685
  654loPI    C110449   8.825   8.020  10.728  0.0270  0.0324 -0.0009
  654loPI    C210450   8.435   8.061  10.805  0.0489  0.1439  0.0525
  654loPI    C310451   8.649   7.784  10.999 -0.0097  0.0621  0.0012
  654loPI   PO410452   8.832   8.134  10.470 -0.0889 -0.3404 -0.2365
  654loPI   GL110453   9.253   8.196  10.178  0.0585  0.0003  0.0259
  654loPI   GL210454   8.879   8.138  10.002 -0.1827 -0.0353 -0.1681
  654loPI   C1A10455   9.292   7.837   9.822 -0.1669 -0.1021  0.1617
  654loPI   C2A10456   9.165   7.614   9.430  0.0586 -0.1451 -0.0250
  654loPI   C3A10457   9.000   7.486   9.003 -0.1755  0.0443  0.2032
  654loPI   C4A10458   9.027   7.381   8.614 -0.0976 -0.1787 -0.0482
  654loPI   C5A10459   8.753   7.272   8.271 -0.1832  0.0246  0.1957
  654loPI   C6A10460   8.557   7.058   7.881 -0.0012  0.2024  0.3784
  654loPI   C1B10461   8.874   7.939   9.630  0.3190  0.0458  0.3596
  654loPI   C2B10462   8.806   7.889   9.175 -0.0014  0.0451  0.0552
  654loPI   C3B10463   8.747   7.903   8.762 -0.2155  0.1417 -0.1737
  654loPI   C4B10464   8.609   7.837   8.372 -0.0054  0.2602  0.0178
  655loPI    C110465  10.362  10.489  10.552  0.0870 -0.2375 -0.0362
  655loPI    C210466  10.034  10.305  10.689  0.0368 -0.2195 -0.1312
  655loPI    C310467  10.358  10.338  10.922 -0.1822  0.1571  0.1292
  655loPI   PO410468  10.414  10.412  10.295  0.0669  0.2039  0.1198
  655loPI   GL110469  10.243  10.573   9.958 -0.0508  0.1037  0.2357
  655loPI   GL210470  10.200  10.784   9.882 -0.1560 -0.1187  0.0173
  655loPI   C1A10471  10.453  10.480   9.634  0.0466  0.0738 -0.1241
  655loPI   C2A10472  10.465  10.499   9.179 -0.0676 -0.0539 -0.2625
  655loPI   C3A10473  10.496  10.493   8.786 -0.1583  0.0149 -0.2080
  655loPI   C4A10474  10.614  10.415   8.321  0.0502 -0.3392  0.4213
  655loPI   C5A10475  10.397  10.276   8.028  0.0126 -0.2733  0.0306
  655loPI   C6A10476  10.051  10.213   7.865  0.2552 -0.1170  0.0772
  655loPI   C1B10477  10.130  10.803   9.515  0.1755  0.1124 -0.2491
  655loPI   C2B10478  10.074  10.922   9.081  0.3346  0.0123  0.0234
  655loPI   C3B10479   9.970  10.965   8.589 -0.4636  0.0487 -0.2685
  655loPI   C4B10480   9.827  10.896   8.131 -0.3352  0.1121  0.1998
  656loPI    C110481  12.176  13.341  10.798 -0.0406  0.0497  0.2802
  656loPI    C210482  12.208  12.986  10.617 -0.2130  0.2039 -0.0646
  656loPI    C310483  12.391  13.050  10.967  0.0779 -0.1215 -0.1514
  656loPI   PO410484  12.270  13.528  10.510  0.0691 -0.1135 -0.1779
  656loPI   GL110485  12.234  13.824  10.155  0.2517 -0.2668  0.4610
  656loPI   GL210486  12.499  13.467  10.079 -0.0329 -0.2350 -0.1295
  656loPI   C1A10487  12.180  13.853   9.725  0.0728  0.1517 -0.0116
  656loPI   C2A10488  12.171  13.834   9.328  0.1514 -0.0010 -0.3179
  656loPI   C3A10489  12.147  13.892   8.911 -0.0289  0.0750  0.1194
  656loPI   C4A10490  12.194  13.894   8.483  0.1648  0.1670  0.1428
  656loPI   C5A10491  12.122  13.645   8.113  0.0192 -0.1391 -0.0554
  656loPI   C6A10492  12.037  13.674   7.655 -0.0697  0.1453 -0.2339
  656loPI   C1B10493  12.566  13.529   9.561  0.0381 -0.0897 -0.0347
  656loPI   C2B10494  12.557  13.543   9.210  0.1633 -0.3498  0.0464
  656loPI   C3B10495  12.549  13.598   8.769 -0.1411  0.2475  0.1401
  656loPI   C4B10496  12.560  13.564   8.328  0.0564  0.2302 -0.1072
  657loPI    C110497  13.119  17.589  11.097  0.0323  0.1468  0.0488
  657loPI    C210498  12.803  17.595  11.343 -0.0561 -0.2611 -0.0478
  657loPI    C310499  13.121  17.367  11.430  0.0417 -0.1678 -0.1567
  657loPI   PO410500  13.111  17.501  10.892  0.1244 -0.0104 -0.1177
  657loPI   GL110501  13.020  17.482  10.498 -0.0524  0.1496 -0.1395
  657loPI   GL210502  13.091  17.200  10.329 -0.2113  0.0057 -0.3978
  657loPI   C1A10503  12.781  17.615  10.011  0.3043  0.0165 -0.0984
  657loPI   C2A10504  12.870  17.552   9.569  0.0993  0.1252  0.0274
  657loPI   C3A10505  12.836  17.351   9.268 -0.0822 -0.0963 -0.1303
  657loPI   C4A10506  12.905  17.349   8.797  0.1167  0.1756 -0.0234
  657loPI   C5A10507  13.185  17.250   8.491  0.0681 -0.2914 -0.3842
  657loPI   C6A10508  13.608  17.207   8.217 -0.4092  0.3043  0.0518
  657loPI   C1B10509  13.115  17.186   9.861 -0.0784  0.3843  0.0476
  657loPI   C2B10510  13.180  17.032   9.523  0.1060  0.4647 -0.3207
  657loPI   C3B10511  13.274  17.084   9.037 -0.0720  0.1315 -0.0086
  657loPI   C4B10512  13.671  17.007   8.729  0.3336  0.2406  0.0507
  658loPI    C110513  14.657  10.311  11.169  0.0478 -0.0735 -0.2116
  658loPI    C210514  15.047  10.316  11.261 -0.0436  0.1458  0.1874
  658loPI    C310515  14.783  10.164  11.519 -0.2283  0.0221 -0.0695
  658loPI   PO410516  14.741  10.364  10.870 -0.0482 -0.1145  0.1400
  658loPI   GL110517  14.911  10.661  10.503  0.0054  0.3375  0.2893
  658loPI   GL210518  15.222  10.642  10.505 -0.1837  0.0474  0.1200
  658loPI   C1A10519  14.837  10.529  10.010 -0.0997  0.1176  0.0094
  658loPI   C2A10520  14.818  10.526   9.522  0.1324 -0.0673  0.1309
  658loPI   C3A10521  14.826  10.468   9.084  0.0778  0.0991  0.1114
  658loPI   C4A10522  15.109  10.655   8.772 -0.4397  0.1942 -0.0243
  658loPI   C5A10523  15.083  10.889   8.389  0.0248  0.2025  0.0819
  658loPI   C6A10524  15.116  11.398   8.320  0.0221 -0.3399  0.0671
  658loPI   C1B10525  15.250  10.778  10.095 -0.0842 -0.0529  0.0189
  658loPI   C2B10526  15.257  10.829   9.651 -0.0186 -0.0561 -0.0872
  658loPI   C3B10527  15.191  11.030   9.191  0.0384 -0.2989 -0.2053
  658loPI   C4B10528  15.260  11.214   8.783 -0.0045  0.0651 -0.0085
  659loPI    C110529   9.198   1.306  10.789  0.0569  0.0967  0.0356
  659loPI    C210530   9.095   1.388  11.167 -0.2093 -0.0219 -0.0086
  659loPI    C310531   9.426   1.176  11.091 -0.1121  0.0694  0.1529
  659loPI   PO410532   8.900   1.254  10.587  0.0439 -0.0432 -0.0297
  659loPI   GL110533   8.787   1.254  10.094  0.1727 -0.0209 -0.3525
  659loPI   GL210534   8.915   1.472  10.038 -0.0749 -0.1669 -0.2996
  659loPI   C1A10535   8.707   1.016   9.661  0.1936 -0.0470  0.0741
  659loPI   C2A10536   8.659   1.178   9.195 -0.2712 -0.0939 -0.0791
  659loPI   C3A10537   8.941   1.092   8.813  0.0016 -0.1833  0.2776
  659loPI   C4A10538   9.093   1.088   8.397  0.0274 -0.1880  0.1693
  659loPI   C5A10539   9.285   0.848   8.078  0.1707 -0.0235  0.0054
  659loPI   C6A10540   9.442   0.475   7.787  0.0343  0.0069  0.0226
  659loPI   C1B10541   8.790   1.495   9.598 -0.1601  0.3193 -0.2315
  659loPI   C2B10542   8.408   1.598   9.282  0.0880 -0.2179  0.0924
  659loPI   C3B10543   7.959   1.591   9.323 -0.0008  0.0250  0.2404
  659loPI   C4B10544   7.577   1.641   9.143 -0.0979  0.0376  0.3221
  660loPI    C110545  15.018  14.812  10.812  0.1399  0.1162  0.2996
  660loPI    C210546  15.317  14.558  10.734 -0.0973 -0.0318 -0.1666
  660loPI    C310547  15.226  14.651  11.113  0.2673 -0.3066 -0.0058
  660loPI   PO410548  14.843  14.720  10.703  0.0200  0.3321 -0.1673
  660loPI   GL110549  14.451  14.837  10.462 -0.0593 -0.4768 -0.0609
  660loPI   GL210550  14.125  14.795  10.291 -0.1003  0.1039  0.0213
  660loPI   C1A10551  14.613  14.853  10.097 -0.2662 -0.0836 -0.1360
  660loPI   C2A10552  14.545  14.646   9.729  0.0471 -0.1373 -0.0674
  660loPI   C3A10553  14.535  14.653   9.307  0.2094 -0.1815  0.0677
  660loPI   C4A10554  14.571  14.650   8.914  0.1790  0.0133 -0.4314
  660loPI   C5A10555  14.748  14.730   8.457  0.0914  0.0491 -0.1396
  660loPI   C6A10556  14.760  14.531   8.129 -0.0238  0.2461  0.1108
  660loPI   C1B10557  13.969  14.616   9.885 -0.2594 -0.2418  0.2438
  660loPI   C2B10558  14.023  14.560   9.431 -0.1797  0.1237  0.0060
  660loPI   C3B10559  14.026  14.503   9.063 -0.1567 -0.0838  0.0346
  660loPI   C4B10560  14.034  14.544   8.630 -0.1653 -0.0247 -0.1750
  661loPI    C110561   3.700   6.071  11.094  0.0599  0.1397 -0.0635
  661loPI    C210562   3.626   6.441  10.961  0.2455  0.2002 -0.0022
  661loPI    C310563   3.384   6.273  11.232 -0.0041  0.1639 -0.2418
  661loPI   PO410564   3.966   6.033  11.019  0.0461  0.2062 -0.2327
  661loPI   GL110565   4.087   6.018  10.572 -0.1292 -0.0653  0.0302
  661loPI   GL210566   3.913   6.238  10.458 -0.1565 -0.1343 -0.0764
  661loPI   C1A10567   4.386   6.023  10.262  0.0133 -0.1582  0.1646
  661loPI   C2A10568   4.442   6.080   9.821 -0.2319  0.2390  0.5036
  661loPI   C3A10569   4.428   5.982   9.341  0.2642 -0.0617  0.4580
  661loPI   C4A10570   4.497   6.111   8.900  0.1889  0.0755  0.0616
  661loPI   C5A10571   4.448   6.065   8.504 -0.0648  0.1513  0.4665
  661loPI   C6A10572   4.199   5.852   8.188  0.0719  0.1818 -0.1911
  661loPI   C1B10573   3.958   6.104   9.955 -0.1740  0.0174 -0.0301
  661loPI   C2B10574   3.861   6.074   9.534  0.2264  0.0207 -0.3120
  661loPI   C3B10575   3.995   6.125   9.075 -0.2589 -0.3415 -0.2021
  661loPI   C4B10576   3.977   6.074   8.686 -0.1423  0.2395 -0.1978
  662loPI    C110577   9.960   7.902  10.857 -0.0349 -0.1220  0.0823
  662loPI    C210578   9.633   7.680  10.919 -0.2576  0.1493 -0.0957
  662loPI    C310579   9.714   7.990  11.159 -0.0687  0.0154  0.0159
  662loPI   PO410580  10.233   7.667  10.793 -0.4390 -0.1784 -0.1036
  662loPI   GL110581  10.457   7.546  10.320 -0.1149  0.2072 -0.0054
  662loPI   GL210582  10.417   7.746  10.329 -0.0905 -0.2105  0.0413
  662loPI   C1A10583  10.532   7.409   9.936 -0.0576  0.0339 -0.0213
  662loPI   C2A10584  10.612   7.373   9.512 -0.1863 -0.1673  0.1744
  662loPI   C3A10585  10.568   7.365   9.029 -0.1183 -0.2313 -0.2682
  662loPI   C4A10586  10.659   7.541   8.604 -0.1659  0.0017 -0.0083
  662loPI   C5A10587  10.581   7.842   8.413 -0.1934 -0.1059 -0.2249
  662loPI   C6A10588  10.073   7.998   8.438 -0.0104 -0.2715 -0.0388
  662loPI   C1B10589  10.697   7.925  10.089 -0.0170 -0.0063  0.1951
  662loPI   C2B10590  10.720   8.212   9.765  0.0854 -0.1445  0.0339
  662loPI   C3B10591  10.971   8.322   9.485  0.2506 -0.1996  0.1119
  662loPI   C4B10592  11.122   8.306   9.094  0.3394 -0.1189  0.0825
  663loPI    C110593  14.971   5.132  11.069  0.2307  0.2819 -0.1256
  663loPI    C210594  15.043   5.365  11.386  0.2413 -0.0788  0.1423
  663loPI    C310595  14.936   4.983  11.438 -0.0562 -0.0605 -0.2854
  663loPI   PO410596  14.801   5.266  10.898  0.1710 -0.1072  0.0166
  663loPI   GL110597  14.664   5.362  10.456 -0.3220  0.2496  0.2391
  663loPI   GL210598  14.578   5.243  10.227  0.2955 -0.1359  0.2852
  663loPI   C1A10599  14.652   5.709  10.002 -0.1121  0.2090 -0.0777
  663loPI   C2A10600  14.536   5.800   9.588 -0.1514  0.2920  0.0102
  663loPI   C3A10601  14.461   5.890   9.166  0.0821 -0.0665  0.1681
  663loPI   C4A10602  14.472   5.854   8.647  0.0409  0.0125 -0.0334
  663loPI   C5A10603  14.498   5.839   8.247  0.1251  0.0030 -0.2168
  663loPI   C6A10604  14.376   6.031   7.880 -0.0286  0.1995 -0.0748
  663loPI   C1B10605  14.499   5.268   9.774  0.1003  0.0470  0.1314
  663loPI   C2B10606  14.612   5.204   9.420 -0.0702 -0.2063  0.0283
  663loPI   C3B10607  14.687   5.310   8.997  0.0440 -0.1014  0.0857
  663loPI   C4B10608  14.576   5.380   8.556  0.0629  0.0189 -0.1255
  664loPI    C110609   3.674  16.556  10.766 -0.2815  0.0024 -0.2588
  664loPI    C210610   3.403  16.399  11.014  0.1054  0.0062  0.1807
  664loPI    C310611   3.773  16.250  11.002  0.1661  0.1742 -0.2147
  664loPI   PO410612   3.416  16.673  10.547  0.2511  0.0726 -0.2348
  664loPI   GL110613   3.159  16.624  10.101  0.2395 -0.2073  0.1371
  664loPI   GL210614   3.278  16.883  10.071 -0.3823  0.0844  0.0215
  664loPI   C1A10615   3.307  16.622   9.616 -0.0504  0.1837 -0.1784
  664loPI   C2A10616   3.326  16.583   9.138  0.1410 -0.1921 -0.1382
  664loPI   C3A10617   3.026  16.432   8.923  0.1072  0.1512 -0.0477
  664loPI   C4A10618   3.142  16.562   8.539 -0.1928  0.1776  0.1656
  664loPI   C5A10619   3.355  16.402   8.166  0.4177  0.2458  0.2111
  664loPI   C6A10620   3.217  16.425   7.648  0.2246 -0.0914  0.0386
  664loPI   C1B10621   3.215  17.135   9.745 -0.0734  0.4761 -0.0905
  664loPI   C2B10622   3.269  17.026   9.340  0.0372  0.0870 -0.1140
  664loPI   C3B10623   3.222  17.040   8.855  0.1169 -0.1313 -0.2711
  664loPI   C4B10624   3.255  17.006   8.408  0.0608  0.1895 -0.1823
  665loPI    C110625   3.219   8.029  10.789  0.0639 -0.1126 -0.0562
  665loPI    C210626   3.282   7.917  11.168 -0.0092  0.0650  0.0098
  665loPI    C310627   3.451   8.252  11.027 -0.0424  0.0390 -0.0928
  665loPI   PO410628   3.048   7.772  10.666 -0.2861  0.1347 -0.1586
  665loPI   GL110629   3.028   7.478  10.395  0.1180 -0.0409  0.0586
  665loPI   GL210630   2.781   7.375  10.292  0.0962  0.0573  0.0370
  665loPI   C1A10631   3.052   7.592   9.883  0.2610 -0.1551 -0.0978
  665loPI   C2A10632   3.261   7.554   9.486  0.0325 -0.0655  0.0774
  665loPI   C3A10633   3.250   7.500   9.106  0.0032  0.1998 -0.2909
  665loPI   C4A10634   3.244   7.518   8.719 -0.1877  0.2079 -0.3115
  665loPI   C5A10635   3.238   7.483   8.245  0.0029  0.2408 -0.1349
  665loPI   C6A10636   2.927   7.206   7.975  0.3505 -0.2570  0.0293
  665loPI   C1B10637   2.814   7.126   9.995 -0.0679 -0.0043  0.0084
  665loPI   C2B10638   2.938   7.145   9.646 -0.0490 -0.1000 -0.2290
  665loPI   C3B10639   2.926   7.032   9.235  0.0320 -0.1925 -0.3463
  665loPI   C4B10640   3.064   7.064   8.881 -0.1214  0.1589 -0.4077
  666loPI    C110641  13.077  16.208  10.861  0.0656  0.2231  0.0561
  666loPI    C210642  12.880  15.976  11.121 -0.1139  0.1168 -0.1711
  666loPI    C310643  13.245  16.113  11.211  0.1101 -0.4725 -0.1392
  666loPI   PO410644  12.839  16.426  10.756  0.0823  0.2121 -0.0344
  666loPI   GL110645  12.692  16.328  10.287  0.1834  0.0670 -0.1389
  666loPI   GL210646  12.987  16.180  10.321  0.2557 -0.0829 -0.1361
  666loPI   C1A10647  12.475  16.453   9.901  0.2047  0.4860  0.0875
  666loPI   C2A10648  12.552  16.323   9.481  0.0146  0.2702  0.1358
  666loPI   C3A10649  12.605  16.395   9.043  0.1125  0.0429 -0.0781
  666loPI   C4A10650  12.793  16.387   8.641 -0.2681  0.0369  0.1375
  666loPI   C5A10651  13.151  16.325   8.244 -0.2888 -0.0921  0.0971
  666loPI   C6A10652  13.122  15.996   8.042 -0.0538 -0.0129 -0.2547
  666loPI   C1B10653  12.928  16.188   9.811 -0.2504 -0.1673 -0.0155
  666loPI   C2B10654  12.974  16.109   9.326  0.0768  0.1985  0.0070
  666loPI   C3B10655  13.130  16.035   8.911  0.0948  0.2304  0.0018
  666loPI   C4B10656  13.442  16.082   8.624  0.0363  0.0450  0.0134
  667loPI    C110657  14.162   0.320  10.801  0.0519  0.0812  0.0363
  667loPI    C210658  14.381   0.061  11.013 -0.0830  0.0323  0.1170
  667loPI    C310659  13.995   0.116  11.102 -0.1897 -0.1244 -0.2317
  667loPI   PO410660  14.233   0.252  10.541 -0.1530 -0.3463 -0.0738
  667loPI   GL110661  14.327   0.315  10.180 -0.0448  0.1723 -0.0121
  667loPI   GL210662  14.317   0.653  10.094 -0.1083  0.3138  0.1536
  667loPI   C1A10663  14.284   0.309   9.718 -0.0186  0.1784  0.0026
  667loPI   C2A10664  14.401   0.326   9.298 -0.0231  0.1784 -0.0608
  667loPI   C3A10665  14.151   0.238   8.893 -0.1487 -0.1643  0.1386
  667loPI   C4A10666  13.878   0.395   8.564  0.1445 -0.0075 -0.2031
  667loPI   C5A10667  13.794   0.510   8.203 -0.3367  0.1431 -0.1832
  667loPI   C6A10668  13.747   0.521   7.706  0.0794  0.2888  0.1970
  667loPI   C1B10669  14.499   0.770   9.718 -0.0322 -0.1417 -0.2271
  667loPI   C2B10670  14.666   0.729   9.197 -0.2487 -0.2499  0.3140
  667loPI   C3B10671  14.709   0.954   8.801  0.0373 -0.1943 -0.1733
  667loPI   C4B10672  14.860   0.670   8.450 -0.0018 -0.0121  0.4195
  668loPI    C110673   1.236  11.565  11.282  0.1243 -0.0064  0.1721
  668loPI    C210674   0.989  11.601  11.595  0.1544 -0.2369  0.2245
  668loPI    C310675   1.183  11.257  11.532  0.0621 -0.2316 -0.1129
  668loPI   PO410676   1.090  11.600  11.066  0.1575  0.1785  0.2937
  668loPI   GL110677   1.120  11.578  10.659 -0.2884 -0.2616 -0.4582
  668loPI   GL210678   1.084  11.255  10.591  0.0090 -0.0419  0.0090
  668loPI   C1A10679   0.860  11.812  10.315 -0.1869 -0.0690  0.3653
  668loPI   C2A10680   0.747  12.222  10.177 -0.1454 -0.0469 -0.0809
  668loPI   C3A10681   0.812  12.363   9.776  0.0405 -0.1465  0.1703
  668loPI   C4A10682   0.810  12.375   9.268  0.0877  0.0016  0.2204
  668loPI   C5A10683   0.797  12.393   8.702  0.0383  0.0293  0.0106
  668loPI   C6A10684   0.638  12.494   8.319  0.0645 -0.0334  0.1770
  668loPI   C1B10685   1.028  11.033  10.206 -0.0516 -0.2063 -0.1563
  668loPI   C2B10686   0.897  10.966   9.856  0.2923  0.0717  0.4735
  668loPI   C3B10687   1.035  10.667   9.670 -0.5312  0.2787 -0.2894
  668loPI   C4B10688   0.896  10.570   9.261  0.1380  0.2454 -0.3246
  669loPI    C110689   6.666  17.787  10.687  0.0991 -0.1436 -0.0647
  669loPI    C210690   6.743  17.412  10.802  0.0532 -0.1290  0.0149
  669loPI    C310691   6.669  17.694  11.076 -0.1666 -0.1177 -0.0544
  669loPI   PO410692   6.650  17.782  10.421  0.1591 -0.0520  0.1125
  669loPI   GL110693   6.493  18.055  10.182  0.2539  0.0795  0.3155
  669loPI   GL210694   6.346  18.333  10.157 -0.1021 -0.0714 -0.0107
  669loPI   C1A10695   6.616  18.093   9.839  0.2020  0.0204 -0.1854
  669loPI   C2A10696   6.517  18.040   9.399 -0.1493 -0.1611 -0.1409
  669loPI   C3A10697   6.504  17.994   8.940 -0.4158  0.2187 -0.1155
  669loPI   C4A10698   6.545  18.003   8.554 -0.0313  0.3091 -0.0063
  669loPI   C5A10699   6.569  18.272   8.251 -0.0295 -0.3381  0.1294
  669loPI   C6A10700   6.690  18.648   8.134 -0.3309  0.0498  0.1685
  669loPI   C1B10701   6.135  18.369   9.808  0.1911 -0.1954  0.5685
  669loPI   C2B10702   6.113  18.276   9.323  0.3828  0.1886 -0.2198
  669loPI   C3B10703   6.074  18.348   8.942 -0.3841  0.0092  0.0451
  669loPI   C4B10704   6.117  18.399   8.535  0.0235 -0.2648 -0.1681
  670loPI    C110705   4.992  15.298  10.198  0.0482 -0.3620 -0.1278
  670loPI    C210706   5.362  15.349  10.339 -0.1210  0.0363  0.1933
  670loPI    C310707   5.188  14.989  10.360  0.2226 -0.1403  0.0913
  670loPI   PO410708   4.921  15.505  10.220 -0.1981 -0.1325 -0.0927
  670loPI   GL110709   4.713  15.649   9.868 -0.3358  0.1632  0.5304
  670loPI   GL210710   4.947  15.876   9.816  0.0616 -0.1699  0.1032
  670loPI   C1A10711   4.599  15.647   9.553 -0.2187  0.1919 -0.1269
  670loPI   C2A10712   4.491  15.610   9.042  0.0758  0.1883  0.1623
  670loPI   C3A10713   4.632  15.582   8.627 -0.2472 -0.1729  0.0662
  670loPI   C4A10714   4.716  15.498   8.278 -0.1508 -0.0699  0.0072
  670loPI   C5A10715   4.848  15.470   7.726 -0.4308 -0.2536  0.1224
  670loPI   C6A10716   4.676  15.571   7.355 -0.0101 -0.1842  0.1299
  670loPI   C1B10717   4.983  15.838   9.392  0.2692 -0.0159  0.1009
  670loPI   C2B10718   4.990  15.830   8.968  0.1301 -0.0458 -0.3780
  670loPI   C3B10719   5.130  15.756   8.648 -0.2865 -0.1527  0.2442
  670loPI   C4B10720   5.483  15.497   8.553  0.3685  0.3492  0.0520
  671loPI    C110721   0.244  15.732  10.758  0.1717  0.3110  0.0713
  671loPI    C210722   0.364  15.405  10.955  0.0060  0.1860 -0.0335
  671loPI    C310723   0.396  15.765  11.127  0.2483  0.1228  0.0573
  671loPI   PO410724   0.329  15.698  10.525  0.1838 -0.0823 -0.3348
  671loPI   GL110725   0.236  15.753  10.141 -0.1180  0.3581  0.0691
  671loPI   GL210726   0.467  15.583  10.063 -0.0444 -0.1186  0.1008
  671loPI   C1A10727   0.114  15.965   9.809 -0.0345  0.1359  0.1744
  671loPI   C2A10728   0.096  15.930   9.278 -0.0387  0.0970 -0.2210
  671loPI   C3A10729   0.161  16.004   8.763  0.0997  0.1253  0.3191
  671loPI   C4A10730   0.264  15.773   8.415  0.0768  0.0134 -0.0053
  671loPI   C5A10731   0.382  15.332   8.171  0.3551 -0.1149 -0.2660
  671loPI   C6A10732   0.544  15.220   7.749 -0.2430 -0.1627 -0.0229
  671loPI   C1B10733   0.454  15.569   9.675  0.1756 -0.1299 -0.2327
  671loPI   C2B10734   0.564  15.580   9.305 -0.2171  0.1097  0.2496
  671loPI   C3B10735   0.526  15.636   8.870 -0.0952 -0.0937 -0.1251
  671loPI   C4B10736   0.748  15.595   8.479  0.1367 -0.2896 -0.0557
  672loPI    C110737   2.469   2.598  10.707 -0.0669  0.0400 -0.1093
  672loPI    C210738   2.574   2.261  10.895 -0.1930 -0.1420 -0.3598
  672loPI    C310739   2.255   2.469  11.020  0.0854  0.0750  0.0105
  672loPI   PO410740   2.473   2.540  10.440 -0.1539 -0.4075 -0.0867
  672loPI   GL110741   2.411   2.737  10.078  0.0732 -0.1219  0.0924
  672loPI   GL210742   2.685   2.634  10.001  0.0789 -0.2849  0.0741
  672loPI   C1A10743   2.305   3.085   9.786  0.0427 -0.4333 -0.2292
  672loPI   C2A10744   2.249   3.237   9.321  0.1884  0.1079 -0.0039
  672loPI   C3A10745   1.974   3.029   8.993 -0.2909 -0.2036  0.2638
  672loPI   C4A10746   1.753   2.844   8.688 -0.2152 -0.1764 -0.0605
  672loPI   C5A10747   1.708   3.089   8.263 -0.3304 -0.1523  0.1359
  672loPI   C6A10748   1.566   3.533   8.137 -0.5104  0.1041  0.0287
  672loPI   C1B10749   2.648   2.473   9.618  0.0733 -0.2732  0.0633
  672loPI   C2B10750   2.743   2.347   9.197  0.3695  0.2199 -0.2122
  672loPI   C3B10751   2.855   2.634   8.817 -0.1824  0.0722 -0.2429
  672loPI   C4B10752   3.210   2.828   8.550 -0.1200  0.0782  0.1100
  673loPI    C110753   1.716  11.750  11.134 -0.0674 -0.0806  0.1421
  673loPI    C210754   1.946  11.448  11.262 -0.0122 -0.0231  0.1793
  673loPI    C310755   1.692  11.627  11.514 -0.2052 -0.1828  0.1008
  673loPI   PO410756   1.582  11.607  10.933 -0.1252  0.1023 -0.2150
  673loPI   GL110757   1.514  11.910  10.698  0.0118  0.0601  0.4673
  673loPI   GL210758   1.742  12.064  10.642 -0.0588  0.1823 -0.0985
  673loPI   C1A10759   1.355  11.902  10.320 -0.1722 -0.0907 -0.0796
  673loPI   C2A10760   1.218  11.976   9.935 -0.0147 -0.2641 -0.3390
  673loPI   C3A10761   1.180  12.077   9.560  0.1098  0.0234  0.0272
  673loPI   C4A10762   1.243  12.050   9.093  0.0289  0.2493  0.1479
  673loPI   C5A10763   1.216  11.971   8.654  0.2496 -0.0011  0.1067
  673loPI   C6A10764   0.825  11.905   8.362 -0.3154 -0.1416 -0.0915
  673loPI   C1B10765   1.787  12.176  10.223 -0.0329 -0.0851 -0.1846
  673loPI   C2B10766   1.661  12.185   9.822 -0.1198  0.1508 -0.0281
  673loPI   C3B10767   1.653  12.254   9.413 -0.1525  0.3007 -0.0634
  673loPI   C4B10768   1.669  12.200   8.921 -0.1525  0.0935  0.0030
  674loPI    C110769   6.445  14.449  10.664  0.0577  0.0880  0.0128
  674loPI    C210770   6.449  14.138  10.412 -0.1489  0.0866  0.0094
  674loPI    C310771   6.646  14.116  10.759  0.0015  0.0273 -0.0784
  674loPI   PO410772   6.510  14.649  10.545  0.1860 -0.1122  0.0997
  674loPI   GL110773   6.847  14.693  10.164 -0.2313 -0.1041  0.0932
  674loPI   GL210774   6.684  14.533  10.019 -0.1075 -0.2612  0.0638
  674loPI   C1A10775   6.876  15.026   9.895 -0.2446 -0.1372 -0.2764
  674loPI   C2A10776   6.718  15.100   9.420  0.0542  0.2445 -0.2603
  674loPI   C3A10777   6.470  15.042   9.106 -0.1550  0.1705 -0.0864
  674loPI   C4A10778   6.583  15.208   8.660 -0.0929 -0.0231  0.1161
  674loPI   C5A10779   6.504  15.326   8.241 -0.0240 -0.0683 -0.1660
  674loPI   C6A10780   6.177  15.537   8.045 -0.3260  0.1155  0.2078
  674loPI   C1B10781   6.693  14.600   9.629 -0.0654  0.0553  0.1483
  674loPI   C2B10782   6.593  14.461   9.224  0.1751 -0.0031  0.1369
  674loPI   C3B10783   6.431  14.477   8.795 -0.0753  0.2443  0.1228
  674loPI   C4B10784   6.353  14.349   8.348 -0.2368 -0.0728  0.2650
  675loPI    C110785   1.535   4.915  10.841 -0.0503 -0.2361 -0.0476
  675loPI    C210786   1.372   4.710  11.143 -0.0485 -0.1725 -0.0032
  675loPI    C310787   1.680   4.956  11.211 -0.2806  0.1207  0.0079
  675loPI   PO410788   1.429   4.674  10.667 -0.2440  0.1115 -0.3142
  675loPI   GL110789   1.277   4.465  10.324 -0.3856 -0.0974  0.1163
  675loPI   GL210790   1.542   4.611  10.141  0.0825  0.0501  0.0004
  675loPI   C1A10791   1.131   4.399   9.999  0.2121  0.2487 -0.2092
  675loPI   C2A10792   0.967   4.521   9.592  0.2133 -0.1756  0.3040
  675loPI   C3A10793   0.983   4.590   9.115  0.2029  0.1871 -0.1282
  675loPI   C4A10794   1.060   4.593   8.740  0.2184  0.1330 -0.0867
  675loPI   C5A10795   1.090   4.926   8.476  0.0607  0.0442  0.0624
  675loPI   C6A10796   0.779   4.945   8.169  0.2653  0.0554 -0.0813
  675loPI   C1B10797   1.313   4.807   9.777  0.0686  0.2592  0.0455
  675loPI   C2B10798   1.391   4.857   9.372 -0.1346 -0.0245  0.2935
  675loPI   C3B10799   1.345   4.938   8.933  0.1589  0.1929  0.1574
  675loPI   C4B10800   1.622   4.943   8.531  0.0100  0.0032 -0.0932
  676loPI    C110801  16.622  11.966  11.240  0.1118 -0.0543 -0.1689
  676loPI    C210802  17.011  12.059  11.255  0.1119 -0.0979  0.1667
  676loPI    C310803  16.843  11.851  11.553 -0.2076  0.0724  0.1101
  676loPI   PO410804  16.515  11.867  10.957  0.0824  0.0142 -0.0410
  676loPI   GL110805  16.584  11.845  10.550  0.3491 -0.0845 -0.0134
  676loPI   GL210806  16.193  11.910  10.472  0.1043 -0.1169  0.1903
  676loPI   C1A10807  16.663  12.004  10.166  0.2549  0.2072  0.1681
  676loPI   C2A10808  16.869  12.135   9.789 -0.3032 -0.1675  0.0072
  676loPI   C3A10809  16.800  12.125   9.387 -0.3083 -0.0377 -0.0110
  676loPI   C4A10810  16.870  11.998   8.879 -0.1674  0.1472 -0.2473
  676loPI   C5A10811  16.852  12.085   8.429 -0.1771  0.0495  0.1539
  676loPI   C6A10812  16.660  12.229   7.990 -0.1442 -0.0784 -0.4063
  676loPI   C1B10813  16.246  11.846  10.068  0.1785 -0.1820  0.0596
  676loPI   C2B10814  16.368  11.957   9.665 -0.0610  0.3244  0.3187
  676loPI   C3B10815  16.392  11.934   9.178 -0.0152  0.1307 -0.1703
  676loPI   C4B10816  16.361  11.936   8.736  0.4477 -0.0045  0.3355
  677loPI    C110817  15.293  18.262   5.190 -0.0099  0.0422 -0.1513
  677loPI    C210818  15.568  18.069   4.973  0.0459 -0.2097  0.1355
  677loPI    C310819  15.188  18.083   4.849  0.1990  0.2318 -0.3182
  677loPI   PO410820  15.470  18.416   5.300  0.2805 -0.3060 -0.0102
  677loPI   GL110821  15.674  18.414   5.713 -0.0898  0.3399  0.1215
  677loPI   GL210822  15.967  18.599   5.675 -0.0102 -0.0062  0.0523
  677loPI   C1A10823  15.608  18.522   6.171  0.1474  0.3324 -0.0850
  677loPI   C2A10824  15.625  18.652   6.624  0.1893 -0.0106  0.1942
  677loPI   C3A10825  15.588  18.608   7.020  0.0746  0.0132  0.2510
  677loPI   C4A10826  15.574  18.661   7.478 -0.1505 -0.1416 -0.2750
  677loPI   C5A10827  15.633  18.676   7.940 -0.1328 -0.0199  0.0754
  677loPI   C6A10828  15.641  18.732   8.474  0.0588 -0.1389  0.1009
  677loPI   C1B10829  16.158  18.671   6.042 -0.1326  0.0938 -0.1385
  677loPI   C2B10830  16.099  18.650   6.376  0.2521 -0.1603 -0.1467
  677loPI   C3B10831  16.155  18.648   6.836  0.0516 -0.0501  0.0255
  677loPI   C4B10832  16.143  18.742   7.306  0.1765 -0.1491 -0.1836
  678loPI    C110833   1.425   2.507   5.153 -0.1322  0.0483 -0.1393
  678loPI    C210834   1.372   2.121   5.064 -0.0703 -0.0039  0.0469
  678loPI    C310835   1.088   2.388   4.974 -0.1415 -0.1024 -0.0227
  678loPI   PO410836   1.501   2.507   5.392 -0.0126 -0.1014  0.0111
  678loPI   GL110837   1.522   2.292   5.795  0.1126  0.0237 -0.1895
  678loPI   GL210838   1.262   2.089   5.981  0.1918 -0.0140  0.2293
  678loPI   C1A10839   1.794   2.344   6.142  0.0849  0.3724 -0.3681
  678loPI   C2A10840   1.878   2.377   6.638 -0.1120  0.0190  0.2687
  678loPI   C3A10841   1.807   2.473   7.104 -0.0229  0.0425 -0.3581
  678loPI   C4A10842   1.733   2.652   7.522  0.0021  0.0910 -0.2364
  678loPI   C5A10843   1.877   2.600   7.890  0.0427  0.0567 -0.4430
  678loPI   C6A10844   1.975   2.613   8.294 -0.0732 -0.2169  0.2152
  678loPI   C1B10845   1.215   2.337   6.344  0.3252  0.2330  0.0435
  678loPI   C2B10846   1.251   2.338   6.812  0.0254  0.0234 -0.0329
  678loPI   C3B10847   1.324   2.328   7.241  0.3952 -0.1023 -0.1543
  678loPI   C4B10848   1.293   2.273   7.716  0.0003 -0.0306 -0.0935
  679loPI    C110849   1.446   1.697   5.301 -0.0885  0.1865  0.0032
  679loPI    C210850   1.213   1.375   5.260  0.0543  0.0707  0.0910
  679loPI    C310851   1.488   1.459   4.982  0.0724  0.0707  0.1090
  679loPI   PO410852   1.400   1.729   5.589  0.2604 -0.1879  0.0915
  679loPI   GL110853   1.317   1.546   5.872  0.0101  0.1762 -0.0736
  679loPI   GL210854   1.191   1.486   6.178 -0.1908 -0.0512  0.1728
  679loPI   C1A10855   1.575   1.804   6.169 -0.3047 -0.1806  0.1863
  679loPI   C2A10856   1.602   2.040   6.455  0.0743 -0.1664  0.1195
  679loPI   C3A10857   1.639   1.987   6.920 -0.1938 -0.2217  0.3534
  679loPI   C4A10858   1.548   1.847   7.327  0.0405  0.0514 -0.1086
  679loPI   C5A10859   1.502   1.818   7.774  0.0772 -0.0778 -0.0925
  679loPI   C6A10860   1.648   1.702   8.139 -0.1108 -0.0342  0.1022
  679loPI   C1B10861   1.257   1.203   6.582  0.1757 -0.0439 -0.3129
  679loPI   C2B10862   1.106   1.094   6.982  0.0584  0.0862  0.2012
  679loPI   C3B10863   1.037   0.935   7.432  0.1095 -0.4097 -0.0326
  679loPI   C4B10864   1.106   0.807   7.720  0.1369 -0.0779  0.0841
  680loPI    C110865   5.991  11.918   5.279  0.2904  0.1253  0.2663
  680loPI    C210866   6.055  11.598   5.047 -0.0183  0.1052  0.2041
  680loPI    C310867   6.224  11.949   4.955  0.1020  0.0260  0.1191
  680loPI   PO410868   5.954  11.774   5.493 -0.1577 -0.0729  0.1533
  680loPI   GL110869   5.618  11.782   5.844 -0.1300 -0.0470 -0.3587
  680loPI   GL210870   5.643  11.935   6.104  0.0218 -0.1258  0.4939
  680loPI   C1A10871   5.882  11.494   6.108 -0.1954  0.2244  0.1813
  680loPI   C2A10872   5.845  11.334   6.566  0.0275  0.1209  0.0478
  680loPI   C3A10873   6.051  11.371   6.963 -0.0484  0.2665 -0.2079
  680loPI   C4A10874   6.108  11.274   7.390  0.2779  0.1440  0.1429
  680loPI   C5A10875   5.941  11.019   7.738  0.2567  0.0028  0.1394
  680loPI   C6A10876   5.961  10.536   7.934  0.0622  0.2619 -0.0340
  680loPI   C1B10877   5.522  11.819   6.467  0.1114 -0.1225 -0.0764
  680loPI   C2B10878   5.450  11.775   6.867 -0.0257  0.3972  0.0833
  680loPI   C3B10879   5.699  11.586   7.303  0.1564  0.2138  0.1009
  680loPI   C4B10880   5.759  11.527   7.648 -0.0648  0.0398 -0.0521
  681loPI    C110881  13.445   7.866   5.746  0.1698  0.1216 -0.1452
  681loPI    C210882  13.309   7.494   5.688  0.0598  0.1253  0.0809
  681loPI    C310883  13.125   7.804   5.514  0.1213  0.0794 -0.0672
  681loPI   PO410884  13.580   7.827   5.959 -0.0127  0.0353  0.1649
  681loPI   GL110885  13.714   7.859   6.324 -0.2089 -0.1604  0.0443
  681loPI   GL210886  13.771   8.264   6.313  0.2825  0.2133  0.0157
  681loPI   C1A10887  13.787   7.725   6.688  0.3432  0.0060  0.1092
  681loPI   C2A10888  14.113   7.605   6.896  0.0653  0.0446  0.0026
  681loPI   C3A10889  14.065   7.452   7.297  0.0745  0.0015 -0.0913
  681loPI   C4A10890  14.088   7.338   7.734 -0.0013 -0.2605 -0.3330
  681loPI   C5A10891  13.978   7.568   8.118 -0.0906  0.1331  0.1100
  681loPI   C6A10892  13.780   7.885   8.423  0.3275 -0.0250 -0.0230
  681loPI   C1B10893  13.617   8.210   6.800  0.2759  0.1080 -0.1228
  681loPI   C2B10894  13.373   8.369   7.154  0.1543  0.0391 -0.2433
  681loPI   C3B10895  13.112   8.370   7.494  0.3129 -0.2924 -0.1851
  681loPI   C4B10896  12.714   8.593   7.708  0.1886 -0.0700  0.0820
  682loPI    C110897   0.169  13.332   4.662 -0.0397 -0.1454  0.0695
  682loPI    C210898   0.425  13.637   4.697 -0.0961 -0.1149  0.2237
  682loPI    C310899   0.528  13.313   4.486 -0.1272  0.1094 -0.1445
  682loPI   PO410900   0.112  13.271   4.863 -0.0354  0.1710  0.1998
  682loPI   GL110901   0.263  13.274   5.291  0.0108  0.0942  0.1071
  682loPI   GL210902   0.520  13.130   5.449 -0.1833  0.0948 -0.0414
  682loPI   C1A10903   0.160  13.416   5.657  0.0848  0.0724  0.0293
  682loPI   C2A10904   0.009  13.818   5.857 -0.0125 -0.0272 -0.1117
  682loPI   C3A10905   0.061  13.849   6.350 -0.0209  0.0114 -0.0985
  682loPI   C4A10906  -0.014  13.837   6.809 -0.0169  0.0393 -0.1354
  682loPI   C5A10907   0.077  13.887   7.257 -0.3198  0.1518 -0.2152
  682loPI   C6A10908   0.126  13.927   7.748  0.2295  0.2486 -0.1730
  682loPI   C1B10909   0.647  13.143   5.837  0.0274  0.3599 -0.0221
  682loPI   C2B10910   0.590  13.047   6.296  0.0088 -0.2096 -0.0687
  682loPI   C3B10911   0.591  12.960   6.715  0.3856 -0.0263  0.0674
  682loPI   C4B10912   0.605  12.963   7.184 -0.2255  0.1528  0.1621
  683loPI    C110913   8.779   9.137   4.920 -0.2194  0.0434  0.0212
  683loPI    C210914   8.698   9.478   5.113 -0.0021  0.1600 -0.0899
  683loPI    C310915   9.008   9.460   4.861  0.0662 -0.1573  0.0124
  683loPI   PO410916   8.824   8.991   5.144  0.0580 -0.0121  0.0307
  683loPI   GL110917   8.732   9.065   5.534  0.2014 -0.0825 -0.3052
  683loPI   GL210918   8.838   9.363   5.550 -0.1103  0.2163 -0.0528
  683loPI   C1A10919   8.648   8.887   6.021 -0.1363  0.4836  0.0441
  683loPI   C2A10920   8.593   8.808   6.420  0.1754  0.3816 -0.0902
  683loPI   C3A10921   8.516   8.644   6.899  0.0171 -0.2058  0.2515
  683loPI   C4A10922   8.486   8.638   7.275  0.2011 -0.0303 -0.2303
  683loPI   C5A10923   8.413   8.422   7.645 -0.3283  0.1779 -0.2031
  683loPI   C6A10924   8.137   8.386   8.073 -0.1071  0.2689  0.3143
  683loPI   C1B10925   8.832   9.344   6.015 -0.0094  0.2651 -0.2023
  683loPI   C2B10926   8.574   9.290   6.446 -0.1491 -0.1902 -0.1341
  683loPI   C3B10927   8.337   9.372   6.796  0.1113 -0.4538  0.1287
  683loPI   C4B10928   8.024   9.385   7.176 -0.2492  0.1285 -0.0838
  684loPI    C110929  17.975   8.151   5.366 -0.1066 -0.1897  0.0200
  684loPI    C210930  18.131   7.796   5.464  0.0973 -0.1742 -0.2402
  684loPI    C310931  18.071   7.890   5.079 -0.1055  0.0113 -0.1654
  684loPI   PO410932  18.074   8.269   5.620 -0.1569 -0.0754  0.0356
  684loPI   GL110933  17.971   8.367   6.012 -0.0310 -0.3479 -0.1746
  684loPI   GL210934  17.679   8.471   6.199  0.0931  0.3318 -0.1913
  684loPI   C1A10935  18.110   8.496   6.502  0.1220  0.0302 -0.3937
  684loPI   C2A10936  18.209   8.434   6.923  0.0994 -0.3282 -0.0175
  684loPI   C3A10937  18.389   8.541   7.399 -0.0886 -0.0373  0.0398
  684loPI   C4A10938  18.350   8.456   7.824 -0.1358  0.0455  0.0154
  684loPI   C5A10939  18.432   8.466   8.199  0.1022 -0.2105 -0.0263
  684loPI   C6A10940  18.445   8.524   8.624 -0.0343  0.2625  0.0450
  684loPI   C1B10941  17.539   8.438   6.484  0.4861  0.3231 -0.0878
  684loPI   C2B10942  17.698   8.487   6.869  0.1368  0.1379  0.1069
  684loPI   C3B10943  17.796   8.443   7.350 -0.0677  0.0962 -0.0409
  684loPI   C4B10944  17.842   8.433   7.822  0.0250  0.2619  0.1416
  685loPI    C110945   8.133  15.888   4.820 -0.2018  0.3223 -0.3261
  685loPI    C210946   8.057  15.535   4.647 -0.1949  0.2359 -0.1548
  685loPI    C310947   8.374  15.749   4.532 -0.1679  0.1606 -0.2210
  685loPI   PO410948   8.081  15.925   5.045 -0.2778  0.3528 -0.1033
  685loPI   GL110949   7.978  15.784   5.436  0.0840  0.2393  0.1657
  685loPI   GL210950   8.015  16.156   5.572 -0.0306 -0.1446 -0.0519
  685loPI   C1A10951   7.917  15.744   5.887  0.0862  0.1587 -0.0466
  685loPI   C2A10952   7.899  15.816   6.390 -0.0844 -0.1637  0.0103
  685loPI   C3A10953   7.805  15.846   6.744 -0.4023 -0.1151 -0.0823
  685loPI   C4A10954   7.767  15.962   7.126  0.1781 -0.1088 -0.0711
  685loPI   C5A10955   7.761  15.994   7.641 -0.1260 -0.0314  0.2896
  685loPI   C6A10956   7.676  15.783   8.045 -0.2382 -0.1521 -0.0912
  685loPI   C1B10957   8.036  16.263   6.006 -0.0012  0.2837 -0.1253
  685loPI   C2B10958   8.086  16.274   6.426  0.1256  0.1820  0.1451
  685loPI   C3B10959   7.992  16.350   6.807  0.3098 -0.0312  0.4266
  685loPI   C4B10960   8.015  16.503   7.120 -0.0148 -0.0972 -0.0862
  686loPI    C110961  -0.117   0.378   4.877 -0.1212  0.2895 -0.0731
  686loPI    C210962   0.282   0.363   4.888 -0.1302 -0.0978 -0.1338
  686loPI    C310963   0.094   0.424   4.540 -0.1276 -0.1177 -0.1388
  686loPI   PO410964  -0.159   0.383   5.114 -0.1608 -0.2548 -0.1140
  686loPI   GL110965  -0.283   0.357   5.477  0.2598 -0.2081 -0.1314
  686loPI   GL210966  -0.585   0.326   5.540 -0.0618 -0.2567 -0.0395
  686loPI   C1A10967  -0.080   0.518   5.919  0.3954 -0.2573  0.0022
  686loPI   C2A10968   0.203   0.605   6.284  0.3726 -0.0803  0.0535
  686loPI   C3A10969   0.441   0.521   6.706 -0.2355 -0.1271 -0.0285
  686loPI   C4A10970   0.349   0.600   7.132  0.0594  0.0574 -0.0387
  686loPI   C5A10971   0.387   0.706   7.580 -0.2396 -0.2715 -0.2998
  686loPI   C6A10972   0.693   0.697   7.981  0.0251  0.1770  0.0400
  686loPI   C1B10973  -0.437   0.054   5.900 -0.2151 -0.0148 -0.2103
  686loPI   C2B10974  -0.382   0.087   6.310 -0.3743  0.0378 -0.0914
  686loPI   C3B10975  -0.215   0.445   6.524 -0.0885  0.3468 -0.0755
  686loPI   C4B10976  -0.160   0.472   7.000 -0.3457  0.0680  0.4240
  687loPI    C110977  15.235   6.995   5.260 -0.0490 -0.3144  0.1209
  687loPI    C210978  15.560   6.764   5.222 -0.0452 -0.2705 -0.1311
  687loPI    C310979  15.271   6.750   4.946 -0.1344 -0.1143 -0.0473
  687loPI   PO410980  15.120   6.929   5.474 -0.0088 -0.1002 -0.1895
  687loPI   GL110981  15.171   7.059   5.953  0.1703 -0.0853  0.0175
  687loPI   GL210982  15.141   7.345   6.000  0.1988  0.0974  0.2391
  687loPI   C1A10983  15.287   6.925   6.340 -0.0532 -0.0573  0.1336
  687loPI   C2A10984  15.235   6.956   6.748 -0.1225  0.0324 -0.0521
  687loPI   C3A10985  15.238   6.972   7.197 -0.0024  0.0608 -0.0012
  687loPI   C4A10986  15.406   6.864   7.590  0.1299  0.1881 -0.2637
  687loPI   C5A10987  15.521   6.902   7.987 -0.3278 -0.0734  0.1861
  687loPI   C6A10988  15.343   7.213   8.321 -0.1327 -0.1400 -0.0939
  687loPI   C1B10989  14.980   7.343   6.417 -0.0858  0.2734 -0.1708
  687loPI   C2B10990  14.899   7.314   6.809  0.0406  0.3092 -0.0009
  687loPI   C3B10991  14.894   7.319   7.174 -0.0641 -0.1327 -0.4287
  687loPI   C4B10992  14.967   7.191   7.556  0.0285  0.0473  0.1008
  688loPI    C110993  12.438   0.090   5.488 -0.0521 -0.1908  0.1795
  688loPI    C210994  12.217   0.148   5.160 -0.0221  0.2670  0.2335
  688loPI    C310995  12.243  -0.217   5.322  0.0170  0.0196 -0.3083
  688loPI   PO410996  12.347   0.221   5.702  0.0422 -0.0892  0.4171
  688loPI   GL110997  12.073   0.078   6.094 -0.1089 -0.1466  0.3849
  688loPI   GL210998  11.986   0.377   5.976  0.1450 -0.2878 -0.0831
  688loPI   C1A10999  12.338   0.184   6.362  0.2532 -0.2781  0.2514
  688loPI   C2A11000  12.731   0.229   6.745  0.1028 -0.0291  0.1374
  688loPI   C3A11001  12.562   0.153   7.182 -0.4237 -0.0816 -0.1074
  688loPI   C4A11002  12.561  -0.076   7.533 -0.1070 -0.0095  0.3024
  688loPI   C5A11003  12.771  -0.204   7.858 -0.0065 -0.2149  0.1621
  688loPI   C6A11004  13.153  -0.379   8.072 -0.0988 -0.2605 -0.2264
  688loPI   C1B11005  11.909   0.471   6.343 -0.0239 -0.0861  0.1009
  688loPI   C2B11006  11.999   0.430   6.733 -0.2488 -0.0435 -0.2714
  688loPI   C3B11007  11.880   0.535   7.055 -0.0308  0.1461 -0.0442
  688loPI   C4B11008  11.851   0.589   7.482  0.0733  0.1301 -0.4088
  689loPI    C111009  13.726  13.608   5.032  0.0406 -0.1461 -0.0368
  689loPI    C211010  13.337  13.642   4.942  0.0546 -0.0734 -0.0706
  689loPI    C311011  13.556  13.351   4.777  0.0452 -0.0327 -0.1552
  689loPI   PO411012  13.688  13.651   5.348  0.0858  0.1317  0.2165
  689loPI   GL111013  13.773  13.756   5.727 -0.2738 -0.0532 -0.1887
  689loPI   GL211014  13.746  14.030   5.902 -0.0626 -0.0961  0.1633
  689loPI   C1A11015  13.689  13.696   6.227  0.3320  0.4142 -0.1139
  689loPI   C2A11016  13.572  13.423   6.551  0.1157  0.1048 -0.0791
  689loPI   C3A11017  13.435  13.104   6.706 -0.1635  0.1781 -0.0356
  689loPI   C4A11018  13.258  12.979   7.077  0.0145 -0.1023  0.0996
  689loPI   C5A11019  13.300  12.840   7.424 -0.1833  0.0855 -0.0661
  689loPI   C6A11020  13.533  12.693   7.714  0.2595  0.0957  0.5169
  689loPI   C1B11021  13.938  14.160   6.248  0.0439  0.0654 -0.3132
  689loPI   C2B11022  14.243  14.344   6.529  0.1497  0.1133 -0.1006
  689loPI   C3B11023  14.340  14.413   7.003  0.2712 -0.0831 -0.1465
  689loPI   C4B11024  14.208  14.401   7.475 -0.0513 -0.1535 -0.0189
  690loPI    C111025   2.990   5.980   5.289  0.0026  0.3352 -0.0371
  690loPI    C211026   2.714   5.832   5.040  0.1589 -0.2800  0.1378
  690loPI    C311027   3.095   5.863   4.922  0.1035  0.1405  0.0524
  690loPI   PO411028   2.949   6.136   5.384  0.1699 -0.2299  0.1951
  690loPI   GL111029   2.829   6.258   5.725  0.4530  0.1635 -0.2474
  690loPI   GL211030   2.677   6.477   5.846 -0.0846  0.0909  0.0267
  690loPI   C1A11031   3.136   6.492   6.036  0.1839  0.2325  0.1744
  690loPI   C2A11032   3.058   6.606   6.498 -0.0067 -0.0996 -0.1440
  690loPI   C3A11033   3.246   6.663   6.868  0.0379  0.1609  0.0363
  690loPI   C4A11034   3.207   6.684   7.379 -0.0127  0.1992  0.3265
  690loPI   C5A11035   2.972   6.737   7.785  0.2399  0.1147  0.0617
  690loPI   C6A11036   2.953   6.789   8.291  0.1477 -0.0508 -0.0843
  690loPI   C1B11037   2.656   6.436   6.249 -0.1245 -0.0027 -0.2879
  690loPI   C2B11038   2.653   6.535   6.720 -0.1736 -0.0169  0.0047
  690loPI   C3B11039   2.609   6.642   7.149 -0.2906  0.2227 -0.0822
  690loPI   C4B11040   2.572   6.526   7.606 -0.0517  0.2716 -0.0665
  691loPI    C111041  10.150  15.202   4.981  0.0588  0.2290 -0.3181
  691loPI    C211042   9.820  15.172   4.757 -0.0723 -0.3008 -0.0707
  691loPI    C311043  10.181  15.150   4.586 -0.1557  0.2590 -0.3397
  691loPI   PO411044  10.102  14.933   5.243 -0.0696 -0.2309 -0.3367
  691loPI   GL111045  10.160  14.818   5.606 -0.0123 -0.0767  0.0060
  691loPI   GL211046   9.931  15.004   5.700  0.0956  0.0031  0.0356
  691loPI   C1A11047  10.413  14.883   6.019  0.0903  0.0272 -0.0043
  691loPI   C2A11048  10.391  14.945   6.469 -0.5231 -0.1842 -0.0746
  691loPI   C3A11049  10.432  15.012   6.880  0.2494  0.0820 -0.4173
  691loPI   C4A11050  10.363  15.113   7.291 -0.1361  0.1032  0.1801
  691loPI   C5A11051  10.352  14.958   7.711  0.0395  0.1298 -0.1568
  691loPI   C6A11052  10.390  14.858   8.116 -0.0797 -0.0026 -0.2393
  691loPI   C1B11053   9.942  14.903   6.165  0.1985 -0.3948 -0.0750
  691loPI   C2B11054   9.904  14.993   6.629 -0.0680 -0.2091 -0.0039
  691loPI   C3B11055   9.826  15.035   7.167 -0.1801 -0.1429 -0.2553
  691loPI   C4B11056   9.848  15.172   7.624  0.4209  0.1098 -0.1762
  692loPI    C111057  14.152   8.422   5.331  0.0567 -0.1828  0.2454
  692loPI    C211058  13.806   8.505   5.149  0.0773 -0.1553  0.2187
  692loPI    C311059  14.111   8.762   5.124  0.1889 -0.3039  0.0159
  692loPI   PO411060  14.056   8.291   5.612  0.2151 -0.0662  0.0702
  692loPI   GL111061  14.157   8.411   6.007 -0.0117 -0.0259  0.0400
  692loPI   GL211062  14.141   8.030   6.024  0.0123 -0.2816  0.2139
  692loPI   C1A11063  14.229   8.375   6.443 -0.0774  0.0154 -0.1609
  692loPI   C2A11064  14.415   8.570   6.843  0.0709  0.1309 -0.1413
  692loPI   C3A11065  14.363   8.600   7.276 -0.4218  0.0395 -0.1713
  692loPI   C4A11066  14.128   8.834   7.540 -0.1323  0.0827 -0.1794
  692loPI   C5A11067  14.066   8.504   7.877 -0.0601  0.0083 -0.1409
  692loPI   C6A11068  13.918   8.263   8.162 -0.0557 -0.1499 -0.2939
  692loPI   C1B11069  14.209   7.900   6.421 -0.1091 -0.3183 -0.0928
  692loPI   C2B11070  14.157   8.093   6.888  0.1268  0.2571  0.2630
  692loPI   C3B11071  14.245   8.105   7.400  0.2231  0.4038  0.4656
  692loPI   C4B11072  14.016   7.821   7.699  0.1311 -0.1001 -0.1113
  693loPI    C111073  17.632   2.446   5.173 -0.1380 -0.0197 -0.0398
  693loPI    C211074  17.386   2.318   4.884  0.0421 -0.0997 -0.1600
  693loPI    C311075  17.681   2.573   4.797 -0.0257  0.0323 -0.0079
  693loPI   PO411076  17.446   2.410   5.444  0.2554 -0.1648  0.2407
  693loPI   GL111077  17.239   2.203   5.799 -0.1018  0.0223  0.0371
  693loPI   GL211078  16.976   2.340   6.033  0.0158  0.1005 -0.1506
  693loPI   C1A11079  17.360   2.041   6.207 -0.0053  0.0097  0.2234
  693loPI   C2A11080  17.279   1.742   6.529 -0.1795 -0.1150 -0.2014
  693loPI   C3A11081  17.397   1.821   7.005  0.0394  0.0532  0.2131
  693loPI   C4A11082  17.306   1.836   7.407  0.0358 -0.0370  0.1733
  693loPI   C5A11083  17.572   1.595   7.700 -0.0666 -0.2561  0.2224
  693loPI   C6A11084  17.835   1.405   8.063  0.3164  0.0570  0.0889
  693loPI   C1B11085  17.018   2.258   6.458 -0.0294  0.1450 -0.1845
  693loPI   C2B11086  17.006   2.148   6.820 -0.0472  0.2431 -0.0117
  693loPI   C3B11087  17.053   2.358   7.209 -0.1701 -0.3598  0.3551
  693loPI   C4B11088  17.014   2.586   7.501 -0.2385 -0.1736 -0.1570
  694loPI    C111089  10.083  14.438   5.129 -0.1727 -0.2222  0.0499
  694loPI    C211090  10.402  14.238   4.993 -0.1387 -0.0889 -0.0679
  694loPI    C311091  10.059  14.233   4.786 -0.0976  0.0848 -0.1429
  694loPI   PO411092  10.123  14.268   5.383 -0.1312  0.1552 -0.0917
  694loPI   GL111093  10.315  14.378   5.812  0.0587  0.0148  0.2164
  694loPI   GL211094   9.912  14.450   5.863  0.0053 -0.1432 -0.1549
  694loPI   C1A11095  10.313  14.476   6.246  0.2977 -0.2393 -0.0858
  694loPI   C2A11096  10.062  14.493   6.535  0.0411  0.3350 -0.0509
  694loPI   C3A11097   9.982  14.603   6.966  0.0503 -0.2588 -0.0785
  694loPI   C4A11098  10.039  14.683   7.431 -0.0242  0.1418 -0.1974
  694loPI   C5A11099   9.912  14.612   7.870  0.2100 -0.1612  0.1153
  694loPI   C6A11100   9.822  14.214   8.086 -0.0470 -0.1182  0.0967
  694loPI   C1B11101   9.885  14.122   6.320  0.0503 -0.1388 -0.1368
  694loPI   C2B11102   9.757  14.160   6.808 -0.3140 -0.0783  0.5300
  694loPI   C3B11103   9.584  14.103   7.129  0.2863  0.0005  0.1929
  694loPI   C4B11104   9.213  14.122   7.419 -0.0353 -0.1013  0.2065
  695loPI    C111105   5.265   4.695   5.141 -0.0311 -0.1802  0.1707
  695loPI    C211106   5.560   4.674   4.872 -0.0126 -0.0335  0.1787
  695loPI    C311107   5.192   4.553   4.775  0.0087 -0.0421  0.1085
  695loPI   PO411108   5.197   4.891   5.206  0.0935  0.1214  0.2121
  695loPI   GL111109   5.312   4.921   5.654 -0.1319  0.0496  0.1887
  695loPI   GL211110   5.022   4.813   5.721 -0.0023 -0.1613 -0.0304
  695loPI   C1A11111   5.540   4.936   6.040 -0.2806  0.2944  0.1227
  695loPI   C2A11112   5.475   4.968   6.523 -0.0214  0.0669  0.2564
  695loPI   C3A11113   5.433   5.061   6.874  0.0030 -0.2154 -0.1234
  695loPI   C4A11114   5.423   5.131   7.371 -0.1163 -0.2630 -0.0960
  695loPI   C5A11115   5.182   5.043   7.714 -0.0138 -0.1450 -0.1141
  695loPI   C6A11116   4.764   4.882   7.813  0.1455 -0.2225  0.0028
  695loPI   C1B11117   4.925   4.837   6.114 -0.4215 -0.1323 -0.2119
  695loPI   C2B11118   4.962   4.951   6.536  0.2413 -0.1272 -0.3021
  695loPI   C3B11119   4.917   4.993   6.873  0.0052  0.1209 -0.0445
  695loPI   C4B11120   4.872   4.982   7.298  0.2138 -0.1828  0.5224
  696loPI    C111121   8.792  16.536   5.096 -0.1165  0.0119  0.0106
  696loPI    C211122   8.550  16.850   5.146 -0.2451 -0.0534 -0.1887
  696loPI    C311123   8.595  16.689   4.783  0.1371 -0.0116 -0.1639
  696loPI   PO411124   8.749  16.435   5.372 -0.0548  0.1253  0.0044
  696loPI   GL111125   8.782  16.185   5.676  0.0016 -0.0235 -0.0572
  696loPI   GL211126   8.431  16.281   5.784 -0.2273  0.4115  0.0678
  696loPI   C1A11127   8.896  15.859   5.973  0.1680 -0.2784  0.0464
  696loPI   C2A11128   8.875  15.801   6.494 -0.0134 -0.0995  0.1686
  696loPI   C3A11129   8.809  15.867   6.842  0.1385  0.0501 -0.1325
  696loPI   C4A11130   8.707  15.943   7.328 -0.1804  0.1642  0.2146
  696loPI   C5A11131   8.602  15.967   7.799  0.1118  0.1383 -0.0829
  696loPI   C6A11132   8.606  15.608   8.063  0.3371  0.2513  0.0933
  696loPI   C1B11133   8.648  16.259   6.165  0.1276  0.1816  0.0430
  696loPI   C2B11134   8.637  16.249   6.580  0.1686 -0.0113 -0.3035
  696loPI   C3B11135   8.532  16.402   6.969 -0.1063  0.3785  0.0595
  696loPI   C4B11136   8.437  16.510   7.322 -0.2473 -0.0314 -0.1703
  697loPI    C111137  14.669   9.678   5.764  0.0977 -0.0833 -0.0114
  697loPI    C211138  14.589   9.819   5.398  0.3812 -0.0853 -0.0760
  697loPI    C311139  14.378   9.513   5.545  0.0407  0.1327 -0.1007
  697loPI   PO411140  14.791   9.951   5.866  0.2529 -0.0273  0.1462
  697loPI   GL111141  14.937  10.218   6.152  0.2426 -0.1017  0.1871
  697loPI   GL211142  14.769  10.494   6.309  0.0094  0.0119  0.2211
  697loPI   C1A11143  15.022  10.120   6.570 -0.1019  0.1797 -0.0098
  697loPI   C2A11144  14.954  10.014   7.029  0.0283  0.2417  0.1339
  697loPI   C3A11145  14.999   9.895   7.459  0.2296  0.2193 -0.1704
  697loPI   C4A11146  14.952   9.920   7.769 -0.1368  0.1806 -0.3079
  697loPI   C5A11147  14.767  10.029   8.117 -0.1893  0.1607  0.0953
  697loPI   C6A11148  14.979  10.192   8.553  0.0353 -0.0730 -0.0204
  697loPI   C1B11149  14.905  10.891   6.522 -0.1073  0.0873 -0.1205
  697loPI   C2B11150  15.064  10.986   6.925  0.3110 -0.0417  0.0307
  697loPI   C3B11151  14.970  10.864   7.398  0.3009  0.0100 -0.0814
  697loPI   C4B11152  15.088  10.893   7.888  0.1269 -0.0416  0.0150
  698loPI    C111153   6.169   7.369   5.058  0.0718 -0.0614 -0.0593
  698loPI    C211154   5.825   7.172   5.003 -0.0509  0.1342 -0.0031
  698loPI    C311155   6.074   7.231   4.695  0.0072 -0.1429 -0.0115
  698loPI   PO411156   6.215   7.234   5.350  0.0934  0.0384 -0.1288
  698loPI   GL111157   6.317   7.336   5.700  0.0267  0.3260 -0.0658
  698loPI   GL211158   6.463   7.570   5.803  0.1015 -0.1120  0.0143
  698loPI   C1A11159   6.076   7.337   6.153  0.1293 -0.0601 -0.1137
  698loPI   C2A11160   5.922   7.281   6.540 -0.0973  0.0320 -0.4776
  698loPI   C3A11161   5.953   7.426   6.984  0.1276 -0.2441 -0.2505
  698loPI   C4A11162   5.926   7.443   7.274 -0.0873  0.2469 -0.2878
  698loPI   C5A11163   6.170   7.735   7.579  0.0762 -0.2259 -0.1713
  698loPI   C6A11164   6.444   7.736   7.996 -0.0331 -0.2627 -0.4062
  698loPI   C1B11165   6.428   7.707   6.166  0.1803 -0.1253 -0.0855
  698loPI   C2B11166   6.201   7.745   6.615  0.0502  0.0677  0.1770
  698loPI   C3B11167   6.266   7.818   7.042 -0.2050  0.2370 -0.0241
  698loPI   C4B11168   6.547   7.988   7.434 -0.0094 -0.1418  0.2791
  699loPI    C111169  14.825  16.599   5.298 -0.0959  0.0087 -0.1107
  699loPI    C211170  14.928  16.215   5.347 -0.3407 -0.0448  0.0029
  699loPI    C311171  14.979  16.393   4.992  0.1281 -0.0692  0.0524
  699loPI   PO411172  14.567  16.587   5.353 -0.0228  0.1864  0.0494
  699loPI   GL111173  14.500  16.483   5.720  0.0516  0.0795 -0.1066
  699loPI   GL211174  14.309  16.693   5.744  0.1013 -0.2655 -0.2376
  699loPI   C1A11175  14.793  16.228   5.897 -0.1097  0.0408 -0.2093
  699loPI   C2A11176  15.107  16.136   6.212 -0.0471  0.1846 -0.0272
  699loPI   C3A11177  15.070  16.262   6.647 -0.4100  0.1293 -0.2385
  699loPI   C4A11178  15.115  16.206   7.052 -0.3532 -0.0511  0.0774
  699loPI   C5A11179  15.109  16.290   7.437  0.1439 -0.2409  0.0801
  699loPI   C6A11180  15.161  16.187   7.866 -0.3536 -0.1907  0.2103
  699loPI   C1B11181  14.246  16.555   6.202  0.0466 -0.2114 -0.0763
  699loPI   C2B11182  14.206  16.603   6.670 -0.0028  0.3743  0.3011
  699loPI   C3B11183  14.277  16.643   7.074 -0.2164  0.1182 -0.0321
  699loPI   C4B11184  14.248  16.576   7.495 -0.0579  0.1813 -0.0473
  700loPI    C111185   8.363   6.577   5.128  0.3161 -0.1185 -0.2808
  700loPI    C211186   8.202   6.407   4.804 -0.1697  0.0725 -0.1477
  700loPI    C311187   8.311   6.792   4.795 -0.1954  0.0815 -0.0821
  700loPI   PO411188   8.223   6.524   5.354 -0.2317 -0.0303  0.0276
  700loPI   GL111189   8.123   6.722   5.669  0.0001 -0.0595  0.3264
  700loPI   GL211190   7.788   6.898   5.652 -0.0020  0.0098  0.0536
  700loPI   C1A11191   8.229   6.562   6.071  0.3013 -0.0716  0.2604
  700loPI   C2A11192   8.094   6.459   6.475  0.0473 -0.1834  0.1652
  700loPI   C3A11193   7.953   6.323   6.845  0.0469  0.0167  0.0232
  700loPI   C4A11194   7.628   6.374   7.038 -0.0827  0.2012 -0.1928
  700loPI   C5A11195   7.296   6.221   7.088  0.0206 -0.1534 -0.1064
  700loPI   C6A11196   6.951   6.464   7.291  0.2202  0.0078 -0.1883
  700loPI   C1B11197   7.698   6.587   6.098  0.1622  0.1534 -0.0614
  700loPI   C2B11198   7.613   6.616   6.552 -0.1710 -0.1869  0.2343
  700loPI   C3B11199   7.465   6.786   6.850  0.1112  0.1322 -0.0889
  700loPI   C4B11200   7.300   6.810   7.242  0.2189 -0.0629 -0.1460
  701loPI    C111201   7.356  10.414   5.432 -0.0425  0.1025 -0.0196
  701loPI    C211202   7.244  10.240   5.089  0.1753  0.0514 -0.0666
  701loPI    C311203   7.550  10.498   5.092  0.1572  0.0719  0.0851
  701loPI   PO411204   7.348  10.172   5.602  0.3780  0.2622  0.1936
  701loPI   GL111205   7.425  10.211   5.983  0.0485  0.1110 -0.0735
  701loPI   GL211206   7.600   9.929   5.973  0.0552 -0.3462  0.2270
  701loPI   C1A11207   7.122  10.405   6.345 -0.4263  0.0114  0.1994
  701loPI   C2A11208   6.891  10.392   6.709  0.1276  0.1209 -0.0597
  701loPI   C3A11209   6.783  10.183   7.082 -0.2901 -0.0552 -0.1700
  701loPI   C4A11210   6.776  10.299   7.552 -0.1322 -0.0031 -0.0409
  701loPI   C5A11211   6.802  10.522   7.859 -0.0401  0.1047 -0.2068
  701loPI   C6A11212   6.832  10.886   8.126 -0.1583  0.1823 -0.0436
  701loPI   C1B11213   7.837   9.831   6.335 -0.0906  0.0010  0.2926
  701loPI   C2B11214   7.971   9.734   6.663 -0.0355 -0.2120 -0.0560
  701loPI   C3B11215   7.915   9.794   6.945 -0.1089  0.1220 -0.1051
  701loPI   C4B11216   7.644   9.892   7.290 -0.1951  0.0902 -0.2740
  702loPI    C111217   1.054  14.064   5.150  0.0321 -0.1665  0.3386
  702loPI    C211218   0.777  13.889   4.921 -0.0190  0.2050  0.1089
  702loPI    C311219   1.140  13.724   4.958 -0.0660  0.0512 -0.1017
  702loPI   PO411220   0.962  14.149   5.364 -0.0004  0.3282  0.2015
  702loPI   GL111221   0.750  14.054   5.733 -0.0581  0.1858  0.1223
  702loPI   GL211222   0.730  14.265   5.958  0.1336 -0.2602  0.0424
  702loPI   C1A11223   0.594  13.846   6.251  0.0394  0.3375  0.1133
  702loPI   C2A11224   0.504  13.855   6.658 -0.1882  0.0747  0.0076
  702loPI   C3A11225   0.539  13.926   7.029  0.1100  0.2488 -0.0344
  702loPI   C4A11226   0.481  13.971   7.445 -0.1464 -0.1303 -0.1482
  702loPI   C5A11227   0.733  13.972   7.786 -0.1369  0.1710  0.2641
  702loPI   C6A11228   1.037  13.797   8.199  0.1246 -0.0375 -0.1541
  702loPI   C1B11229   0.737  14.413   6.357 -0.1177  0.1495 -0.1433
  702loPI   C2B11230   0.702  14.436   6.875 -0.0040  0.1617 -0.2488
  702loPI   C3B11231   0.683  14.418   7.197  0.3065  0.0473  0.1781
  702loPI   C4B11232   0.739  14.421   7.563  0.4581 -0.4080  0.0345
  703loPI    C111233   5.424   3.297   5.159 -0.0812  0.0932 -0.0891
  703loPI    C211234   5.573   2.932   5.091  0.0670  0.1268  0.0465
  703loPI    C311235   5.637   3.227   4.828  0.1305  0.1089  0.0418
  703loPI   PO411236   5.249   3.278   5.250 -0.3346 -0.2334  0.2064
  703loPI   GL111237   5.125   2.936   5.480 -0.0977  0.0383  0.1772
  703loPI   GL211238   4.954   2.717   5.392  0.0817 -0.0688  0.1718
  703loPI   C1A11239   5.088   3.106   5.849  0.2905 -0.0561 -0.2633
  703loPI   C2A11240   5.066   3.151   6.247  0.2137 -0.1260 -0.1680
  703loPI   C3A11241   5.054   3.195   6.635 -0.2320 -0.0156  0.0343
  703loPI   C4A11242   5.044   3.327   7.102  0.1656  0.3475 -0.2588
  703loPI   C5A11243   5.060   3.306   7.560  0.0557  0.0982  0.0775
  703loPI   C6A11244   5.266   3.624   7.688  0.0210 -0.2003 -0.1601
  703loPI   C1B11245   4.843   2.606   5.751  0.0054 -0.0776  0.1720
  703loPI   C2B11246   4.887   2.624   6.161  0.1671 -0.0077  0.0927
  703loPI   C3B11247   4.825   2.719   6.553  0.1809 -0.1839  0.0928
  703loPI   C4B11248   4.844   2.813   7.123  0.1774  0.0232  0.0618
  704loPI    C111249   6.621   3.804   5.194  0.0564  0.1586  0.1082
  704loPI    C211250   6.566   3.838   4.800 -0.0355  0.1012  0.1156
  704loPI    C311251   6.776   4.115   4.997  0.0944  0.0788  0.0109
  704loPI   PO411252   6.479   3.785   5.305  0.2083 -0.2546 -0.0571
  704loPI   GL111253   6.173   3.809   5.614 -0.0496  0.4769 -0.4340
  704loPI   GL211254   6.047   3.542   5.850  0.3724 -0.1943  0.0776
  704loPI   C1A11255   6.149   4.044   6.066  0.1742  0.0315  0.2220
  704loPI   C2A11256   6.011   4.081   6.383 -0.1900 -0.0492 -0.0912
  704loPI   C3A11257   5.998   4.187   6.816 -0.3193 -0.0866 -0.2879
  704loPI   C4A11258   6.083   4.199   7.263  0.0431 -0.0707  0.2065
  704loPI   C5A11259   6.041   3.984   7.701  0.0379 -0.6111  0.2405
  704loPI   C6A11260   5.996   3.541   7.814 -0.0974 -0.1850  0.0856
  704loPI   C1B11261   5.816   3.646   6.093 -0.0225 -0.5803  0.1228
  704loPI   C2B11262   5.772   3.648   6.525  0.1181 -0.1408  0.1701
  704loPI   C3B11263   5.793   3.760   6.858 -0.2275 -0.3091 -0.0467
  704loPI   C4B11264   5.807   3.702   7.328  0.3250  0.0208  0.2362
  705loPI    C111265  10.264   5.902   4.727  0.3318 -0.1254 -0.0014
  705loPI    C211266  10.509   6.117   4.495 -0.0369  0.1974 -0.1020
  705loPI    C311267  10.182   5.947   4.338  0.0204 -0.0752  0.0668
  705loPI   PO411268  10.212   5.979   4.919 -0.2044  0.2524  0.1826
  705loPI   GL111269  10.120   6.095   5.359 -0.0072 -0.4130  0.0465
  705loPI   GL211270  10.367   5.989   5.654 -0.0117  0.0921 -0.1013
  705loPI   C1A11271   9.956   6.200   5.752  0.1104  0.3047 -0.1294
  705loPI   C2A11272   9.981   6.261   6.157 -0.0123 -0.0764  0.1965
  705loPI   C3A11273   9.936   6.357   6.633  0.0475 -0.0418 -0.0279
  705loPI   C4A11274   9.814   6.249   7.033 -0.0425  0.0023 -0.0460
  705loPI   C5A11275   9.850   6.186   7.393 -0.3472  0.1597 -0.1705
  705loPI   C6A11276   9.940   6.502   7.660 -0.4114  0.1891  0.0993
  705loPI   C1B11277  10.439   6.071   6.148 -0.0820 -0.2376  0.1421
  705loPI   C2B11278  10.372   6.182   6.566 -0.1322  0.1161 -0.3190
  705loPI   C3B11279  10.326   6.084   7.063 -0.0316  0.0004 -0.1201
  705loPI   C4B11280  10.321   6.155   7.477  0.1517 -0.1878  0.0257
  706loPI    C111281   4.789   3.144   5.100  0.2736  0.2231  0.1118
  706loPI    C211282   5.094   2.944   4.936 -0.0273  0.0088 -0.2027
  706loPI    C311283   5.017   3.320   4.823  0.2057  0.1159 -0.0136
  706loPI   PO411284   4.613   2.991   5.085 -0.0029  0.4824 -0.0735
  706loPI   GL111285   4.493   2.946   5.458 -0.2764 -0.1336  0.0633
  706loPI   GL211286   4.700   3.157   5.603 -0.0504 -0.0081 -0.1686
  706loPI   C1A11287   4.189   3.143   5.719  0.0110 -0.0467  0.0689
  706loPI   C2A11288   4.078   3.097   6.126  0.0073 -0.0151  0.0763
  706loPI   C3A11289   4.090   3.100   6.532  0.1826 -0.0384  0.0775
  706loPI   C4A11290   4.090   3.051   6.958  0.1027 -0.0943 -0.1922
  706loPI   C5A11291   4.128   3.171   7.401  0.0022  0.0634 -0.1175
  706loPI   C6A11292   4.247   3.167   7.906  0.0522 -0.0957 -0.0848
  706loPI   C1B11293   4.612   3.187   6.038 -0.3201  0.1585  0.0114
  706loPI   C2B11294   4.602   3.157   6.520 -0.0802 -0.2339  0.1244
  706loPI   C3B11295   4.569   3.145   6.887 -0.0915  0.1243 -0.1263
  706loPI   C4B11296   4.598   3.185   7.365 -0.2060  0.2039 -0.1553
  707loPI    C111297   0.951   5.797   5.219 -0.1109  0.1709 -0.0511
  707loPI    C211298   0.674   5.738   4.936 -0.1231  0.0468 -0.0141
  707loPI    C311299   0.706   5.481   5.241 -0.0138  0.0999  0.0196
  707loPI   PO411300   0.929   6.024   5.235  0.2341  0.0499 -0.1212
  707loPI   GL111301   1.035   6.125   5.644  0.0355 -0.0487 -0.1051
  707loPI   GL211302   1.104   6.384   5.757 -0.1575  0.1496  0.1109
  707loPI   C1A11303   1.388   5.879   5.931  0.1887 -0.3608 -0.0223
  707loPI   C2A11304   1.439   5.941   6.298 -0.1890  0.0903 -0.1365
  707loPI   C3A11305   1.426   5.946   6.713 -0.3131 -0.4655 -0.0253
  707loPI   C4A11306   1.387   5.996   7.183 -0.1263 -0.1771  0.0350
  707loPI   C5A11307   1.407   6.045   7.663 -0.0873  0.1595  0.0018
  707loPI   C6A11308   1.222   6.240   7.992  0.3432  0.1736 -0.4991
  707loPI   C1B11309   1.104   6.341   6.150 -0.1765 -0.0575 -0.1147
  707loPI   C2B11310   1.040   6.369   6.630 -0.1814 -0.0624 -0.0345
  707loPI   C3B11311   1.004   6.386   7.132 -0.3011 -0.0957  0.1813
  707loPI   C4B11312   1.009   6.442   7.587  0.3772 -0.2453 -0.1881
  708loPI    C111313   0.976  14.602   5.018 -0.0452 -0.0734 -0.0080
  708loPI    C211314   0.665  14.373   4.914 -0.1214  0.0176  0.0191
  708loPI    C311315   0.855  14.589   4.637  0.0710 -0.2247 -0.0406
  708loPI   PO411316   0.965  14.734   5.208  0.0555  0.3001 -0.0588
  708loPI   GL111317   1.001  14.730   5.623 -0.2517 -0.2387  0.0984
  708loPI   GL211318   1.253  14.960   5.514  0.0246  0.0295  0.1165
  708loPI   C1A11319   0.929  14.828   6.040 -0.0533  0.2458  0.1041
  708loPI   C2A11320   0.980  14.865   6.478  0.3359  0.0188 -0.2780
  708loPI   C3A11321   0.967  14.947   6.968  0.0142 -0.1286 -0.0223
  708loPI   C4A11322   0.975  14.928   7.459 -0.4825  0.3335 -0.1336
  708loPI   C5A11323   0.939  15.030   7.914  0.1657 -0.2389 -0.0830
  708loPI   C6A11324   0.821  15.047   8.308 -0.0521 -0.0179  0.1212
  708loPI   C1B11325   1.464  14.912   5.940  0.1538 -0.1665 -0.0379
  708loPI   C2B11326   1.473  14.958   6.351 -0.1227  0.1180 -0.2434
  708loPI   C3B11327   1.440  14.923   6.716 -0.0330 -0.1239 -0.1770
  708loPI   C4B11328   1.458  14.905   7.159  0.7370  0.0822 -0.1127
  709loPI    C111329   9.763  10.297   5.258 -0.2047  0.0274 -0.1070
  709loPI    C211330  10.078  10.053   5.293  0.0236  0.3307  0.0001
  709loPI    C311331   9.856  10.047   4.960  0.1831  0.1625 -0.1054
  709loPI   PO411332   9.868  10.530   5.428  0.2410  0.3992  0.0115
  709loPI   GL111333   9.735  10.854   5.648  0.1550 -0.1210  0.0003
  709loPI   GL211334   9.506  10.905   5.913  0.3463 -0.1667  0.2614
  709loPI   C1A11335   9.981  11.031   5.945 -0.1962 -0.1029 -0.0350
  709loPI   C2A11336   9.915  11.087   6.352 -0.1127 -0.0078 -0.0322
  709loPI   C3A11337   9.807  11.225   6.767  0.2408 -0.0217  0.2360
  709loPI   C4A11338   9.905  11.116   7.152  0.0841 -0.0273 -0.1805
  709loPI   C5A11339   9.797  10.875   7.511  0.0191  0.2146  0.0106
  709loPI   C6A11340   9.575  10.657   7.735  0.3206 -0.0551  0.2560
  709loPI   C1B11341   9.442  11.040   6.280 -0.3193  0.1888 -0.1614
  709loPI   C2B11342   9.360  11.024   6.685 -0.0646 -0.0403  0.5160
  709loPI   C3B11343   9.405  11.041   7.116  0.0065  0.0734  0.3831
  709loPI   C4B11344   9.232  10.853   7.456  0.0932 -0.0462 -0.0270
  710loPI    C111345  10.363  11.293   5.443 -0.1947  0.0338 -0.0850
  710loPI    C211346  10.350  10.893   5.426 -0.0082  0.0256 -0.0580
  710loPI    C311347  10.018  11.108   5.361 -0.1032 -0.1324 -0.0986
  710loPI   PO411348  10.432  11.375   5.608  0.3119  0.0242  0.1227
  710loPI   GL111349  10.287  11.444   6.049  0.2612 -0.3314 -0.0036
  710loPI   GL211350  10.442  11.736   6.035 -0.0186 -0.1196 -0.0182
  710loPI   C1A11351  10.049  11.571   6.489  0.0675  0.2502  0.2200
  710loPI   C2A11352   9.832  11.697   6.881 -0.0217  0.0132 -0.0515
  710loPI   C3A11353   9.584  11.479   7.296 -0.0756 -0.0927 -0.1172
  710loPI   C4A11354   9.446  11.431   7.654  0.2993 -0.1384 -0.2696
  710loPI   C5A11355   9.093  11.324   7.875  0.0679 -0.2171  0.0132
  710loPI   C6A11356   8.936  10.975   7.950  0.1186  0.1640  0.2466
  710loPI   C1B11357  10.506  11.711   6.466  0.0041  0.3709  0.0299
  710loPI   C2B11358  10.457  11.817   6.911 -0.1568  0.2228  0.0406
  710loPI   C3B11359  10.185  11.921   7.244  0.0017  0.2277  0.0286
  710loPI   C4B11360   9.762  11.923   7.401  0.0917  0.2768  0.1581
  711loPI    C111361   0.140   5.316   5.380  0.0018  0.0727 -0.0545
  711loPI    C211362   0.208   5.512   5.038 -0.1560  0.1180 -0.0608
  711loPI    C311363  -0.162   5.497   5.189 -0.0995  0.0373  0.0708
  711loPI   PO411364   0.300   5.510   5.542  0.0242 -0.4082 -0.2107
  711loPI   GL111365   0.386   5.516   5.882 -0.0402 -0.2074 -0.0774
  711loPI   GL211366   0.665   5.342   5.992 -0.0920 -0.2886 -0.0024
  711loPI   C1A11367   0.365   5.729   6.284 -0.2389 -0.0160 -0.2591
  711loPI   C2A11368   0.378   5.782   6.732  0.0176 -0.0439 -0.1590
  711loPI   C3A11369   0.462   5.801   7.212 -0.0615  0.4143  0.4033
  711loPI   C4A11370   0.396   5.740   7.553 -0.0297  0.1441 -0.3966
  711loPI   C5A11371   0.142   5.853   7.811 -0.0488 -0.0872 -0.0006
  711loPI   C6A11372  -0.199   5.925   8.020 -0.0495 -0.2564 -0.2677
  711loPI   C1B11373   0.675   5.385   6.436  0.1234 -0.1608  0.0221
  711loPI   C2B11374   0.676   5.417   6.955  0.0626 -0.0432 -0.0362
  711loPI   C3B11375   0.733   5.382   7.339  0.0456 -0.1700 -0.1170
  711loPI   C4B11376   0.593   5.322   7.784 -0.1594  0.1482  0.2407
  712loPI    C111377   9.614   6.949   5.210 -0.1441  0.3089 -0.0462
  712loPI    C211378   9.568   6.884   4.818  0.1123 -0.0202 -0.0260
  712loPI    C311379   9.935   6.907   4.976  0.0129  0.3023  0.1670
  712loPI   PO411380   9.513   7.182   5.312  0.3223  0.1338  0.1500
  712loPI   GL111381   9.214   7.274   5.615  0.4424 -0.0546  0.0389
  712loPI   GL211382   9.442   7.395   5.766  0.0411  0.1169  0.0654
  712loPI   C1A11383   9.048   6.994   5.902  0.0009  0.0966 -0.2503
  712loPI   C2A11384   8.957   6.747   6.265 -0.2538  0.0884  0.0330
  712loPI   C3A11385   8.947   6.614   6.692 -0.1327  0.1706  0.1578
  712loPI   C4A11386   8.866   6.543   7.084  0.1161  0.0299 -0.1031
  712loPI   C5A11387   8.852   6.400   7.477  0.2157 -0.0998 -0.1226
  712loPI   C6A11388   9.030   6.298   7.812 -0.0121 -0.0663  0.0185
  712loPI   C1B11389   9.597   7.334   6.192  0.1345 -0.1110 -0.0315
  712loPI   C2B11390   9.651   7.293   6.634 -0.1210  0.6213 -0.0704
  712loPI   C3B11391   9.678   7.263   7.090  0.1303 -0.0601  0.2542
  712loPI   C4B11392   9.591   7.293   7.506  0.1365  0.2777 -0.0073
  713loPI    C111393  14.266  11.238   5.596  0.2312  0.0399  0.2386
  713loPI    C211394  14.324  10.856   5.494 -0.1060  0.0759 -0.1151
  713loPI    C311395  14.463  11.148   5.259 -0.0423  0.1712  0.0394
  713loPI   PO411396  14.313  11.295   5.814 -0.1738  0.3351 -0.1337
  713loPI   GL111397  14.358  11.271   6.178 -0.1230 -0.2518  0.0187
  713loPI   GL211398  14.110  11.108   6.314 -0.1645 -0.0651 -0.0388
  713loPI   C1A11399  14.577  11.204   6.478  0.0620 -0.3943  0.1863
  713loPI   C2A11400  14.749  11.339   6.850 -0.1727  0.1128 -0.0072
  713loPI   C3A11401  14.730  11.348   7.268  0.3412 -0.0615 -0.4480
  713loPI   C4A11402  14.773  11.403   7.750  0.1156  0.1168 -0.1331
  713loPI   C5A11403  14.597  11.487   8.158  0.1002 -0.2608 -0.0485
  713loPI   C6A11404  14.269  11.789   8.063  0.0928 -0.2576 -0.0355
  713loPI   C1B11405  14.071  11.367   6.655 -0.3687  0.0561 -0.2126
  713loPI   C2B11406  14.208  11.332   7.112  0.1715  0.0920  0.0805
  713loPI   C3B11407  14.254  11.442   7.487 -0.0630  0.1901  0.3517
  713loPI   C4B11408  14.275  11.228   7.883  0.0582 -0.0516 -0.0439
  714loPI    C111409   1.784  16.152   4.934 -0.0156  0.0822  0.0415
  714loPI    C211410   1.804  16.342   4.582 -0.0515 -0.3727 -0.2130
  714loPI    C311411   2.133  16.179   4.740 -0.0133 -0.0742  0.0224
  714loPI   PO411412   1.597  16.325   5.027 -0.3282  0.1688  0.0755
  714loPI   GL111413   1.595  16.396   5.432 -0.1182  0.0486 -0.0882
  714loPI   GL211414   1.843  16.252   5.473 -0.1761 -0.2367  0.0323
  714loPI   C1A11415   1.561  16.167   5.825 -0.0786  0.2341 -0.3082
  714loPI   C2A11416   1.530  16.295   6.202  0.1851  0.0485 -0.2057
  714loPI   C3A11417   1.283  16.601   6.490  0.1763 -0.0815  0.1520
  714loPI   C4A11418   1.280  16.736   6.986 -0.1505 -0.3765  0.0221
  714loPI   C5A11419   1.449  16.771   7.372 -0.0573 -0.0279  0.0733
  714loPI   C6A11420   1.839  16.685   7.564  0.1452  0.1782  0.1221
  714loPI   C1B11421   2.136  16.244   5.874 -0.2269  0.1683  0.0397
  714loPI   C2B11422   2.072  16.312   6.318  0.0711 -0.1388 -0.1022
  714loPI   C3B11423   2.168  16.331   6.775  0.0943 -0.1821 -0.1087
  714loPI   C4B11424   2.151  16.310   7.210 -0.0249 -0.1268  0.2531
  715loPI    C111425   9.020  17.050   5.058 -0.1258 -0.0217 -0.0874
  715loPI    C211426   9.245  16.732   5.149  0.0470  0.1411  0.0630
  715loPI    C311427   9.100  16.775   4.779  0.4151  0.1249 -0.0869
  715loPI   PO411428   8.915  17.082   5.413 -0.1459 -0.0307 -0.1719
  715loPI   GL111429   8.629  16.868   5.624 -0.0919 -0.1677  0.1181
  715loPI   GL211430   8.354  17.142   5.654 -0.3037  0.0069  0.4133
  715loPI   C1A11431   8.665  17.065   6.041  0.1046  0.0124  0.0638
  715loPI   C2A11432   8.623  17.090   6.492 -0.0223 -0.0973  0.0569
  715loPI   C3A11433   8.496  17.255   6.849 -0.3709 -0.0806  0.2145
  715loPI   C4A11434   8.401  17.385   7.236 -0.2532 -0.0858 -0.0027
  715loPI   C5A11435   8.235  17.508   7.557  0.0305  0.0298 -0.1856
  715loPI   C6A11436   8.133  17.838   7.667  0.0047  0.1939  0.1708
  715loPI   C1B11437   8.377  17.503   5.906 -0.2932  0.1062 -0.2175
  715loPI   C2B11438   8.322  17.528   6.334 -0.0221 -0.2011  0.0454
  715loPI   C3B11439   8.154  17.649   6.682  0.1713 -0.0719  0.1753
  715loPI   C4B11440   8.085  17.779   7.111  0.0413  0.1283 -0.1582
  716loPI    C111441  16.276  11.891   5.399  0.2303  0.1187  0.1715
  716loPI    C211442  16.289  11.779   5.016 -0.1307  0.0200  0.1843
  716loPI    C311443  16.393  12.151   5.119 -0.0097  0.0402 -0.0048
  716loPI   PO411444  16.415  11.628   5.464 -0.1974  0.2716 -0.1012
  716loPI   GL111445  16.413  11.472   5.903 -0.0415  0.0836  0.1176
  716loPI   GL211446  16.632  11.265   5.838  0.0145  0.1720 -0.1652
  716loPI   C1A11447  16.257  11.393   6.296 -0.1489 -0.0482 -0.2697
  716loPI   C2A11448  16.249  11.407   6.789 -0.0351 -0.0037 -0.0994
  716loPI   C3A11449  16.272  11.431   7.173  0.2669 -0.0554  0.2105
  716loPI   C4A11450  16.377  11.422   7.599 -0.4027 -0.0675 -0.0253
  716loPI   C5A11451  16.407  11.591   8.003 -0.0160 -0.1432  0.2363
  716loPI   C6A11452  16.430  11.897   8.244  0.0224  0.1224  0.1167
  716loPI   C1B11453  16.816  11.517   6.138 -0.3054  0.0285 -0.0547
  716loPI   C2B11454  16.720  11.453   6.543  0.0719  0.0338 -0.2259
  716loPI   C3B11455  16.765  11.444   6.919  0.1638 -0.0999  0.3025
  716loPI   C4B11456  16.801  11.431   7.354  0.0767  0.2952  0.0247
  717loPI    C111457  14.860  17.027   5.061  0.1517 -0.1600  0.0446
  717loPI    C211458  14.694  17.143   4.716  0.2056 -0.1252  0.0302
  717loPI    C311459  14.551  16.822   4.909  0.0090  0.0065  0.1068
  717loPI   PO411460  15.060  17.294   5.063  0.1222 -0.0915 -0.0876
  717loPI   GL111461  15.072  17.400   5.572  0.1601  0.2612  0.1310
  717loPI   GL211462  14.860  17.200   5.567  0.2430 -0.1246  0.4443
  717loPI   C1A11463  15.015  17.186   6.059  0.1767 -0.4825 -0.0140
  717loPI   C2A11464  14.981  17.141   6.482 -0.1178  0.0126 -0.1077
  717loPI   C3A11465  15.028  17.211   6.971 -0.1247 -0.0027 -0.1550
  717loPI   C4A11466  14.972  17.157   7.463  0.0838  0.2026  0.3076
  717loPI   C5A11467  15.015  17.273   7.866 -0.1130  0.1042 -0.0136
  717loPI   C6A11468  15.334  17.650   7.862 -0.0519 -0.1063  0.0198
  717loPI   C1B11469  14.547  17.124   5.848  0.3006 -0.0704  0.0171
  717loPI   C2B11470  14.503  17.019   6.265  0.0103 -0.0525  0.1337
  717loPI   C3B11471  14.505  17.087   6.729 -0.2090  0.0799 -0.1360
  717loPI   C4B11472  14.500  17.063   7.180 -0.0202 -0.0549 -0.0416
  718loPI    C111473  14.039  16.393   5.362  0.0809  0.1386  0.0952
  718loPI    C211474  14.039  16.099   5.090  0.0191  0.1156  0.1197
  718loPI    C311475  13.786  16.407   5.052 -0.0572  0.0636  0.2027
  718loPI   PO411476  14.058  16.261   5.572  0.0731  0.0490 -0.1065
  718loPI   GL111477  13.988  16.066   5.997  0.1432 -0.1246 -0.0783
  718loPI   GL211478  14.349  16.028   5.933 -0.2077 -0.0735 -0.2775
  718loPI   C1A11479  14.012  16.129   6.433 -0.0120  0.1239  0.0367
  718loPI   C2A11480  13.976  16.169   6.787 -0.0737  0.0787  0.1408
  718loPI   C3A11481  14.011  16.227   7.196 -0.0465  0.1529  0.1537
  718loPI   C4A11482  14.030  16.132   7.643 -0.0728  0.3196 -0.0629
  718loPI   C5A11483  13.967  16.471   7.914 -0.0853 -0.1861  0.0452
  718loPI   C6A11484  13.925  16.737   8.352 -0.1252 -0.2353 -0.0872
  718loPI   C1B11485  14.540  16.141   6.322 -0.0376  0.2750  0.1105
  718loPI   C2B11486  14.578  16.216   6.799 -0.2186 -0.1842  0.2413
  718loPI   C3B11487  14.540  16.286   7.237 -0.1987 -0.3589  0.0202
  718loPI   C4B11488  14.618  16.203   7.655 -0.0986 -0.1860  0.1974
  719loPI    C111489   2.074   8.666   5.031  0.1623 -0.0339  0.0691
  719loPI    C211490   2.311   8.344   5.045  0.0829 -0.0988 -0.0528
  719loPI    C311491   2.412   8.657   4.816  0.0653 -0.1144 -0.0818
  719loPI   PO411492   2.082   8.697   5.257  0.0084 -0.2747  0.0428
  719loPI   GL111493   1.916   8.596   5.674 -0.0021  0.0696 -0.1683
  719loPI   GL211494   1.689   8.483   5.813 -0.0226 -0.0717 -0.0339
  719loPI   C1A11495   2.246   8.823   5.872 -0.0805 -0.0916 -0.0183
  719loPI   C2A11496   2.598   9.167   5.939  0.0457  0.3867 -0.2134
  719loPI   C3A11497   2.802   9.256   6.324  0.1357 -0.0942  0.1442
  719loPI   C4A11498   2.772   9.231   6.817  0.1050  0.0241 -0.0810
  719loPI   C5A11499   2.773   9.291   7.262 -0.2409 -0.0707  0.1577
  719loPI   C6A11500   2.651   9.497   7.630 -0.0282  0.0042 -0.3166
  719loPI   C1B11501   1.602   8.679   6.280  0.1407  0.0481  0.2287
  719loPI   C2B11502   1.520   8.627   6.671  0.1554  0.0603 -0.2635
  719loPI   C3B11503   1.500   8.622   7.120 -0.2285 -0.0690  0.0413
  719loPI   C4B11504   1.535   8.620   7.530 -0.4170  0.2575 -0.0523
  720loPI    C111505  10.544  12.892   5.170 -0.2477 -0.0291  0.1315
  720loPI    C211506  10.253  12.692   5.356  0.0016 -0.2759  0.2639
  720loPI    C311507  10.369  12.581   4.990 -0.2844  0.0226  0.0776
  720loPI   PO411508  10.732  12.901   5.368  0.0203  0.0505 -0.0323
  720loPI   GL111509  10.747  12.933   5.727 -0.1383  0.2388 -0.1809
  720loPI   GL211510  10.466  12.822   5.851  0.1616 -0.1344  0.1548
  720loPI   C1A11511  11.026  12.650   5.986 -0.1590  0.0367  0.0738
  720loPI   C2A11512  10.979  12.401   6.280  0.1824  0.0776  0.2365
  720loPI   C3A11513  10.999  12.458   6.703 -0.0378  0.1182  0.2003
  720loPI   C4A11514  10.915  12.457   7.166  0.0845  0.1809 -0.0104
  720loPI   C5A11515  10.934  12.531   7.642  0.0167 -0.0951 -0.0307
  720loPI   C6A11516  10.529  12.525   7.866  0.4454 -0.0830 -0.1522
  720loPI   C1B11517  10.555  12.695   6.324  0.1584  0.1909  0.0258
  720loPI   C2B11518  10.613  12.725   6.810  0.2154  0.1222 -0.0040
  720loPI   C3B11519  10.604  12.802   7.373 -0.0945  0.0889 -0.0529
  720loPI   C4B11520  10.831  13.001   7.739  0.1091  0.3498 -0.1965
  721loPI    C111521   2.133   1.737   5.145  0.0145  0.3282 -0.1827
  721loPI    C211522   1.839   1.867   4.907 -0.2153  0.1437 -0.0044
  721loPI    C311523   2.177   2.078   4.940 -0.3421  0.3797 -0.1804
  721loPI   PO411524   1.927   1.645   5.373 -0.1114 -0.0497  0.1270
  721loPI   GL111525   1.857   1.753   5.755 -0.0486 -0.1840 -0.0553
  721loPI   GL211526   1.998   2.053   5.808 -0.0914  0.2676  0.0860
  721loPI   C1A11527   1.881   1.447   6.057 -0.1702  0.0808  0.3618
  721loPI   C2A11528   1.944   1.531   6.529  0.4010  0.1336 -0.2198
  721loPI   C3A11529   1.908   1.531   6.892 -0.1961 -0.0980  0.0669
  721loPI   C4A11530   1.900   1.466   7.291 -0.3046 -0.1685  0.2412
  721loPI   C5A11531   2.028   1.676   7.597  0.0793 -0.5874 -0.4273
  721loPI   C6A11532   2.122   1.588   8.060 -0.0680 -0.0403 -0.0674
  721loPI   C1B11533   2.059   1.890   6.184 -0.1324  0.2198 -0.0590
  721loPI   C2B11534   2.127   1.947   6.683 -0.2584 -0.1637  0.0480
  721loPI   C3B11535   2.100   2.050   7.194 -0.0509  0.0117  0.0933
  721loPI   C4B11536   1.871   2.153   7.518 -0.2067  0.1453  0.1850
  722loPI    C111537   4.706  11.538   5.515 -0.1167 -0.0450  0.0716
  722loPI    C211538   4.441  11.461   5.225 -0.0483  0.1389 -0.0421
  722loPI    C311539   4.717  11.745   5.172 -0.0862  0.2304  0.2360
  722loPI   PO411540   4.792  11.346   5.637 -0.0010  0.1653  0.2366
  722loPI   GL111541   4.741  11.409   6.053 -0.0764  0.3047 -0.0060
  722loPI   GL211542   4.637  11.786   5.943  0.3416  0.0485  0.0571
  722loPI   C1A11543   4.835  11.229   6.523 -0.0784 -0.0031 -0.2106
  722loPI   C2A11544   4.705  11.141   6.882 -0.1226 -0.3398 -0.0818
  722loPI   C3A11545   4.606  11.156   7.329  0.0847 -0.0001  0.0886
  722loPI   C4A11546   4.895  11.152   7.723  0.0523  0.0530 -0.0052
  722loPI   C5A11547   5.164  10.860   7.798  0.1051  0.1119  0.2458
  722loPI   C6A11548   5.482  10.731   7.885  0.2270  0.0032  0.0522
  722loPI   C1B11549   4.282  11.966   6.141 -0.0474 -0.1229  0.0480
  722loPI   C2B11550   4.058  11.975   6.537  0.3157 -0.1448  0.2450
  722loPI   C3B11551   4.003  12.065   6.980 -0.0798 -0.0175  0.0048
  722loPI   C4B11552   3.865  12.081   7.406 -0.0240 -0.0835  0.3708
  723loPI    C111553  15.653   8.984   5.202 -0.0853  0.2284 -0.0060
  723loPI    C211554  15.327   8.923   4.979  0.0888  0.1015 -0.2317
  723loPI    C311555  15.657   9.074   4.812  0.2896 -0.1913 -0.1086
  723loPI   PO411556  15.598   9.052   5.496 -0.2311 -0.0272  0.1437
  723loPI   GL111557  15.532   8.922   5.913  0.1384  0.2463 -0.2276
  723loPI   GL211558  15.236   8.765   6.061  0.2145  0.0678  0.1502
  723loPI   C1A11559  15.597   9.206   6.269  0.0222 -0.0931 -0.0117
  723loPI   C2A11560  15.549   9.206   6.694  0.0169  0.1451 -0.1688
  723loPI   C3A11561  15.629   9.159   7.086  0.5394 -0.3059  0.0773
  723loPI   C4A11562  15.632   9.207   7.534  0.0356 -0.1011  0.1754
  723loPI   C5A11563  15.663   9.149   7.880  0.1094 -0.2271 -0.1405
  723loPI   C6A11564  15.545   9.233   8.332  0.0155  0.0141 -0.0786
  723loPI   C1B11565  15.352   8.814   6.449  0.1257  0.1892  0.0494
  723loPI   C2B11566  15.343   8.682   6.898 -0.0834 -0.1592 -0.0944
  723loPI   C3B11567  15.463   8.683   7.334  0.1426  0.2085 -0.2023
  723loPI   C4B11568  15.504   8.689   7.721 -0.2470  0.3977  0.1951
  724loPI    C111569  10.491   2.213   5.149  0.0526 -0.0191  0.0801
  724loPI    C211570  10.520   1.959   4.841  0.2057  0.0553  0.0321
  724loPI    C311571  10.851   2.097   5.018  0.1199  0.0903  0.1667
  724loPI   PO411572  10.360   2.103   5.419 -0.0730  0.1044 -0.0147
  724loPI   GL111573  10.410   2.069   5.799 -0.3036  0.2146 -0.1764
  724loPI   GL211574  10.500   2.326   5.937 -0.2925  0.1101 -0.0598
  724loPI   C1A11575  10.420   1.914   6.206  0.0412  0.0684 -0.1005
  724loPI   C2A11576  10.558   2.023   6.552 -0.0996  0.1897  0.0156
  724loPI   C3A11577  10.467   2.076   6.858  0.1532  0.0487  0.0292
  724loPI   C4A11578  10.349   2.263   7.297  0.1639 -0.1458  0.0463
  724loPI   C5A11579  10.471   2.313   7.671 -0.0635  0.2268  0.1186
  724loPI   C6A11580  10.495   2.544   8.005  0.2489  0.2852  0.0405
  724loPI   C1B11581  10.663   2.479   6.329 -0.2826 -0.0066  0.0322
  724loPI   C2B11582  10.802   2.600   6.723  0.1504 -0.0980 -0.1311
  724loPI   C3B11583  10.809   2.513   7.105  0.0164 -0.0405 -0.1208
  724loPI   C4B11584  10.872   2.555   7.519 -0.2112 -0.0318  0.1129
  725loPI    C111585  15.987  12.428   5.132 -0.0278  0.0172 -0.0539
  725loPI    C211586  16.341  12.613   5.152  0.0362 -0.1009 -0.0889
  725loPI    C311587  16.021  12.808   5.011  0.0672  0.0345  0.0265
  725loPI   PO411588  15.994  12.360   5.388 -0.0786 -0.1062 -0.0750
  725loPI   GL111589  16.075  12.260   5.762  0.1609 -0.1919 -0.1327
  725loPI   GL211590  15.747  12.188   5.869  0.1533 -0.0650  0.3432
  725loPI   C1A11591  16.153  12.375   6.127  0.0044 -0.0580  0.2374
  725loPI   C2A11592  16.073  12.171   6.510 -0.0992 -0.2599 -0.0042
  725loPI   C3A11593  16.183  12.303   6.981 -0.2081  0.1479 -0.2773
  725loPI   C4A11594  16.208  12.446   7.313 -0.1732  0.1152  0.0966
  725loPI   C5A11595  16.260  12.437   7.715 -0.3618  0.0575  0.1509
  725loPI   C6A11596  16.185  12.808   8.026  0.1261  0.1567 -0.1594
  725loPI   C1B11597  15.610  12.195   6.253  0.1218 -0.0380  0.1263
  725loPI   C2B11598  15.633  12.317   6.658  0.0085  0.0873 -0.0599
  725loPI   C3B11599  15.692  12.345   7.102  0.0908 -0.0938  0.2886
  725loPI   C4B11600  15.752  12.306   7.524  0.1259 -0.3000  0.1272
  726loPI    C111601   7.655  18.366   5.228  0.2242  0.0777 -0.0378
  726loPI    C211602   7.843  18.075   5.028  0.0215 -0.1538  0.1031
  726loPI    C311603   8.038  18.285   5.307  0.2501  0.0413 -0.1979
  726loPI   PO411604   7.415  18.273   5.246 -0.0817  0.2844  0.1473
  726loPI   GL111605   7.179  18.140   5.440  0.0748  0.0194 -0.0444
  726loPI   GL211606   6.924  18.237   5.416  0.1772 -0.3238  0.2758
  726loPI   C1A11607   6.956  17.931   5.755 -0.2204 -0.1819 -0.1219
  726loPI   C2A11608   6.946  17.966   6.188 -0.7227  0.0295 -0.3324
  726loPI   C3A11609   6.910  17.924   6.625 -0.1139 -0.0668  0.0390
  726loPI   C4A11610   6.880  18.022   7.117  0.2468 -0.0914 -0.1355
  726loPI   C5A11611   6.743  17.986   7.490 -0.0376 -0.0236  0.3467
  726loPI   C6A11612   6.786  18.245   7.818  0.1889  0.1070 -0.0748
  726loPI   C1B11613   6.671  18.354   5.742  0.0364  0.0867 -0.0709
  726loPI   C2B11614   6.652  18.397   6.152  0.1128 -0.0223 -0.0576
  726loPI   C3B11615   6.694  18.446   6.678 -0.1497  0.1379  0.0957
  726loPI   C4B11616   6.562  18.417   7.115  0.0406  0.2086  0.1996
  727loPI    C111617   4.359   5.354   5.110  0.1184 -0.1117 -0.1962
  727loPI    C211618   4.513   4.986   5.088 -0.1655 -0.2303 -0.2443
  727loPI    C311619   4.534   5.231   4.773  0.1015 -0.1720 -0.1833
  727loPI   PO411620   4.419   5.426   5.433  0.0916  0.2010 -0.1936
  727loPI   GL111621   4.396   5.135   5.797 -0.1409 -0.2797 -0.0142
  727loPI   GL211622   4.672   5.282   5.910  0.2113  0.0502  0.0119
  727loPI   C1A11623   4.409   4.847   6.110  0.1591 -0.0241  0.2319
  727loPI   C2A11624   4.390   4.819   6.632  0.2657  0.2176 -0.2858
  727loPI   C3A11625   4.352   4.956   7.055 -0.2043  0.0490 -0.1194
  727loPI   C4A11626   4.343   4.829   7.552  0.1884 -0.2706  0.0935
  727loPI   C5A11627   4.355   4.729   8.081 -0.1813 -0.0537 -0.2840
  727loPI   C6A11628   4.530   4.625   8.398  0.1364 -0.1784 -0.1581
  727loPI   C1B11629   4.654   5.263   6.307  0.0877 -0.4063  0.1517
  727loPI   C2B11630   4.639   5.362   6.746 -0.1954 -0.3060  0.0368
  727loPI   C3B11631   4.546   5.507   7.205 -0.1407 -0.3291 -0.1149
  727loPI   C4B11632   4.765   5.417   7.679 -0.1584  0.1757 -0.1099
  728loPI    C111633   9.689   1.561   5.237  0.1898 -0.0280 -0.0513
  728loPI    C211634   9.722   1.407   4.869 -0.3000 -0.0430 -0.0965
  728loPI    C311635   9.389   1.600   4.976 -0.1125  0.0717  0.3027
  728loPI   PO411636   9.739   1.406   5.426  0.1485  0.0004  0.1816
  728loPI   GL111637   9.591   1.332   5.800 -0.2143  0.0628  0.2504
  728loPI   GL211638   9.343   1.519   5.938 -0.1116 -0.2687  0.0338
  728loPI   C1A11639   9.699   1.218   6.185 -0.3072  0.0317  0.0390
  728loPI   C2A11640   9.648   1.267   6.577  0.2835  0.1762 -0.3376
  728loPI   C3A11641   9.600   1.133   6.971  0.0325 -0.0793 -0.0835
  728loPI   C4A11642   9.783   1.142   7.387 -0.3488 -0.0459  0.0260
  728loPI   C5A11643  10.121   1.345   7.577 -0.0580  0.1143 -0.2682
  728loPI   C6A11644  10.296   1.768   7.680 -0.0802 -0.1524  0.0775
  728loPI   C1B11645   9.296   1.656   6.344 -0.2274 -0.1515 -0.0225
  728loPI   C2B11646   9.470   1.762   6.807  0.0807  0.0750 -0.0495
  728loPI   C3B11647   9.428   1.999   7.249  0.5526 -0.1835 -0.1170
  728loPI   C4B11648   9.401   2.107   7.699 -0.2183 -0.0234 -0.0966
  729loPI    C111649   4.488   8.760   5.348 -0.0954  0.1698  0.0880
  729loPI    C211650   4.326   8.408   5.449  0.0056  0.0762 -0.0703
  729loPI    C311651   4.151   8.636   5.171  0.0799  0.0304 -0.1550
  729loPI   PO411652   4.547   8.863   5.502 -0.1190  0.0548  0.0105
  729loPI   GL111653   4.533   8.974   5.924 -0.0207 -0.0814  0.1957
  729loPI   GL211654   4.908   9.014   5.962  0.4079  0.0069 -0.0157
  729loPI   C1A11655   4.364   8.996   6.353 -0.1112  0.3900  0.3307
  729loPI   C2A11656   4.156   9.044   6.766 -0.2213 -0.1800  0.1446
  729loPI   C3A11657   4.029   9.068   7.113  0.1764  0.1233  0.0478
  729loPI   C4A11658   3.970   8.931   7.602  0.0023 -0.2351 -0.1052
  729loPI   C5A11659   4.349   8.831   7.909 -0.2852  0.2444  0.0556
  729loPI   C6A11660   4.731   8.669   7.864 -0.1310 -0.2735  0.1888
  729loPI   C1B11661   4.930   8.911   6.411  0.3179  0.1404  0.2163
  729loPI   C2B11662   4.688   8.946   6.764  0.1121 -0.0362  0.1312
  729loPI   C3B11663   4.790   8.798   7.242 -0.0085 -0.0664 -0.3907
  729loPI   C4B11664   5.129   8.653   7.590  0.0364 -0.0108  0.1184
  730loPI    C111665   5.130  13.969   4.905 -0.2254  0.1325  0.0866
  730loPI    C211666   4.925  13.693   4.702 -0.0583 -0.0307  0.1376
  730loPI    C311667   5.312  13.753   4.622 -0.0980  0.2016  0.1151
  730loPI   PO411668   4.940  13.984   5.087  0.0960 -0.1247 -0.0905
  730loPI   GL111669   4.784  14.301   5.402 -0.0864  0.4207 -0.3238
  730loPI   GL211670   4.453  14.114   5.413  0.0029 -0.1362  0.1318
  730loPI   C1A11671   4.673  14.273   5.852 -0.1914 -0.1454  0.0595
  730loPI   C2A11672   4.614  14.335   6.369 -0.1643  0.1665 -0.2381
  730loPI   C3A11673   4.512  14.284   6.806  0.0657 -0.3522 -0.2441
  730loPI   C4A11674   4.511  14.330   7.271 -0.0383  0.1106 -0.2595
  730loPI   C5A11675   4.439  14.557   7.711  0.1220 -0.0363 -0.0383
  730loPI   C6A11676   4.257  14.685   8.151  0.2415  0.0282  0.4665
  730loPI   C1B11677   4.185  14.325   5.694 -0.0156 -0.0127 -0.1705
  730loPI   C2B11678   4.131  14.356   6.161 -0.2310 -0.0973 -0.0198
  730loPI   C3B11679   4.040  14.318   6.578  0.2245  0.1874  0.0945
  730loPI   C4B11680   4.015  14.341   6.963  0.0629 -0.1122  0.0432
  731loPI    C111681   0.482   0.978   4.919 -0.1067 -0.1416  0.0647
  731loPI    C211682   0.575   0.712   4.635 -0.0404  0.0160 -0.0626
  731loPI    C311683   0.865   0.917   4.819 -0.1009  0.1164 -0.0782
  731loPI   PO411684   0.334   0.867   5.074 -0.1553 -0.0588 -0.1225
  731loPI   GL111685   0.328   0.637   5.443  0.2672 -0.1342  0.0252
  731loPI   GL211686   0.199   0.384   5.425 -0.1781 -0.0173  0.0777
  731loPI   C1A11687   0.506   0.433   5.850  0.1792 -0.1542 -0.0213
  731loPI   C2A11688   0.622   0.279   6.283  0.1647 -0.1269 -0.0608
  731loPI   C3A11689   0.734   0.166   6.720  0.0190  0.3614 -0.2264
  731loPI   C4A11690   0.758   0.152   7.151 -0.0190  0.1088  0.2394
  731loPI   C5A11691   0.910  -0.004   7.534  0.0602 -0.0879  0.1986
  731loPI   C6A11692   1.008  -0.425   7.688 -0.0991  0.5765 -0.4109
  731loPI   C1B11693   0.126   0.123   5.680 -0.1159  0.2563 -0.1275
  731loPI   C2B11694   0.063   0.122   6.114  0.0720  0.2731  0.0186
  731loPI   C3B11695   0.168   0.105   6.542  0.1596 -0.2273  0.2880
  731loPI   C4B11696   0.217  -0.015   6.968  0.0560 -0.2114 -0.1739
  732loPI    C111697  16.525  17.703   5.052 -0.0300 -0.0126 -0.0729
  732loPI    C211698  16.705  17.376   4.910 -0.1453 -0.1019 -0.0157
  732loPI    C311699  16.809  17.737   4.773  0.1355 -0.1443  0.0775
  732loPI   PO411700  16.539  17.659   5.334  0.0272 -0.1044  0.0687
  732loPI   GL111701  16.772  17.446   5.538 -0.3537 -0.1855  0.0172
  732loPI   GL211702  16.507  17.332   5.879  0.2278  0.2411 -0.0418
  732loPI   C1A11703  16.743  17.770   5.991 -0.0285  0.1531  0.1405
  732loPI   C2A11704  16.686  17.799   6.381  0.2842 -0.3230 -0.0788
  732loPI   C3A11705  16.708  17.800   6.804 -0.2199 -0.1446  0.3522
  732loPI   C4A11706  16.698  17.799   7.219  0.0868 -0.3252  0.2121
  732loPI   C5A11707  16.633  17.792   7.746 -0.1873  0.1990 -0.3074
  732loPI   C6A11708  16.271  17.571   7.893 -0.1478  0.1423  0.2370
  732loPI   C1B11709  16.488  17.324   6.305  0.3015 -0.4082 -0.1007
  732loPI   C2B11710  16.549  17.316   6.667  0.1460  0.0098 -0.0163
  732loPI   C3B11711  16.498  17.334   7.091  0.3568  0.1221  0.2532
  732loPI   C4B11712  16.420  17.344   7.471 -0.4299  0.3003 -0.2415
  733loPI    C111713   3.471  10.146   5.082 -0.1230 -0.0371  0.2235
  733loPI    C211714   3.566  10.523   4.988  0.0017 -0.0831  0.1626
  733loPI    C311715   3.599  10.234   4.714  0.0537 -0.1640  0.2532
  733loPI   PO411716   3.577  10.065   5.240 -0.3623  0.0304 -0.0589
  733loPI   GL111717   3.680   9.975   5.612  0.2733  0.3964  0.0615
  733loPI   GL211718   4.011  10.028   5.479 -0.1818 -0.2074  0.2080
  733loPI   C1A11719   3.555   9.853   6.019 -0.2631 -0.2894  0.0201
  733loPI   C2A11720   3.530   9.706   6.465  0.0181 -0.0497  0.2791
  733loPI   C3A11721   3.430   9.815   6.896  0.2468  0.0222  0.1077
  733loPI   C4A11722   3.441   9.775   7.305 -0.0637  0.1551  0.0937
  733loPI   C5A11723   3.527   9.834   7.710  0.0914 -0.1675  0.1777
  733loPI   C6A11724   3.595  10.112   7.999  0.0034 -0.0139  0.0189
  733loPI   C1B11725   3.945  10.210   5.990  0.0046  0.0031  0.1792
  733loPI   C2B11726   3.704  10.213   6.427 -0.0385 -0.1384  0.2037
  733loPI   C3B11727   3.268  10.195   6.559  0.1637 -0.2267  0.1593
  733loPI   C4B11728   3.109  10.185   7.031  0.0110  0.1156  0.0008
  734loPI    C111729  13.367  11.726   5.511  0.0180 -0.2549 -0.0039
  734loPI    C211730  13.450  11.482   5.206  0.0827 -0.0755 -0.1314
  734loPI    C311731  13.255  11.825   5.140 -0.1312 -0.1565  0.0660
  734loPI   PO411732  13.245  11.651   5.672  0.0261  0.2144 -0.1100
  734loPI   GL111733  13.479  11.553   5.980  0.0778 -0.2167  0.1435
  734loPI   GL211734  13.692  11.431   6.263  0.2489  0.0422 -0.2239
  734loPI   C1A11735  13.322  11.771   6.336 -0.1136 -0.0944  0.0094
  734loPI   C2A11736  13.200  12.081   6.722  0.1369 -0.2498 -0.3363
  734loPI   C3A11737  13.374  11.927   7.132 -0.1848 -0.3015  0.0806
  734loPI   C4A11738  13.346  11.862   7.567  0.1019  0.0485 -0.3210
  734loPI   C5A11739  13.317  11.537   7.949 -0.0954  0.1519 -0.1225
  734loPI   C6A11740  13.404  11.452   8.455 -0.0893 -0.0789 -0.0623
  734loPI   C1B11741  13.590  11.120   6.539 -0.1868 -0.1725  0.1804
  734loPI   C2B11742  13.680  11.143   6.987  0.1103  0.3130  0.1562
  734loPI   C3B11743  13.795  11.077   7.388  0.1622  0.0151 -0.2836
  734loPI   C4B11744  13.762  11.452   7.675 -0.1734  0.1491  0.3153
  735loPI    C111745  10.778  10.583   5.276  0.1729 -0.1525 -0.0267
  735loPI    C211746  10.815  10.947   5.115  0.1580 -0.1423 -0.0067
  735loPI    C311747  11.047  10.647   4.987  0.1227 -0.1423 -0.0711
  735loPI   PO411748  10.784  10.609   5.527  0.0777  0.3661  0.1681
  735loPI   GL111749  10.664  10.692   5.937 -0.2705  0.0522  0.2015
  735loPI   GL211750  10.461  10.922   5.921  0.0876 -0.1948  0.2333
  735loPI   C1A11751  10.770  10.620   6.387  0.1296 -0.2067  0.2522
  735loPI   C2A11752  10.785  10.824   6.628  0.0657 -0.0721  0.0119
  735loPI   C3A11753  10.697  11.022   7.020  0.3685 -0.2026  0.2877
  735loPI   C4A11754  10.797  11.053   7.420 -0.1066 -0.1536  0.0462
  735loPI   C5A11755  10.637  10.772   7.801 -0.1047 -0.1876 -0.0479
  735loPI   C6A11756  10.204  10.717   7.941 -0.1187 -0.0307 -0.2095
  735loPI   C1B11757  10.468  11.002   6.251 -0.2637 -0.3696 -0.3745
  735loPI   C2B11758  10.349  11.175   6.618  0.0925  0.1134  0.2641
  735loPI   C3B11759  10.274  11.354   6.983  0.2061  0.1166  0.0397
  735loPI   C4B11760  10.535  11.472   7.288 -0.1403  0.0035  0.2351
  736loPI    C111761  10.672  17.608   5.098 -0.0759  0.2361  0.0034
  736loPI    C211762  10.359  17.395   4.969  0.0220 -0.0071  0.1605
  736loPI    C311763  10.727  17.307   4.841  0.0854 -0.0608  0.3758
  736loPI   PO411764  10.654  17.635   5.355 -0.0209  0.0666  0.1609
  736loPI   GL111765  10.497  17.594   5.754 -0.1028 -0.0201 -0.3125
  736loPI   GL211766  10.096  17.489   5.747 -0.1031  0.1795 -0.1075
  736loPI   C1A11767  10.396  17.626   6.175 -0.1530 -0.0295  0.0249
  736loPI   C2A11768  10.337  17.681   6.586 -0.1929  0.1486 -0.0748
  736loPI   C3A11769  10.261  17.710   6.983 -0.1063  0.0043 -0.2322
  736loPI   C4A11770  10.143  17.711   7.421 -0.1218 -0.0874  0.1652
  736loPI   C5A11771  10.031  17.848   7.852  0.3271  0.1290  0.1003
  736loPI   C6A11772  10.467  18.067   7.858 -0.1972 -0.0427 -0.0336
  736loPI   C1B11773   9.886  17.592   6.151  0.1904 -0.0612 -0.0528
  736loPI   C2B11774   9.853  17.666   6.616 -0.4355  0.1012 -0.0846
  736loPI   C3B11775   9.721  17.671   7.011 -0.1743 -0.3055 -0.1449
  736loPI   C4B11776   9.397  17.363   7.121 -0.0979  0.1684 -0.0085
  737loPI    C111777  10.600   6.238   5.090  0.3097 -0.0668 -0.1081
  737loPI    C211778  10.385   6.571   5.035  0.1739 -0.1181  0.0965
  737loPI    C311779  10.683   6.481   4.783  0.0442  0.0235 -0.1112
  737loPI   PO411780  10.665   6.233   5.377  0.1640  0.0932  0.0112
  737loPI   GL111781  10.796   6.353   5.766  0.0855 -0.0535 -0.3507
  737loPI   GL211782  10.478   6.442   5.803  0.1839  0.1813  0.2357
  737loPI   C1A11783  10.780   6.446   6.204  0.0257 -0.1110  0.1028
  737loPI   C2A11784  10.779   6.497   6.613  0.0910  0.0733  0.2205
  737loPI   C3A11785  10.670   6.527   7.000  0.0933  0.0203  0.0025
  737loPI   C4A11786  10.660   6.502   7.519  0.1133 -0.1052 -0.0334
  737loPI   C5A11787  10.776   6.476   7.912  0.2774 -0.3690  0.0851
  737loPI   C6A11788  10.663   6.351   8.352 -0.1381 -0.2228 -0.2215
  737loPI   C1B11789  10.313   6.653   6.168  0.1219  0.1373  0.1191
  737loPI   C2B11790  10.308   6.675   6.570  0.2658 -0.3330  0.0199
  737loPI   C3B11791  10.230   6.660   6.924  0.1207  0.2939  0.0747
  737loPI   C4B11792  10.256   6.661   7.340  0.1469  0.2235  0.2545
  738loPI    C111793  16.284   5.105   4.962  0.2361 -0.1725 -0.1025
  738loPI    C211794  16.459   5.277   4.646  0.1622 -0.0261 -0.0645
  738loPI    C311795  16.067   5.198   4.640  0.1648 -0.0439 -0.0184
  738loPI   PO411796  16.320   5.253   5.173 -0.0742  0.3193  0.0696
  738loPI   GL111797  16.452   5.374   5.587  0.1861  0.1302 -0.1694
  738loPI   GL211798  16.273   5.018   5.670 -0.0597 -0.1465 -0.2573
  738loPI   C1A11799  16.612   5.371   5.975  0.0335 -0.1189  0.0631
  738loPI   C2A11800  16.643   5.309   6.402  0.0506  0.0598 -0.0559
  738loPI   C3A11801  16.720   5.380   6.805 -0.2079  0.0366 -0.0547
  738loPI   C4A11802  16.731   5.368   7.213 -0.1517 -0.0154 -0.1526
  738loPI   C5A11803  16.850   5.465   7.639  0.0101 -0.2509 -0.3853
  738loPI   C6A11804  17.121   5.354   7.937 -0.2159 -0.2156 -0.2605
  738loPI   C1B11805  16.375   4.962   6.161 -0.5052 -0.1125 -0.0771
  738loPI   C2B11806  16.498   4.904   6.567 -0.0462  0.1199  0.0303
  738loPI   C3B11807  16.606   4.836   7.008  0.0527 -0.5347 -0.2077
  738loPI   C4B11808  16.538   4.852   7.469  0.0944  0.0705  0.0039
  739loPI    C111809  11.637   1.678   5.071 -0.1803  0.0053  0.0088
  739loPI    C211810  11.796   2.044   5.050 -0.2097  0.0117 -0.1058
  739loPI    C311811  11.939   1.749   4.820 -0.2209 -0.0359 -0.0520
  739loPI   PO411812  11.684   1.648   5.333 -0.1265 -0.0213  0.4102
  739loPI   GL111813  11.572   1.695   5.779  0.0598  0.0926  0.0926
  739loPI   GL211814  11.323   1.686   5.676 -0.0503 -0.0775  0.0121
  739loPI   C1A11815  11.448   1.695   6.213  0.0848  0.0825  0.0529
  739loPI   C2A11816  11.433   1.734   6.675 -0.2045 -0.1761  0.1184
  739loPI   C3A11817  11.401   1.658   7.169 -0.0951  0.0039 -0.0484
  739loPI   C4A11818  11.415   1.386   7.526  0.0968 -0.1100 -0.2018
  739loPI   C5A11819  11.370   1.217   7.919  0.0052  0.0470 -0.1690
  739loPI   C6A11820  11.190   1.205   8.324 -0.2471 -0.2200  0.0808
  739loPI   C1B11821  11.039   1.867   5.956  0.1300 -0.2204  0.1254
  739loPI   C2B11822  10.994   2.100   6.312 -0.0428  0.0338 -0.1601
  739loPI   C3B11823  11.089   2.204   6.740  0.1013 -0.3732 -0.2371
  739loPI   C4B11824  11.269   2.161   7.197  0.3641  0.0116 -0.1922
  740loPI    C111825  17.777  16.120   5.071 -0.1735 -0.1333 -0.1250
  740loPI    C211826  17.546  16.447   5.063 -0.0384 -0.0301  0.0836
  740loPI    C311827  17.937  16.477   4.985 -0.0104 -0.1292  0.1834
  740loPI   PO411828  17.561  16.001   5.313  0.1430  0.3456  0.5215
  740loPI   GL111829  17.450  15.769   5.710  0.0253  0.4144 -0.0328
  740loPI   GL211830  17.722  16.062   5.777  0.1454  0.0402 -0.1249
  740loPI   C1A11831  17.055  15.859   5.873  0.0261  0.0488 -0.3781
  740loPI   C2A11832  16.960  15.938   6.341 -0.0045  0.1576  0.4162
  740loPI   C3A11833  16.923  16.050   6.767 -0.0035  0.0194 -0.0487
  740loPI   C4A11834  16.878  15.968   7.245  0.0984 -0.1583  0.3411
  740loPI   C5A11835  16.894  16.044   7.716 -0.0598  0.1348 -0.0483
  740loPI   C6A11836  16.721  16.134   8.122 -0.2860  0.3074 -0.0360
  740loPI   C1B11837  17.961  16.148   6.109  0.0738 -0.4852  0.2262
  740loPI   C2B11838  17.869  16.209   6.459  0.2946 -0.1476 -0.3726
  740loPI   C3B11839  17.898  16.098   6.879  0.0972 -0.0119  0.4133
  740loPI   C4B11840  17.955  16.131   7.299  0.3171 -0.0517  0.3255
  741loPI    C111841  16.161  13.278   5.072 -0.0375 -0.0937 -0.1840
  741loPI    C211842  16.084  13.650   5.197 -0.1384 -0.2202  0.1417
  741loPI    C311843  15.875  13.493   4.894  0.0384  0.0544 -0.1284
  741loPI   PO411844  16.236  13.170   5.339  0.0743 -0.0311 -0.1568
  741loPI   GL111845  16.378  13.412   5.646 -0.1469  0.1162 -0.2704
  741loPI   GL211846  16.603  13.190   5.764  0.0665  0.2648  0.1170
  741loPI   C1A11847  16.238  13.646   5.970  0.1881  0.0584  0.1272
  741loPI   C2A11848  16.286  13.728   6.405  0.1092  0.0508 -0.0407
  741loPI   C3A11849  16.346  13.733   6.811 -0.3496  0.0584 -0.4437
  741loPI   C4A11850  16.220  13.680   7.243 -0.1273 -0.1092 -0.0779
  741loPI   C5A11851  16.279  13.591   7.600 -0.0250  0.0946  0.0697
  741loPI   C6A11852  16.064  13.330   7.951  0.0885  0.0384  0.3729
  741loPI   C1B11853  16.545  13.256   6.205 -0.0561  0.2791  0.0615
  741loPI   C2B11854  16.581  13.198   6.665 -0.1805  0.0657  0.2473
  741loPI   C3B11855  16.475  13.283   7.059 -0.0128 -0.1169  0.1661
  741loPI   C4B11856  16.171  13.188   7.335  0.0258 -0.0788 -0.1378
  742loPI    C111857   2.783   5.066   4.721  0.0284 -0.1081 -0.1081
  742loPI    C211858   3.012   5.394   4.705 -0.0278 -0.0596  0.0652
  742loPI    C311859   3.131   5.058   4.523  0.0940  0.0179  0.0005
  742loPI   PO411860   2.714   5.118   4.986  0.0725  0.1599  0.2124
  742loPI   GL111861   2.653   5.036   5.403  0.1582 -0.1196 -0.2570
  742loPI   GL211862   2.462   5.312   5.560  0.1247 -0.0787 -0.0569
  742loPI   C1A11863   2.655   4.944   5.782 -0.3479  0.0100  0.0828
  742loPI   C2A11864   2.590   5.112   6.131  0.2835  0.1324  0.0032
  742loPI   C3A11865   2.567   5.160   6.617 -0.2461 -0.0417  0.3978
  742loPI   C4A11866   2.533   5.280   7.015 -0.0827  0.3958  0.4641
  742loPI   C5A11867   2.543   5.223   7.425  0.0216  0.2400 -0.1093
  742loPI   C6A11868   2.385   5.072   7.745 -0.0110  0.0160  0.1345
  742loPI   C1B11869   2.350   5.511   6.003  0.1228 -0.0375  0.1286
  742loPI   C2B11870   2.309   5.548   6.354  0.0468  0.3271  0.1359
  742loPI   C3B11871   2.220   5.597   6.749  0.0047  0.0998 -0.3031
  742loPI   C4B11872   2.226   5.606   7.201 -0.0041 -0.0941 -0.2287
  743loPI    C111873   3.588   6.073   5.131 -0.0105 -0.1481 -0.1427
  743loPI    C211874   3.370   6.408   5.107  0.1623 -0.0139  0.1237
  743loPI    C311875   3.552   6.264   4.781 -0.0416  0.0622 -0.0258
  743loPI   PO411876   3.478   5.885   5.194 -0.0393 -0.0223  0.1469
  743loPI   GL111877   3.354   5.825   5.567  0.2525  0.0093  0.0663
  743loPI   GL211878   3.426   5.619   5.805  0.2209 -0.1637 -0.0123
  743loPI   C1A11879   3.289   6.023   5.974  0.1719  0.1704 -0.1041
  743loPI   C2A11880   3.020   6.032   6.330  0.4161  0.1029  0.0970
  743loPI   C3A11881   2.958   6.154   6.796  0.3158  0.0728  0.2396
  743loPI   C4A11882   2.928   6.263   7.276  0.0010  0.2307  0.3485
  743loPI   C5A11883   3.230   6.252   7.652 -0.1577 -0.1034  0.0727
  743loPI   C6A11884   3.611   6.109   7.758 -0.0254  0.1778  0.1505
  743loPI   C1B11885   3.343   5.616   6.249  0.1538 -0.2932  0.1415
  743loPI   C2B11886   3.287   5.705   6.645  0.1543 -0.0945  0.1755
  743loPI   C3B11887   3.255   5.766   7.118  0.2270 -0.0943 -0.1692
  743loPI   C4B11888   3.165   5.816   7.526 -0.1614  0.0564 -0.2599
  744loPI    C111889  10.689  16.143   5.481  0.3287 -0.0404  0.1219
  744loPI    C211890  10.843  16.145   5.111  0.1400  0.2694  0.0415
  744loPI    C311891  10.454  16.071   5.166  0.2309 -0.1099  0.2102
  744loPI   PO411892  10.899  16.011   5.579  0.0101 -0.0097 -0.1407
  744loPI   GL111893  10.871  15.752   5.878 -0.0636  0.2943  0.2413
  744loPI   GL211894  11.142  15.630   5.923 -0.0888  0.0524 -0.3924
  744loPI   C1A11895  10.556  15.780   6.125  0.0100  0.2223  0.2374
  744loPI   C2A11896  10.385  15.841   6.483 -0.2703 -0.1674 -0.0887
  744loPI   C3A11897  10.332  15.835   6.909 -0.0563  0.0701 -0.0941
  744loPI   C4A11898  10.228  16.012   7.330 -0.0701 -0.1292  0.0609
  744loPI   C5A11899  10.230  16.115   7.756  0.1070  0.1457 -0.0137
  744loPI   C6A11900   9.980  15.946   8.116 -0.2807  0.0413 -0.1034
  744loPI   C1B11901  11.165  15.489   6.338 -0.1519  0.0904 -0.0366
  744loPI   C2B11902  11.257  15.380   6.753  0.2105  0.0183 -0.0638
  744loPI   C3B11903  11.182  15.399   7.186 -0.2001 -0.1872  0.2657
  744loPI   C4B11904  11.058  15.689   7.476  0.2849 -0.0213 -0.0243
  745loPI    C111905   4.271   8.155   5.035  0.0408  0.0160  0.0151
  745loPI    C211906   4.661   8.066   5.043  0.1060  0.2977  0.0760
  745loPI    C311907   4.541   8.428   4.921 -0.1529  0.1294 -0.1811
  745loPI   PO411908   4.135   8.008   5.166 -0.4782  0.1001 -0.2921
  745loPI   GL111909   4.016   8.018   5.615 -0.0744  0.1772  0.2109
  745loPI   GL211910   4.045   7.642   5.529  0.2496 -0.2110  0.1075
  745loPI   C1A11911   3.904   7.934   6.018  0.1606 -0.1685  0.0743
  745loPI   C2A11912   3.787   8.015   6.449 -0.1720  0.1202  0.2180
  745loPI   C3A11913   3.689   8.023   6.843 -0.0214 -0.1073 -0.1032
  745loPI   C4A11914   3.688   8.088   7.240 -0.1208  0.1020  0.0676
  745loPI   C5A11915   3.807   8.054   7.655 -0.0033 -0.1534 -0.0644
  745loPI   C6A11916   3.815   8.029   8.074  0.0032  0.1216 -0.0113
  745loPI   C1B11917   3.829   7.348   5.867  0.3808  0.1575  0.1767
  745loPI   C2B11918   3.552   7.235   6.186  0.1515  0.1259  0.2718
  745loPI   C3B11919   3.339   7.122   6.623 -0.0101 -0.1974  0.1021
  745loPI   C4B11920   3.266   7.148   7.096 -0.0623  0.1357 -0.1710
  746loPI    C111921  15.288   5.238   5.083 -0.1391  0.0276  0.2673
  746loPI    C211922  15.047   5.011   5.307 -0.0889 -0.1788  0.1157
  746loPI    C311923  15.110   4.918   4.923 -0.0258  0.0634  0.0652
  746loPI   PO411924  15.478   5.267   5.261 -0.0217  0.2194  0.4035
  746loPI   GL111925  15.883   5.207   5.467 -0.0368  0.0301 -0.1003
  746loPI   GL211926  15.674   4.978   5.617 -0.1980  0.0287  0.1630
  746loPI   C1A11927  16.023   5.317   5.943  0.3931 -0.4513 -0.1820
  746loPI   C2A11928  16.070   5.290   6.405  0.0406 -0.0036 -0.0158
  746loPI   C3A11929  16.198   5.322   6.844  0.1510  0.1788  0.4963
  746loPI   C4A11930  16.239   5.359   7.267 -0.0928  0.0020 -0.6618
  746loPI   C5A11931  16.314   5.327   7.684 -0.4575  0.0867  0.0749
  746loPI   C6A11932  16.420   5.695   7.934  0.0026 -0.1897  0.2110
  746loPI   C1B11933  15.546   5.161   5.897 -0.1040  0.0632  0.0193
  746loPI   C2B11934  15.586   5.188   6.334 -0.0468  0.2551  0.1474
  746loPI   C3B11935  15.673   5.252   6.746  0.0116  0.0686 -0.1417
  746loPI   C4B11936  15.765   5.242   7.143  0.0258  0.1859 -0.4726
  747loPI    C111937  14.626  17.520   5.158  0.1552 -0.0761  0.2152
  747loPI    C211938  14.818  17.736   4.881 -0.0868  0.0042  0.1075
  747loPI    C311939  14.447  17.604   4.810 -0.1313 -0.0187  0.3735
  747loPI   PO411940  14.720  17.655   5.372  0.3028  0.0246 -0.1849
  747loPI   GL111941  14.744  17.844   5.723 -0.2380  0.0180  0.0879
  747loPI   GL211942  14.666  17.583   5.901 -0.3081 -0.3271 -0.1300
  747loPI   C1A11943  14.845  17.996   6.088  0.2648  0.0076 -0.0274
  747loPI   C2A11944  14.906  18.043   6.473  0.1162  0.1208 -0.1277
  747loPI   C3A11945  14.932  18.065   6.921  0.0128 -0.1660  0.1383
  747loPI   C4A11946  14.885  18.034   7.337 -0.0400  0.1676 -0.0666
  747loPI   C5A11947  14.996  17.983   7.742  0.0799  0.0518 -0.0688
  747loPI   C6A11948  14.843  17.768   8.104 -0.0412  0.1121  0.1875
  747loPI   C1B11949  14.704  17.521   6.293  0.1290  0.0334 -0.1431
  747loPI   C2B11950  14.727  17.594   6.713  0.0443 -0.2863 -0.0193
  747loPI   C3B11951  14.683  17.580   7.156 -0.1384  0.1780 -0.0946
  747loPI   C4B11952  14.693  17.551   7.543 -0.2321 -0.2559  0.0512
  748loPI    C111953   1.729  10.945   4.846  0.1629  0.2325  0.0013
  748loPI    C211954   2.070  10.799   4.698 -0.0428 -0.2633 -0.0028
  748loPI    C311955   1.781  10.922   4.450 -0.0318 -0.2374 -0.0029
  748loPI   PO411956   1.758  10.716   5.066  0.0789  0.0653 -0.2737
  748loPI   GL111957   1.643  10.546   5.534  0.3858 -0.0294 -0.1564
  748loPI   GL211958   1.684  10.743   5.612 -0.0458  0.1912 -0.1050
  748loPI   C1A11959   1.867  10.458   5.981  0.0210  0.0173  0.3526
  748loPI   C2A11960   1.940  10.435   6.444 -0.0064 -0.0833 -0.1296
  748loPI   C3A11961   1.921  10.420   6.819  0.1752  0.2405  0.0487
  748loPI   C4A11962   1.830  10.479   7.199  0.0592  0.1575 -0.0392
  748loPI   C5A11963   1.700  10.369   7.662 -0.1145 -0.2698  0.3370
  748loPI   C6A11964   1.813  10.571   8.161  0.1179  0.0680  0.1333
  748loPI   C1B11965   1.556  10.829   6.075  0.1634  0.1681  0.3420
  748loPI   C2B11966   1.506  10.859   6.476 -0.0226 -0.3191 -0.1135
  748loPI   C3B11967   1.515  10.960   6.883 -0.2312 -0.1347  0.0185
  748loPI   C4B11968   1.551  10.978   7.406  0.0665 -0.1647  0.0635
  749loPI    C111969  14.187  13.854   5.419 -0.0632  0.0821 -0.0244
  749loPI    C211970  13.907  14.139   5.404 -0.2552 -0.1202 -0.4309
  749loPI    C311971  14.163  14.093   5.100  0.1489 -0.0157 -0.1159
  749loPI   PO411972  14.259  13.813   5.691  0.0044 -0.0352 -0.0025
  749loPI   GL111973  14.494  14.083   5.976 -0.1651  0.2947  0.0401
  749loPI   GL211974  14.729  14.442   5.920  0.3462  0.1533  0.1550
  749loPI   C1A11975  14.494  13.942   6.390  0.0886  0.1123  0.3215
  749loPI   C2A11976  14.397  13.894   6.820 -0.0713 -0.0537  0.2256
  749loPI   C3A11977  14.395  13.565   7.024 -0.0175  0.0260 -0.0808
  749loPI   C4A11978  14.349  13.508   7.512  0.0380  0.0830  0.2308
  749loPI   C5A11979  14.258  13.824   7.736  0.1693 -0.1573 -0.1468
  749loPI   C6A11980  13.810  13.995   7.688  0.1914  0.2613  0.1688
  749loPI   C1B11981  14.747  14.412   6.311 -0.2626 -0.1716  0.1056
  749loPI   C2B11982  14.736  14.469   6.691  0.1954 -0.1759  0.3269
  749loPI   C3B11983  14.786  14.504   7.150  0.0593 -0.2226  0.0846
  749loPI   C4B11984  14.706  14.400   7.624  0.2082  0.2735 -0.1468
  750loPI    C111985   5.449   8.949   5.218  0.2771 -0.1528  0.1596
  750loPI    C211986   5.598   9.028   4.855  0.0087  0.0911  0.0987
  750loPI    C311987   5.261   8.816   4.892 -0.0109  0.1394  0.2017
  750loPI   PO411988   5.442   9.170   5.397  0.1344  0.1776 -0.1375
  750loPI   GL111989   5.386   9.070   5.797  0.0787 -0.1793  0.1176
  750loPI   GL211990   5.174   8.762   5.617 -0.0961  0.1652 -0.1877
  750loPI   C1A11991   5.354   9.218   6.221  0.0564 -0.2598  0.1887
  750loPI   C2A11992   5.231   9.256   6.636 -0.0208  0.2540  0.0295
  750loPI   C3A11993   5.129   9.222   7.031 -0.1405 -0.0317  0.2652
  750loPI   C4A11994   4.930   9.256   7.496 -0.2204  0.0428  0.0252
  750loPI   C5A11995   4.713   9.183   7.857  0.0816 -0.3288  0.1509
  750loPI   C6A11996   4.701   8.983   8.219  0.1530 -0.1916  0.0980
  750loPI   C1B11997   5.254   8.528   6.001  0.0543 -0.2142 -0.0404
  750loPI   C2B11998   5.241   8.316   6.403  0.2081 -0.1052  0.1340
  750loPI   C3B11999   5.238   8.134   6.810  0.1283  0.4196 -0.0355
  750loPI   C4B12000   5.286   7.899   7.201  0.2720 -0.0821  0.0325
  751loPI    C112001  11.885  10.058   5.380  0.0505  0.0166 -0.0798
  751loPI    C212002  11.619   9.975   5.093  0.0599 -0.1684 -0.0364
  751loPI    C312003  11.991  10.087   4.996  0.1027 -0.3602 -0.0970
  751loPI   PO412004  11.692   9.934   5.635 -0.0417  0.1140 -0.0214
  751loPI   GL112005  11.547   9.990   5.984 -0.0084 -0.1450  0.0927
  751loPI   GL212006  11.204   9.879   5.907  0.2181  0.0751  0.0103
  751loPI   C1A12007  11.696  10.351   6.209 -0.0469 -0.2565  0.0039
  751loPI   C2A12008  11.886  10.427   6.554 -0.1994  0.1395  0.2723
  751loPI   C3A12009  12.069  10.600   7.013 -0.0648 -0.0810  0.2722
  751loPI   C4A12010  12.074  10.371   7.399 -0.0464 -0.2570 -0.0848
  751loPI   C5A12011  12.193  10.509   7.835 -0.1597 -0.1510 -0.0873
  751loPI   C6A12012  12.163  10.870   7.959 -0.2358  0.0763 -0.1024
  751loPI   C1B12013  11.217  10.315   6.162 -0.1726 -0.0857  0.1803
  751loPI   C2B12014  11.292  10.609   6.449  0.1688  0.0323 -0.2035
  751loPI   C3B12015  11.278  10.624   6.798 -0.2178 -0.0297 -0.0724
  751loPI   C4B12016  11.631  10.399   7.099  0.0416  0.5738 -0.0749
  752loPI    C112017  12.275   2.162   5.127  0.0750  0.0957 -0.0580
  752loPI    C212018  12.194   2.225   4.740 -0.0502  0.1092 -0.0299
  752loPI    C312019  12.454   1.940   4.846  0.0751  0.1854 -0.1296
  752loPI   PO412020  12.214   2.362   5.256  0.0370 -0.0231 -0.1803
  752loPI   GL112021  12.237   2.602   5.562 -0.0696 -0.0708  0.1810
  752loPI   GL212022  12.220   2.850   5.739  0.0259  0.2682 -0.0186
  752loPI   C1A12023  12.143   2.383   5.913  0.0166 -0.0198  0.0598
  752loPI   C2A12024  12.037   2.272   6.343 -0.2778 -0.0857 -0.0850
  752loPI   C3A12025  12.196   2.427   6.666 -0.0232 -0.0194 -0.1577
  752loPI   C4A12026  12.185   2.434   7.120 -0.3466  0.0165  0.2088
  752loPI   C5A12027  12.246   2.516   7.525 -0.0981 -0.1107  0.3518
  752loPI   C6A12028  12.249   2.645   7.936 -0.1322 -0.1833  0.4523
  752loPI   C1B12029  12.275   2.763   6.253  0.1643 -0.0741 -0.0137
  752loPI   C2B12030  12.300   2.940   6.706  0.0266 -0.0321  0.1129
  752loPI   C3B12031  12.352   2.901   7.122 -0.0461 -0.1963  0.0827
  752loPI   C4B12032  12.349   2.995   7.520 -0.0598 -0.3531  0.1760
  753loPI    C112033   6.027   5.429   5.181  0.1777  0.0077  0.1143
  753loPI    C212034   6.220   5.752   5.315  0.1606  0.0640  0.0045
  753loPI    C312035   5.840   5.687   5.422  0.2020  0.0164  0.1239
  753loPI   PO412036   6.147   5.255   5.269 -0.1678  0.0526  0.1599
  753loPI   GL112037   6.327   5.235   5.726  0.1488  0.0722  0.0532
  753loPI   GL212038   6.080   4.848   5.602  0.4734  0.0238 -0.3603
  753loPI   C1A12039   6.107   5.596   5.986 -0.0910 -0.1498  0.1252
  753loPI   C2A12040   5.649   5.440   6.165  0.4068 -0.4372  0.4681
  753loPI   C3A12041   5.630   5.469   6.553  0.1458  0.2052 -0.0362
  753loPI   C4A12042   5.608   5.507   7.010  0.0232 -0.0170 -0.0979
  753loPI   C5A12043   5.670   5.642   7.378  0.2379 -0.2074  0.0323
  753loPI   C6A12044   5.771   5.690   7.923  0.0216 -0.0968  0.2941
  753loPI   C1B12045   6.089   4.981   6.022  0.0095 -0.1587 -0.1003
  753loPI   C2B12046   5.938   5.046   6.345  0.1826 -0.2284 -0.1640
  753loPI   C3B12047   5.900   5.106   6.830  0.0250  0.0951 -0.4089
  753loPI   C4B12048   5.924   5.192   7.270  0.0910  0.3254  0.1511
  754loPI    C112049   0.248   2.696   5.377  0.0457 -0.1770 -0.1278
  754loPI    C212050   0.132   2.922   5.068 -0.2185  0.0626  0.1398
  754loPI    C312051   0.198   2.531   5.016 -0.0418  0.1409 -0.2651
  754loPI   PO412052   0.375   2.821   5.545  0.0852  0.2369  0.0867
  754loPI   GL112053   0.215   2.922   5.923 -0.0197 -0.2425  0.1197
  754loPI   GL212054   0.473   2.692   6.123 -0.0815 -0.0552  0.2577
  754loPI   C1A12055   0.459   3.179   6.289 -0.3393  0.0322  0.1666
  754loPI   C2A12056   0.598   3.057   6.771 -0.0149 -0.0395  0.0470
  754loPI   C3A12057   0.449   2.957   7.190 -0.2900  0.3539  0.1743
  754loPI   C4A12058   0.610   2.717   7.539  0.0579 -0.1639  0.1489
  754loPI   C5A12059   0.416   2.522   7.893 -0.1706  0.0405  0.2407
  754loPI   C6A12060   0.166   2.531   8.244  0.4846  0.1515 -0.1300
  754loPI   C1B12061   0.792   2.744   6.411 -0.0033  0.2804 -0.0725
  754loPI   C2B12062   1.084   2.832   6.811 -0.1730  0.0745 -0.2980
  754loPI   C3B12063   0.951   2.825   7.180  0.0034 -0.0000  0.0652
  754loPI   C4B12064   1.150   2.695   7.477 -0.2249 -0.0932  0.3559
  755loPI    C112065  11.835   8.226   5.253  0.0842 -0.2430  0.0893
  755loPI    C212066  12.131   8.019   5.424  0.1569 -0.1557  0.0695
  755loPI    C312067  12.132   8.079   5.028  0.1792 -0.0482  0.0856
  755loPI   PO412068  11.550   8.136   5.454  0.0553  0.0580 -0.0444
  755loPI   GL112069  11.627   8.236   5.852  0.1662  0.2314 -0.1591
  755loPI   GL212070  11.794   7.913   5.823  0.1353 -0.0374 -0.0002
  755loPI   C1A12071  11.362   8.046   6.199  0.2454  0.2570  0.1324
  755loPI   C2A12072  11.344   8.135   6.617  0.3539 -0.0244 -0.0384
  755loPI   C3A12073  11.289   8.257   7.052  0.2719  0.2952 -0.1550
  755loPI   C4A12074  11.212   8.588   7.329  0.0543  0.0525 -0.1506
  755loPI   C5A12075  11.181   8.688   7.775  0.1195 -0.0529  0.0435
  755loPI   C6A12076  11.064   9.019   8.085  0.0530  0.0220  0.1413
  755loPI   C1B12077  11.851   7.918   6.305 -0.0333 -0.2637 -0.0161
  755loPI   C2B12078  11.781   7.990   6.776  0.1886 -0.2278  0.1844
  755loPI   C3B12079  11.837   7.987   7.244  0.1610  0.2038  0.1655
  755loPI   C4B12080  11.904   7.922   7.637  0.0964 -0.1898 -0.2217
  756loPI    C112081  17.766  11.050   5.124  0.0975 -0.1743  0.1145
  756loPI    C212082  17.935  11.289   4.851 -0.0744  0.0894  0.2353
  756loPI    C312083  17.755  10.950   4.736 -0.0128  0.1218  0.0388
  756loPI   PO412084  17.726  11.165   5.313  0.2633 -0.2115  0.1727
  756loPI   GL112085  17.728  11.158   5.798  0.0356 -0.0979  0.3107
  756loPI   GL212086  17.950  11.248   6.084  0.0531  0.0656  0.2429
  756loPI   C1A12087  17.514  11.014   6.173  0.0762 -0.1630  0.0312
  756loPI   C2A12088  17.534  11.057   6.652  0.0788  0.1397  0.0150
  756loPI   C3A12089  17.587  11.033   7.079  0.1778 -0.1366 -0.1842
  756loPI   C4A12090  17.572  10.998   7.516  0.0634  0.1456 -0.1524
  756loPI   C5A12091  17.484  11.043   7.908 -0.1011  0.1329 -0.0980
  756loPI   C6A12092  17.476  10.923   8.312 -0.0404 -0.1705 -0.2231
  756loPI   C1B12093  17.980  11.148   6.517  0.2973  0.0070  0.3618
  756loPI   C2B12094  18.040  11.129   6.957 -0.1720 -0.1132  0.3299
  756loPI   C3B12095  18.031  11.080   7.431 -0.2512 -0.2685 -0.0595
  756loPI   C4B12096  18.078  11.065   7.897 -0.2400  0.2720  0.1451
  757loPI    C112097  17.498  13.566   5.252  0.1590 -0.0453 -0.0034
  757loPI    C212098  17.859  13.699   5.145  0.0273  0.3580  0.0370
  757loPI    C312099  17.590  13.952   5.299 -0.1120 -0.0280  0.4519
  757loPI   PO412100  17.567  13.367   5.412  0.2351 -0.3353 -0.1524
  757loPI   GL112101  17.696  13.227   5.823  0.2129 -0.3778  0.4246
  757loPI   GL212102  18.003  13.215   5.840  0.0213  0.1253  0.0426
  757loPI   C1A12103  17.536  13.351   6.145  0.2612 -0.2391  0.0178
  757loPI   C2A12104  17.599  13.287   6.542  0.0326 -0.0363  0.0601
  757loPI   C3A12105  17.579  13.297   6.956  0.2271 -0.0217 -0.0110
  757loPI   C4A12106  17.700  13.449   7.308  0.1594  0.0344 -0.2579
  757loPI   C5A12107  17.712  13.497   7.738  0.0775 -0.1958  0.1586
  757loPI   C6A12108  17.574  13.363   8.168 -0.1701 -0.1634 -0.1432
  757loPI   C1B12109  18.109  13.336   6.215 -0.1702 -0.1428  0.1295
  757loPI   C2B12110  18.096  13.361   6.670  0.1322  0.2916 -0.0285
  757loPI   C3B12111  18.102  13.412   7.066 -0.1289 -0.0692 -0.0879
  757loPI   C4B12112  18.169  13.516   7.561 -0.2867  0.0377 -0.2030
  758loPI    C112113   3.393  17.791   4.508  0.0566 -0.1973  0.1146
  758loPI    C212114   3.177  18.076   4.688  0.0298 -0.1003 -0.0690
  758loPI    C312115   3.014  17.719   4.614 -0.0796 -0.0178 -0.2332
  758loPI   PO412116   3.655  17.844   4.706  0.1597  0.2260  0.0636
  758loPI   GL112117   3.722  17.737   5.184  0.0485 -0.1091  0.3050
  758loPI   GL212118   3.682  18.037   5.251 -0.0201 -0.1203  0.0469
  758loPI   C1A12119   3.893  17.741   5.554 -0.1066  0.1196  0.0112
  758loPI   C2A12120   3.735  17.799   5.911 -0.0056 -0.0019  0.1428
  758loPI   C3A12121   3.778  17.793   6.385 -0.3367 -0.2241 -0.0053
  758loPI   C4A12122   3.864  17.821   6.843 -0.2072  0.0712  0.2055
  758loPI   C5A12123   4.051  17.841   7.254 -0.1975 -0.1326  0.2184
  758loPI   C6A12124   4.327  17.658   7.585 -0.2842 -0.0494 -0.0834
  758loPI   C1B12125   3.476  18.219   5.734 -0.2053 -0.0402  0.3863
  758loPI   C2B12126   3.486  18.175   6.225 -0.0037  0.0956 -0.0406
  758loPI   C3B12127   3.582  18.174   6.667 -0.0455  0.1469  0.2758
  758loPI   C4B12128   3.593  18.202   7.097 -0.0599  0.1728 -0.1033
  759loPI    C112129  15.897  16.937   4.845 -0.0760 -0.2997  0.0608
  759loPI    C212130  15.660  16.902   4.525  0.0269 -0.0827 -0.0414
  759loPI    C312131  15.973  16.657   4.569 -0.0249 -0.1550 -0.0735
  759loPI   PO412132  15.777  16.996   5.072 -0.1087 -0.0772 -0.1469
  759loPI   GL112133  15.699  16.881   5.507 -0.0092 -0.1329 -0.3128
  759loPI   GL212134  15.795  16.494   5.600 -0.2536 -0.2735  0.1243
  759loPI   C1A12135  15.484  17.063   5.822  0.2600  0.0152 -0.1974
  759loPI   C2A12136  15.473  17.243   6.288  0.0987 -0.1227 -0.3275
  759loPI   C3A12137  15.518  17.211   6.692  0.4299  0.0214 -0.2917
  759loPI   C4A12138  15.489  17.269   7.083  0.0388 -0.1918  0.2142
  759loPI   C5A12139  15.452  17.167   7.558  0.0701 -0.0785  0.2679
  759loPI   C6A12140  15.362  16.855   7.832 -0.0116  0.0760 -0.1851
  759loPI   C1B12141  16.005  16.364   5.965  0.0710  0.2166 -0.0678
  759loPI   C2B12142  16.042  16.387   6.456  0.2347  0.0505 -0.0894
  759loPI   C3B12143  16.060  16.426   6.857 -0.0351  0.1434 -0.0439
  759loPI   C4B12144  16.080  16.328   7.302  0.2623 -0.1109  0.0443
  760loPI    C112145   3.076   8.056   5.043  0.2758  0.0566 -0.0841
  760loPI    C212146   3.017   7.718   4.837 -0.1628  0.0949 -0.0315
  760loPI    C312147   3.140   8.049   4.648 -0.3629  0.0758 -0.1987
  760loPI   PO412148   2.736   8.158   5.227 -0.2030 -0.0220 -0.0517
  760loPI   GL112149   2.841   8.271   5.608  0.0011  0.1651  0.0828
  760loPI   GL212150   2.966   8.027   5.657  0.0514 -0.1110 -0.0871
  760loPI   C1A12151   2.596   8.226   6.080  0.0464 -0.2868 -0.0677
  760loPI   C2A12152   2.459   8.301   6.495 -0.0144 -0.2769  0.4225
  760loPI   C3A12153   2.295   8.358   6.852  0.0325  0.0749  0.2589
  760loPI   C4A12154   2.407   8.379   7.196  0.1146  0.0174 -0.2350
  760loPI   C5A12155   2.304   8.431   7.595 -0.0479  0.1500  0.2631
  760loPI   C6A12156   2.198   8.740   7.817  0.1540 -0.2673 -0.0120
  760loPI   C1B12157   3.062   7.959   6.083 -0.0901 -0.2877  0.3350
  760loPI   C2B12158   3.271   7.964   6.530  0.0345 -0.1384  0.1607
  760loPI   C3B12159   3.125   7.990   6.904  0.0470 -0.3417 -0.2738
  760loPI   C4B12160   3.234   7.958   7.332 -0.1144 -0.0067  0.0389
  761loPI    C112161   9.881   6.368   4.974  0.1189  0.0793  0.1271
  761loPI    C212162   9.778   6.133   4.667 -0.0284  0.2430  0.0489
  761loPI    C312163  10.046   6.425   4.614  0.0888  0.1500  0.1241
  761loPI   PO412164   9.706   6.324   5.163  0.0125  0.2302  0.1603
  761loPI   GL112165   9.540   6.432   5.557  0.0444  0.2205 -0.1898
  761loPI   GL212166   9.414   6.767   5.640 -0.2451 -0.2326 -0.1016
  761loPI   C1A12167   9.435   6.370   5.999 -0.0537  0.2630 -0.1638
  761loPI   C2A12168   9.407   6.408   6.377  0.3215 -0.1368  0.3934
  761loPI   C3A12169   9.425   6.448   6.747  0.0708 -0.0986 -0.1715
  761loPI   C4A12170   9.354   6.384   7.155 -0.1359  0.1035 -0.1944
  761loPI   C5A12171   9.460   6.433   7.580  0.2903 -0.0008 -0.1150
  761loPI   C6A12172   9.564   6.847   7.749 -0.0152 -0.0979 -0.0227
  761loPI   C1B12173   9.421   6.887   6.161 -0.2221 -0.1469 -0.1003
  761loPI   C2B12174   9.284   6.991   6.553  0.1073 -0.0363  0.0199
  761loPI   C3B12175   9.286   6.871   6.961 -0.2445 -0.0648  0.4992
  761loPI   C4B12176   9.246   6.925   7.337 -0.0107  0.1042  0.1343
  762loPI    C112177   1.021  17.460   4.984  0.1674  0.1542 -0.0690
  762loPI    C212178   1.309  17.198   4.894  0.1099  0.0498  0.0488
  762loPI    C312179   0.944  17.068   4.995  0.0784  0.1753  0.0984
  762loPI   PO412180   1.183  17.588   5.167 -0.0518 -0.3662  0.0913
  762loPI   GL112181   1.287  17.663   5.602 -0.1713 -0.0027 -0.3563
  762loPI   GL212182   1.569  17.818   5.397  0.3031  0.2110 -0.1445
  762loPI   C1A12183   1.171  17.513   6.055 -0.0130  0.0113  0.2871
  762loPI   C2A12184   1.171  17.625   6.447  0.0072  0.0881 -0.1678
  762loPI   C3A12185   1.124  17.604   6.805 -0.0694 -0.2924 -0.1127
  762loPI   C4A12186   1.047  17.519   7.270 -0.0028  0.1806 -0.0648
  762loPI   C5A12187   1.262  17.454   7.683 -0.0590  0.2173 -0.1028
  762loPI   C6A12188   1.369  17.259   8.127 -0.0461  0.0586 -0.1500
  762loPI   C1B12189   1.444  18.105   5.688  0.1694 -0.1414 -0.2613
  762loPI   C2B12190   1.486  18.335   6.072  0.0929  0.0612 -0.2002
  762loPI   C3B12191   1.655  18.515   6.484  0.2345 -0.0520 -0.1977
  762loPI   C4B12192   1.683  18.421   6.898  0.0317 -0.0520  0.1382
  763loPI    C112193  13.041  10.845   5.637 -0.2124 -0.1772 -0.1789
  763loPI    C212194  12.701  11.027   5.531 -0.2325  0.0426  0.2426
  763loPI    C312195  13.054  11.192   5.438 -0.2307 -0.2440 -0.2976
  763loPI   PO412196  13.009  10.785   5.897  0.1546 -0.1141  0.2031
  763loPI   GL112197  12.946  10.905   6.284 -0.2893  0.0276 -0.2472
  763loPI   GL212198  12.633  10.734   6.295  0.0470  0.0134  0.2253
  763loPI   C1A12199  13.061  11.187   6.563  0.2315 -0.0172 -0.1932
  763loPI   C2A12200  13.150  11.180   7.045  0.1857 -0.1910  0.0150
  763loPI   C3A12201  13.385  10.860   7.274 -0.3258 -0.3233  0.2358
  763loPI   C4A12202  13.642  10.622   7.527  0.1663 -0.0925 -0.1867
  763loPI   C5A12203  13.559  10.619   7.975  0.3390  0.1965 -0.1958
  763loPI   C6A12204  13.608  10.565   8.418  0.0179  0.0761 -0.1506
  763loPI   C1B12205  12.476  10.683   6.719 -0.1651  0.0051  0.1811
  763loPI   C2B12206  12.667  10.428   7.110  0.0358 -0.0191 -0.0494
  763loPI   C3B12207  12.680  10.351   7.647 -0.0740 -0.1452  0.1970
  763loPI   C4B12208  12.616  10.375   8.056  0.1624 -0.0119 -0.2338
  764loPI    C112209  16.920  16.981   5.091  0.0385 -0.1327  0.0168
  764loPI    C212210  16.589  17.048   5.306 -0.2116  0.1196 -0.4308
  764loPI    C312211  16.711  16.673   5.239 -0.1601  0.0347  0.0901
  764loPI   PO412212  17.043  17.126   5.185 -0.0524 -0.1599  0.1760
  764loPI   GL112213  17.251  17.198   5.484 -0.0068  0.2017 -0.0155
  764loPI   GL212214  17.460  17.131   5.638  0.2427 -0.4090 -0.2574
  764loPI   C1A12215  16.971  17.044   5.766 -0.0457  0.1233 -0.0266
  764loPI   C2A12216  16.848  17.025   6.148 -0.0275  0.1708 -0.0920
  764loPI   C3A12217  16.867  16.926   6.599  0.4058  0.0781 -0.2518
  764loPI   C4A12218  16.797  16.939   7.009 -0.1839 -0.0009  0.0356
  764loPI   C5A12219  16.798  16.894   7.385 -0.1742  0.0779 -0.0314
  764loPI   C6A12220  16.693  17.009   7.829 -0.1279 -0.2213  0.1391
  764loPI   C1B12221  17.416  17.042   6.045  0.3139 -0.0991 -0.0583
  764loPI   C2B12222  17.364  16.991   6.496  0.1989 -0.0199  0.1690
  764loPI   C3B12223  17.332  16.993   6.855 -0.1916 -0.0181 -0.0453
  764loPI   C4B12224  17.294  16.936   7.282  0.1503 -0.2776  0.0787
  765loPI    C112225  14.089   2.481   4.986 -0.2227  0.2051 -0.0583
  765loPI    C212226  13.891   2.754   4.771 -0.2675  0.0307 -0.2418
  765loPI    C312227  14.122   2.484   4.587 -0.2515 -0.0778 -0.0646
  765loPI   PO412228  13.889   2.333   5.164 -0.2350 -0.0522 -0.0476
  765loPI   GL112229  13.746   2.319   5.582 -0.0171 -0.1373 -0.0483
  765loPI   GL212230  14.101   2.287   5.674 -0.3554  0.0385  0.2905
  765loPI   C1A12231  13.729   2.613   5.936 -0.0603  0.2245  0.0464
  765loPI   C2A12232  13.664   2.587   6.315 -0.0802 -0.2934  0.0941
  765loPI   C3A12233  13.764   2.688   6.764  0.0993 -0.0295  0.3675
  765loPI   C4A12234  13.656   2.687   7.257 -0.0172  0.0249  0.1498
  765loPI   C5A12235  13.883   2.751   7.642 -0.3889  0.2056 -0.1357
  765loPI   C6A12236  14.199   2.646   8.045  0.3544  0.0965 -0.3159
  765loPI   C1B12237  14.015   2.188   6.136  0.0217 -0.0038 -0.2008
  765loPI   C2B12238  14.087   2.197   6.603 -0.1105 -0.1638  0.2335
  765loPI   C3B12239  14.048   2.269   7.010 -0.1800 -0.4227  0.0984
  765loPI   C4B12240  14.054   2.313   7.456 -0.1857 -0.1510  0.2347
  766loPI    C112241   0.794  16.536   5.185 -0.3170 -0.3440 -0.0622
  766loPI    C212242   0.594  16.727   4.896  0.0317  0.1800  0.0275
  766loPI    C312243   0.973  16.614   4.836 -0.0579 -0.1737  0.1049
  766loPI   PO412244   0.835  16.748   5.357  0.0254 -0.0420  0.0388
  766loPI   GL112245   0.779  16.767   5.694  0.1277  0.2395 -0.1130
  766loPI   GL212246   0.791  17.089   5.880  0.1861 -0.2910  0.1254
  766loPI   C1A12247   0.856  16.682   6.118 -0.0752 -0.0189  0.0130
  766loPI   C2A12248   0.813  16.672   6.565  0.1621 -0.1174 -0.1730
  766loPI   C3A12249   0.749  16.612   6.993  0.1292  0.0883  0.2620
  766loPI   C4A12250   0.809  16.719   7.371  0.0521  0.3359  0.0689
  766loPI   C5A12251   0.604  16.683   7.721  0.1302  0.0007 -0.1291
  766loPI   C6A12252   0.592  16.691   8.234  0.0140 -0.0165 -0.0580
  766loPI   C1B12253   0.567  17.198   6.282 -0.2583  0.2688 -0.0668
  766loPI   C2B12254   0.509  17.111   6.666 -0.2600 -0.2072  0.0381
  766loPI   C3B12255   0.524  17.073   7.096 -0.2635  0.2769  0.1590
  766loPI   C4B12256   0.676  17.214   7.437 -0.0116 -0.1037 -0.3037
  767loPI    C112257   2.661  12.510   5.192  0.0838  0.1236 -0.0466
  767loPI    C212258   3.059  12.509   5.236  0.0757 -0.0532  0.0286
  767loPI    C312259   2.897  12.457   4.874  0.1200 -0.0697  0.0112
  767loPI   PO412260   2.472  12.766   5.330 -0.1920 -0.1427 -0.2334
  767loPI   GL112261   2.263  13.067   5.569 -0.2337 -0.1854 -0.1852
  767loPI   GL212262   2.587  13.034   5.794  0.0976 -0.0495  0.0387
  767loPI   C1A12263   2.190  13.138   6.025 -0.1519 -0.1933 -0.3834
  767loPI   C2A12264   2.106  13.171   6.444 -0.2403  0.0193 -0.1154
  767loPI   C3A12265   2.084  13.213   6.853 -0.0299  0.0528 -0.1581
  767loPI   C4A12266   2.153  13.189   7.252 -0.1283 -0.1061  0.1143
  767loPI   C5A12267   2.088  13.214   7.722  0.3755  0.1494  0.0072
  767loPI   C6A12268   2.161  13.443   8.119 -0.3438 -0.1584  0.0704
  767loPI   C1B12269   2.692  13.128   6.264 -0.0250  0.0729 -0.0390
  767loPI   C2B12270   2.646  13.220   6.766 -0.2587  0.1639 -0.1526
  767loPI   C3B12271   2.655  13.265   7.187 -0.1331  0.2318  0.0694
  767loPI   C4B12272   2.619  13.314   7.672 -0.2728  0.0560 -0.0833
  768loPI    C112273   2.094  13.322   5.099 -0.1098  0.1132 -0.1757
  768loPI    C212274   1.846  13.067   4.916 -0.1280  0.0115 -0.0115
  768loPI    C312275   2.233  12.975   4.958 -0.1271  0.0276  0.0152
  768loPI   PO412276   1.969  13.387   5.335 -0.0374  0.2743  0.3490
  768loPI   GL112277   1.729  13.558   5.678 -0.1439  0.1939 -0.1356
  768loPI   GL212278   1.450  13.448   5.805  0.1435 -0.1384  0.0858
  768loPI   C1A12279   1.915  13.521   6.032 -0.1807 -0.1068 -0.1965
  768loPI   C2A12280   1.882  13.590   6.477  0.1391  0.1922 -0.0587
  768loPI   C3A12281   1.812  13.622   7.006  0.1230 -0.0743  0.1461
  768loPI   C4A12282   1.892  13.611   7.419 -0.0373  0.3379 -0.0678
  768loPI   C5A12283   1.707  13.492   7.849 -0.0436  0.1031 -0.1541
  768loPI   C6A12284   1.354  13.466   8.012 -0.1484  0.0255 -0.0585
  768loPI   C1B12285   1.414  13.475   6.241  0.2385 -0.0903 -0.1103
  768loPI   C2B12286   1.388  13.538   6.627  0.1669  0.1989 -0.0870
  768loPI   C3B12287   1.309  13.541   7.005 -0.4210 -0.0521 -0.1883
  768loPI   C4B12288   1.328  13.553   7.397 -0.0481 -0.3909 -0.2327
  769loPI    C112289  17.345   5.034   5.199 -0.0161 -0.3261 -0.0348
  769loPI    C212290  17.084   4.789   5.378 -0.1890 -0.1391 -0.0269
  769loPI    C312291  17.247   4.686   5.028 -0.1369 -0.3368  0.0541
  769loPI   PO412292  17.557   5.179   5.449  0.0566 -0.0804  0.0753
  769loPI   GL112293  17.707   5.028   5.788  0.1842  0.0743 -0.1037
  769loPI   GL212294  17.844   4.897   5.939  0.0272  0.3065  0.0827
  769loPI   C1A12295  17.520   5.041   6.278 -0.2392 -0.1623 -0.1611
  769loPI   C2A12296  17.583   5.193   6.667 -0.2778  0.1510  0.0061
  769loPI   C3A12297  17.571   5.082   7.037  0.1245 -0.0331  0.2132
  769loPI   C4A12298  17.504   4.857   7.371  0.0419 -0.2991  0.0225
  769loPI   C5A12299  17.417   4.519   7.632  0.2014  0.0830  0.2875
  769loPI   C6A12300  17.303   4.220   7.784 -0.0138  0.0206 -0.0212
  769loPI   C1B12301  18.021   5.193   6.198 -0.2724  0.0587  0.0626
  769loPI   C2B12302  18.045   5.230   6.589 -0.0438 -0.0665  0.4537
  769loPI   C3B12303  18.038   5.228   6.970 -0.0416  0.0292  0.0582
  769loPI   C4B12304  17.955   5.168   7.411 -0.0629 -0.2362  0.0649
  770loPI    C112305   5.993  12.816   5.838  0.1986  0.1064 -0.1444
  770loPI    C212306   6.370  12.729   5.736  0.2209  0.0049  0.0214
  770loPI    C312307   6.159  12.473   5.959  0.0675  0.0810 -0.0351
  770loPI   PO412308   5.900  13.017   5.660 -0.0680 -0.3399 -0.0072
  770loPI   GL112309   5.727  13.309   5.923 -0.1357 -0.2247  0.0096
  770loPI   GL212310   5.484  13.242   5.995 -0.0284 -0.0635  0.0018
  770loPI   C1A12311   5.891  13.241   6.306  0.1766 -0.0848  0.0714
  770loPI   C2A12312   5.987  13.529   6.682  0.2904 -0.1746  0.0800
  770loPI   C3A12313   6.017  13.566   7.219  0.0448  0.0196 -0.2597
  770loPI   C4A12314   6.058  13.470   7.639  0.1051  0.0574  0.1492
  770loPI   C5A12315   5.819  13.591   7.897  0.1736 -0.1392 -0.0563
  770loPI   C6A12316   5.414  13.589   7.927 -0.1611 -0.0281 -0.0031
  770loPI   C1B12317   5.209  13.474   6.303  0.0440 -0.1690 -0.3351
  770loPI   C2B12318   5.515  13.479   6.777 -0.0505 -0.0591 -0.1098
  770loPI   C3B12319   5.198  13.450   7.144 -0.0012 -0.2836  0.2187
  770loPI   C4B12320   4.994  13.527   7.563  0.1400 -0.1719 -0.0516
  771loPI    C112321   9.674  17.786   5.041  0.1262 -0.1556  0.0629
  771loPI    C212322   9.315  17.632   4.951  0.1321 -0.0892 -0.0767
  771loPI    C312323   9.526  17.827   4.671  0.1994  0.0258  0.0526
  771loPI   PO412324   9.594  17.808   5.307 -0.1296 -0.0689  0.0428
  771loPI   GL112325   9.692  17.765   5.678 -0.1723  0.0329  0.2039
  771loPI   GL212326   9.445  17.497   5.825 -0.0953 -0.0619  0.1897
  771loPI   C1A12327   9.597  17.992   5.983  0.0071 -0.0239 -0.3012
  771loPI   C2A12328   9.566  18.002   6.350  0.0840 -0.2385  0.0498
  771loPI   C3A12329   9.523  18.101   6.793 -0.3164 -0.1982  0.1481
  771loPI   C4A12330   9.372  18.268   7.149 -0.4744  0.1277  0.1409
  771loPI   C5A12331   9.274  18.350   7.596  0.1303  0.1130 -0.1439
  771loPI   C6A12332   9.067  18.275   7.973 -0.2549  0.0270  0.1760
  771loPI   C1B12333   9.260  17.617   6.246 -0.1411  0.1867  0.0882
  771loPI   C2B12334   8.818  17.566   6.389  0.1294  0.0135  0.4283
  771loPI   C3B12335   8.655  17.713   6.837  0.1180 -0.0243 -0.0921
  771loPI   C4B12336   8.585  17.839   7.182  0.0418  0.3352 -0.1036
  772loPI    C112337  13.503   2.615   5.096 -0.0249  0.1919 -0.0970
  772loPI    C212338  13.360   2.768   4.755  0.2752  0.2126 -0.2171
  772loPI    C312339  13.514   2.399   4.759 -0.1806  0.0161  0.0087
  772loPI   PO412340  13.375   2.631   5.350  0.1629  0.2705  0.1209
  772loPI   GL112341  13.253   2.362   5.700  0.0514  0.4122 -0.2003
  772loPI   GL212342  13.269   2.647   5.836 -0.0115  0.0135  0.0619
  772loPI   C1A12343  13.519   2.168   6.060  0.1004  0.0776  0.1747
  772loPI   C2A12344  13.610   2.106   6.505 -0.0224  0.1724 -0.0564
  772loPI   C3A12345  13.527   2.151   6.940 -0.1659 -0.0707  0.1024
  772loPI   C4A12346  13.517   2.232   7.382  0.4503  0.1100 -0.0559
  772loPI   C5A12347  13.626   2.410   7.852  0.3260  0.1263 -0.0274
  772loPI   C6A12348  13.708   2.771   8.142  0.1403 -0.3061  0.0347
  772loPI   C1B12349  13.158   2.559   6.250  0.0344  0.1407  0.0653
  772loPI   C2B12350  13.204   2.596   6.651 -0.1281 -0.0332  0.0464
  772loPI   C3B12351  13.245   2.555   7.070 -0.0554 -0.1252 -0.0542
  772loPI   C4B12352  13.154   2.549   7.546 -0.0419  0.2390 -0.0801
  773loPI    C112353   6.859   3.399   5.017  0.0152  0.1131  0.0008
  773loPI    C212354   6.470   3.329   4.957 -0.0016  0.1367  0.0812
  773loPI    C312355   6.737   3.226   4.677 -0.0456 -0.0627  0.1109
  773loPI   PO412356   6.891   3.344   5.224  0.0887  0.0847 -0.3214
  773loPI   GL112357   7.152   3.524   5.646  0.2959  0.3791  0.3766
  773loPI   GL212358   6.795   3.555   5.656 -0.1598 -0.2396 -0.4968
  773loPI   C1A12359   7.191   3.624   6.075 -0.2055 -0.0321 -0.0657
  773loPI   C2A12360   7.010   3.819   6.391 -0.0874 -0.0033  0.0457
  773loPI   C3A12361   7.076   4.178   6.618  0.0671 -0.2204  0.3251
  773loPI   C4A12362   7.053   4.444   6.938  0.0836 -0.1305  0.2216
  773loPI   C5A12363   7.055   4.471   7.383 -0.1979 -0.1920  0.1191
  773loPI   C6A12364   7.301   4.503   7.719 -0.0034 -0.3159 -0.1391
  773loPI   C1B12365   6.719   3.669   6.014  0.0191  0.1380  0.1776
  773loPI   C2B12366   6.461   3.729   6.380  0.1643 -0.0881  0.0378
  773loPI   C3B12367   6.241   3.752   6.754  0.0026  0.1418 -0.1764
  773loPI   C4B12368   6.367   3.785   7.206  0.0827 -0.0758  0.1080
  774loPI    C112369   0.911   4.364   5.187 -0.2186  0.0147 -0.0248
  774loPI    C212370   0.543   4.275   5.058 -0.1978  0.1856 -0.2073
  774loPI    C312371   0.724   4.608   4.930  0.0589  0.0536 -0.1937
  774loPI   PO412372   0.912   4.411   5.368  0.1136  0.0292 -0.0115
  774loPI   GL112373   0.892   4.516   5.840  0.0428  0.1273 -0.0970
  774loPI   GL212374   0.873   4.197   5.896  0.0152  0.0167 -0.2422
  774loPI   C1A12375   0.752   4.499   6.255  0.0311  0.0197 -0.0540
  774loPI   C2A12376   0.376   4.466   6.448  0.2292 -0.1100  0.1774
  774loPI   C3A12377   0.209   4.414   6.914  0.0442  0.0463  0.0792
  774loPI   C4A12378   0.432   4.478   7.220  0.0892  0.1228 -0.0345
  774loPI   C5A12379   0.664   4.224   7.470  0.1572  0.1274 -0.1561
  774loPI   C6A12380   0.990   4.067   7.919 -0.1379  0.2490  0.0724
  774loPI   C1B12381   1.133   4.201   6.254  0.2961 -0.2069  0.0956
  774loPI   C2B12382   1.124   4.072   6.685  0.1181  0.0920  0.2763
  774loPI   C3B12383   1.083   4.120   7.119  0.1689 -0.0655  0.2727
  774loPI   C4B12384   1.191   4.241   7.522 -0.1323 -0.0297  0.1478
  775loPI    C112385   3.250   8.492   5.327  0.1851  0.0885 -0.0405
  775loPI    C212386   3.363   8.438   4.947  0.1590 -0.1767 -0.0121
  775loPI    C312387   2.983   8.526   5.031  0.1684 -0.1005 -0.0482
  775loPI   PO412388   3.316   8.265   5.403  0.1642 -0.2502 -0.0090
  775loPI   GL112389   3.446   8.057   5.713  0.3152  0.0188 -0.0572
  775loPI   GL212390   3.516   7.696   5.773 -0.2259 -0.0842  0.3450
  775loPI   C1A12391   3.524   8.288   6.102 -0.2846 -0.2678 -0.2741
  775loPI   C2A12392   3.459   8.426   6.525  0.1325 -0.1009  0.1346
  775loPI   C3A12393   3.392   8.420   6.997 -0.1580 -0.2868 -0.0950
  775loPI   C4A12394   3.380   8.483   7.458  0.2261  0.0312  0.1389
  775loPI   C5A12395   3.327   8.286   7.830  0.3067 -0.1587 -0.2734
  775loPI   C6A12396   3.025   8.171   8.174  0.0560  0.0918  0.0987
  775loPI   C1B12397   3.470   7.704   6.164 -0.2554 -0.1143  0.0771
  775loPI   C2B12398   3.581   7.556   6.582 -0.1158  0.0453 -0.0179
  775loPI   C3B12399   3.479   7.568   7.094  0.1007 -0.0070  0.0418
  775loPI   C4B12400   3.558   7.537   7.574  0.0298  0.0010 -0.0181
  776loPI    C112401   7.323   3.507   5.021  0.4542  0.0967  0.0248
  776loPI    C212402   7.147   3.801   5.228  0.0969 -0.2415  0.2134
  776loPI    C312403   7.162   3.819   4.829 -0.0524 -0.0374  0.2159
  776loPI   PO412404   7.585   3.432   5.240  0.0267 -0.1183 -0.1562
  776loPI   GL112405   7.669   3.256   5.687 -0.0227  0.3140 -0.1626
  776loPI   GL212406   7.894   3.532   5.720 -0.1663  0.0239 -0.0626
  776loPI   C1A12407   7.575   3.322   6.058 -0.0268 -0.0274  0.2084
  776loPI   C2A12408   7.619   3.458   6.474 -0.0027 -0.0015  0.0930
  776loPI   C3A12409   7.816   3.516   6.830  0.0223  0.3282 -0.0633
  776loPI   C4A12410   7.796   3.476   7.193 -0.0938 -0.0250  0.2265
  776loPI   C5A12411   7.790   3.602   7.570  0.2460 -0.1756 -0.0518
  776loPI   C6A12412   7.718   3.378   7.984 -0.0749 -0.0494 -0.3131
  776loPI   C1B12413   8.139   3.766   6.029  0.1094 -0.0300 -0.5433
  776loPI   C2B12414   8.096   3.910   6.435  0.0404  0.2300  0.3091
  776loPI   C3B12415   8.050   3.973   6.786 -0.1510  0.0501  0.0728
  776loPI   C4B12416   8.029   3.955   7.197 -0.2094  0.1036 -0.1509
  777loPI    C112417   1.554  14.775   5.053  0.1737 -0.1587 -0.1990
  777loPI    C212418   1.735  14.863   4.707  0.0125  0.0491 -0.2328
  777loPI    C312419   1.340  14.797   4.715  0.0029  0.1214 -0.0768
  777loPI   PO412420   1.663  14.925   5.193  0.0593  0.0432 -0.3424
  777loPI   GL112421   1.919  14.850   5.494 -0.1202 -0.0691  0.2641
  777loPI   GL212422   1.715  14.678   5.609 -0.2730  0.0675 -0.1432
  777loPI   C1A12423   1.993  14.944   5.864 -0.0546 -0.2376  0.0315
  777loPI   C2A12424   1.941  14.951   6.244 -0.3073  0.0427  0.1688
  777loPI   C3A12425   1.988  14.939   6.650  0.1359 -0.1926 -0.2293
  777loPI   C4A12426   2.028  14.880   7.057 -0.2326 -0.0902 -0.1547
  777loPI   C5A12427   1.821  14.933   7.536 -0.0153  0.0483  0.1799
  777loPI   C6A12428   1.769  15.229   7.852  0.0401  0.2707  0.2316
  777loPI   C1B12429   1.729  14.536   6.055 -0.2891  0.0334  0.1338
  777loPI   C2B12430   1.754  14.538   6.478  0.0963 -0.1594  0.2971
  777loPI   C3B12431   1.664  14.451   6.916  0.0074 -0.0112 -0.3567
  777loPI   C4B12432   1.731  14.484   7.345 -0.0251 -0.1496 -0.2663
  778loPI    C112433   9.477  15.007   5.059 -0.0665  0.1884  0.0399
  778loPI    C212434   9.725  14.723   4.925 -0.0184  0.1767  0.1521
  778loPI    C312435   9.429  14.857   4.692  0.0902  0.1873  0.0188
  778loPI   PO412436   9.606  15.088   5.262 -0.1460 -0.3075  0.1488
  778loPI   GL112437   9.371  14.944   5.699 -0.0399  0.0427 -0.1118
  778loPI   GL212438   9.479  15.147   5.852  0.2596 -0.2689  0.0585
  778loPI   C1A12439   9.040  14.969   6.080  0.0132 -0.4496  0.1216
  778loPI   C2A12440   8.821  14.999   6.581 -0.3219  0.1021 -0.0814
  778loPI   C3A12441   8.647  15.086   7.014 -0.2912 -0.0922 -0.0479
  778loPI   C4A12442   8.646  15.014   7.422  0.0216 -0.0448 -0.2153
  778loPI   C5A12443   8.425  15.155   7.781 -0.1734 -0.1331 -0.0492
  778loPI   C6A12444   8.350  15.137   8.186 -0.0703 -0.4132 -0.3140
  778loPI   C1B12445   9.707  15.348   6.166  0.0302 -0.0137 -0.0234
  778loPI   C2B12446   9.659  15.417   6.618  0.2702  0.2154  0.3382
  778loPI   C3B12447   9.545  15.496   7.068 -0.0195 -0.1173  0.0304
  778loPI   C4B12448   9.407  15.493   7.514  0.2205 -0.2273 -0.1068
  779loPI    C112449  11.195   4.645   4.783 -0.2354  0.1088 -0.0284
  779loPI    C212450  11.455   4.942   4.716 -0.1253 -0.0343 -0.2475
  779loPI    C312451  11.362   4.687   4.422 -0.3359 -0.1261 -0.1040
  779loPI   PO412452  11.148   4.727   5.101 -0.1066 -0.3021 -0.0421
  779loPI   GL112453  10.909   4.844   5.343  0.0584  0.0488  0.2132
  779loPI   GL212454  10.825   4.564   5.559 -0.0381  0.1147 -0.1448
  779loPI   C1A12455  10.558   4.962   5.745  0.2763  0.0249 -0.1537
  779loPI   C2A12456  10.578   5.065   6.185  0.2420 -0.2843 -0.1465
  779loPI   C3A12457  10.744   5.102   6.560  0.3654 -0.0409 -0.1559
  779loPI   C4A12458  10.713   5.123   7.036  0.2293 -0.0159  0.2349
  779loPI   C5A12459  10.890   5.193   7.372 -0.1253  0.1000 -0.2171
  779loPI   C6A12460  10.929   5.575   7.708 -0.2067 -0.1681 -0.0157
  779loPI   C1B12461  10.948   4.721   5.980 -0.0302 -0.1820 -0.2840
  779loPI   C2B12462  11.103   4.841   6.383  0.1748  0.0612 -0.2778
  779loPI   C3B12463  11.244   5.020   6.700 -0.0164 -0.1771  0.0071
  779loPI   C4B12464  11.695   4.929   6.706 -0.3367 -0.1367 -0.1016
  780loPI    C112465  16.170   3.653   5.199  0.1012  0.1213 -0.0680
  780loPI    C212466  16.147   4.052   5.205 -0.0630  0.1149 -0.1938
  780loPI    C312467  16.194   3.860   4.858  0.0259  0.0247 -0.1325
  780loPI   PO412468  16.014   3.596   5.395  0.0437  0.0897 -0.0252
  780loPI   GL112469  16.017   3.457   5.870 -0.2399  0.3153  0.1847
  780loPI   GL212470  16.061   3.777   5.868  0.0441 -0.4516  0.0664
  780loPI   C1A12471  16.041   3.486   6.323 -0.1530 -0.0678 -0.0353
  780loPI   C2A12472  15.942   3.389   6.764 -0.0790  0.0912 -0.0497
  780loPI   C3A12473  16.180   3.376   7.138  0.1069  0.0202  0.1399
  780loPI   C4A12474  16.220   3.493   7.672 -0.3257  0.2633  0.1670
  780loPI   C5A12475  16.528   3.393   7.896  0.1294 -0.2178 -0.0625
  780loPI   C6A12476  16.899   3.243   7.639 -0.2355 -0.2345 -0.1604
  780loPI   C1B12477  16.200   3.929   6.192  0.3269  0.1720  0.0045
  780loPI   C2B12478  16.126   3.899   6.653  0.1017  0.1137 -0.3998
  780loPI   C3B12479  16.226   3.864   6.936 -0.0251 -0.3657 -0.1799
  780loPI   C4B12480  16.162   3.858   7.378 -0.0223  0.0859  0.1312
  781loPI    C112481  13.877   4.991   4.883  0.2002  0.3434 -0.0802
  781loPI    C212482  14.123   4.688   4.970  0.0075  0.2036 -0.0146
  781loPI    C312483  13.993   4.738   4.595 -0.2336 -0.0030  0.0395
  781loPI   PO412484  14.028   5.168   5.060  0.0322 -0.0955  0.2285
  781loPI   GL112485  14.187   5.122   5.475  0.1700  0.0292 -0.3616
  781loPI   GL212486  13.981   5.364   5.667  0.1738 -0.0744  0.0619
  781loPI   C1A12487  14.396   4.858   5.821  0.1233  0.0660  0.1314
  781loPI   C2A12488  14.583   4.914   6.259  0.1730 -0.2941 -0.3296
  781loPI   C3A12489  14.619   4.856   6.698  0.0500  0.0427 -0.1142
  781loPI   C4A12490  14.692   5.022   7.053  0.0928  0.1605 -0.1587
  781loPI   C5A12491  14.780   4.963   7.475 -0.0385  0.0517 -0.0367
  781loPI   C6A12492  14.996   5.146   7.691 -0.0346  0.2615 -0.0231
  781loPI   C1B12493  14.242   5.285   6.115 -0.1074 -0.0423 -0.0948
  781loPI   C2B12494  14.248   5.298   6.547 -0.1122  0.3065 -0.0199
  781loPI   C3B12495  14.271   5.376   6.910 -0.2002 -0.0032 -0.0071
  781loPI   C4B12496  14.215   5.354   7.217 -0.3339 -0.0146  0.0904
  782loPI    C112497  17.990   5.035   5.166 -0.1806  0.0157 -0.1400
  782loPI    C212498  18.371   5.007   5.045 -0.1073 -0.0645  0.1024
  782loPI    C312499  18.099   5.184   4.811  0.0965  0.0728 -0.0340
  782loPI   PO412500  18.133   4.888   5.484 -0.2364 -0.1399 -0.1497
  782loPI   GL112501  18.502   4.871   5.778  0.0878  0.2476  0.1687
  782loPI   GL212502  18.442   5.111   5.815  0.1838  0.2826 -0.0760
  782loPI   C1A12503  18.397   4.730   6.165  0.0220 -0.1082 -0.0193
  782loPI   C2A12504  18.393   4.819   6.684  0.0656  0.0428 -0.2884
  782loPI   C3A12505  18.402   4.789   7.168  0.4107 -0.1578 -0.1311
  782loPI   C4A12506  18.434   4.799   7.626 -0.0219  0.0167  0.0463
  782loPI   C5A12507  18.615   4.965   8.094  0.0173 -0.0070  0.0508
  782loPI   C6A12508  18.663   5.356   8.339 -0.1900 -0.0287  0.2974
  782loPI   C1B12509  18.505   5.232   6.253 -0.2588  0.2471  0.2704
  782loPI   C2B12510  18.517   5.332   6.629  0.2618  0.0126  0.1048
  782loPI   C3B12511  18.536   5.346   7.031 -0.2159  0.0867 -0.0031
  782loPI   C4B12512  18.484   5.319   7.374 -0.1315 -0.1009 -0.2942
  783loPI    C112513  14.672   3.898   5.027 -0.3626  0.0467 -0.0683
  783loPI    C212514  14.665   3.632   4.728 -0.1327  0.0489 -0.0773
  783loPI    C312515  14.879   3.968   4.691  0.2610 -0.1551  0.2577
  783loPI   PO412516  14.668   3.679   5.238  0.3468  0.0030  0.3168
  783loPI   GL112517  14.666   3.611   5.681  0.0146  0.1143  0.2098
  783loPI   GL212518  15.010   3.742   5.752  0.0668  0.2621 -0.0155
  783loPI   C1A12519  14.607   3.636   6.148 -0.0183 -0.2796  0.0025
  783loPI   C2A12520  14.600   3.633   6.536  0.3085 -0.2708 -0.0997
  783loPI   C3A12521  14.633   3.609   6.963 -0.1593 -0.1677 -0.1410
  783loPI   C4A12522  14.837   3.520   7.324  0.1619 -0.3626  0.1416
  783loPI   C5A12523  14.818   3.736   7.738  0.0267  0.0776 -0.1898
  783loPI   C6A12524  14.625   3.906   8.154  0.1384  0.2078  0.1247
  783loPI   C1B12525  15.140   3.664   6.138  0.2868  0.0763 -0.2400
  783loPI   C2B12526  15.124   3.659   6.534  0.0588  0.0694  0.1677
  783loPI   C3B12527  15.142   3.712   6.953  0.2341  0.0399  0.2909
  783loPI   C4B12528  15.289   3.757   7.278 -0.1913  0.0046 -0.0418
  784loPI    C112529   7.658   2.585   5.183  0.1334  0.0271  0.0646
  784loPI    C212530   7.632   2.975   5.097 -0.0723  0.0015  0.0075
  784loPI    C312531   7.542   2.702   4.819 -0.0639 -0.0858  0.0899
  784loPI   PO412532   7.499   2.550   5.376  0.0672 -0.1575 -0.2574
  784loPI   GL112533   7.374   2.420   5.731  0.4209  0.2532  0.2235
  784loPI   GL212534   7.472   2.735   5.855 -0.1027 -0.2691 -0.1078
  784loPI   C1A12535   7.268   2.281   6.138  0.1046 -0.2563  0.0721
  784loPI   C2A12536   7.113   2.443   6.540 -0.1690 -0.0775  0.1637
  784loPI   C3A12537   7.203   2.568   6.914  0.1958  0.0990  0.1514
  784loPI   C4A12538   7.142   2.527   7.366 -0.0675 -0.2672  0.0404
  784loPI   C5A12539   7.027   2.618   7.760  0.2355 -0.1544 -0.0947
  784loPI   C6A12540   6.860   2.923   8.096 -0.2930  0.3271 -0.0560
  784loPI   C1B12541   7.381   2.782   6.315 -0.0985  0.1841  0.3450
  784loPI   C2B12542   7.492   3.010   6.703 -0.0031 -0.2797 -0.0701
  784loPI   C3B12543   7.530   3.023   7.112  0.2554 -0.1483 -0.0777
  784loPI   C4B12544   7.665   3.118   7.534  0.2453  0.2734 -0.0748
  785loPI    C112545  16.675   3.527   4.894 -0.1008  0.1000 -0.0067
  785loPI    C212546  16.699   3.924   4.931  0.0793  0.0908 -0.0177
  785loPI    C312547  16.583   3.762   4.585 -0.0477  0.1348  0.0039
  785loPI   PO412548  16.637   3.500   5.141  0.4679 -0.3444  0.2911
  785loPI   GL112549  16.641   3.523   5.524 -0.1596  0.0333 -0.2459
  785loPI   GL212550  16.463   3.632   5.616 -0.0028 -0.1086  0.1828
  785loPI   C1A12551  16.529   3.557   6.039  0.0819  0.0837 -0.0139
  785loPI   C2A12552  16.480   3.492   6.498 -0.4605  0.1518  0.1014
  785loPI   C3A12553  16.583   3.504   6.863  0.1039  0.0889 -0.2887
  785loPI   C4A12554  16.662   3.708   7.247  0.1974 -0.0975 -0.1364
  785loPI   C5A12555  17.068   3.792   7.462  0.0425 -0.0250  0.0775
  785loPI   C6A12556  17.482   3.772   7.748  0.0391 -0.3559  0.1577
  785loPI   C1B12557  16.508   4.001   5.808  0.1404  0.2307  0.1905
  785loPI   C2B12558  16.690   3.963   6.239  0.0977 -0.3012  0.0832
  785loPI   C3B12559  16.697   4.015   6.636  0.0760 -0.0109 -0.0793
  785loPI   C4B12560  16.896   4.084   6.988 -0.1829  0.0796 -0.0196
  786loPI    C112561   6.999  13.467   5.634  0.0121  0.1732 -0.1809
  786loPI    C212562   7.115  13.711   5.339 -0.0538  0.2112 -0.1757
  786loPI    C312563   6.910  13.378   5.254  0.0570  0.1448 -0.1848
  786loPI   PO412564   6.849  13.650   5.793  0.0842 -0.1482  0.0199
  786loPI   GL112565   6.635  13.869   5.996  0.1016 -0.1360 -0.1487
  786loPI   GL212566   6.511  14.051   5.822 -0.0208 -0.3125  0.1158
  786loPI   C1A12567   6.907  13.626   6.370  0.3820 -0.2670 -0.0737
  786loPI   C2A12568   6.901  13.525   6.759  0.2424  0.0392 -0.1087
  786loPI   C3A12569   6.801  13.189   7.017  0.1204  0.1325  0.0412
  786loPI   C4A12570   6.649  13.165   7.490  0.4038  0.1377 -0.1019
  786loPI   C5A12571   6.828  13.093   7.880 -0.0730  0.1101 -0.2047
  786loPI   C6A12572   6.647  12.952   8.317 -0.0105 -0.3785  0.1463
  786loPI   C1B12573   6.597  14.313   6.326 -0.0406 -0.1283 -0.0280
  786loPI   C2B12574   6.555  14.430   6.770 -0.2542  0.0358  0.0986
  786loPI   C3B12575   6.527  14.413   7.214  0.2869  0.1168 -0.1444
  786loPI   C4B12576   6.369  14.452   7.606 -0.1147  0.0804  0.3097
  787loPI    C112577  15.192   2.019   5.046 -0.3546 -0.2138 -0.5602
  787loPI    C212578  14.917   2.237   4.853 -0.1513  0.2985 -0.2904
  787loPI    C312579  15.298   2.240   4.729 -0.0826  0.3706 -0.0821
  787loPI   PO412580  15.216   2.123   5.298 -0.0690 -0.2850  0.1958
  787loPI   GL112581  15.224   2.499   5.516 -0.0103  0.2434  0.1321
  787loPI   GL212582  15.585   2.470   5.548  0.0476  0.0790 -0.0568
  787loPI   C1A12583  15.064   2.384   5.951 -0.0764 -0.2204 -0.0349
  787loPI   C2A12584  15.033   2.413   6.435  0.1606 -0.2060 -0.4413
  787loPI   C3A12585  15.124   2.313   6.788 -0.0984  0.0100 -0.2443
  787loPI   C4A12586  15.052   2.337   7.236  0.1192  0.2022  0.2679
  787loPI   C5A12587  14.830   2.759   7.437 -0.1241 -0.0543  0.0314
  787loPI   C6A12588  14.896   3.187   7.683 -0.0263  0.0302  0.2592
  787loPI   C1B12589  15.560   2.480   6.055  0.0270 -0.1142 -0.1297
  787loPI   C2B12590  15.559   2.351   6.549 -0.0036 -0.2129 -0.3871
  787loPI   C3B12591  15.641   2.407   6.879  0.0771  0.0400 -0.1556
  787loPI   C4B12592  15.646   2.336   7.247 -0.0142  0.1256 -0.2957
  788loPI    C112593  14.136  10.461   5.744 -0.0342 -0.0685 -0.0864
  788loPI    C212594  14.463  10.356   5.949  0.0189 -0.0702 -0.1717
  788loPI    C312595  14.476  10.381   5.550 -0.0260  0.1419 -0.1611
  788loPI   PO412596  13.860  10.297   5.913  0.1080 -0.2563 -0.0097
  788loPI   GL112597  13.678  10.286   6.374 -0.2463  0.2603  0.1769
  788loPI   GL212598  13.398  10.460   6.237 -0.0843 -0.0060  0.1462
  788loPI   C1A12599  14.041  10.269   6.762  0.0841 -0.1664  0.0888
  788loPI   C2A12600  14.285  10.190   7.129 -0.1633 -0.3967  0.0942
  788loPI   C3A12601  14.454   9.930   7.442 -0.2109  0.1696 -0.0207
  788loPI   C4A12602  14.336   9.799   7.855  0.2753  0.1342 -0.0529
  788loPI   C5A12603  14.481   9.585   8.224  0.0297  0.0753 -0.5013
  788loPI   C6A12604  14.587   9.608   8.645  0.0964  0.1414 -0.1071
  788loPI   C1B12605  13.265  10.682   6.577  0.0360 -0.0896 -0.3582
  788loPI   C2B12606  13.205  10.550   6.972  0.5058  0.1742  0.2583
  788loPI   C3B12607  13.334  10.311   7.346  0.1305 -0.0711 -0.1712
  788loPI   C4B12608  13.320  10.068   7.710 -0.1660 -0.1797  0.1204
  789loPI    C112609   6.757   6.060   4.939 -0.1523 -0.1123  0.0164
  789loPI    C212610   6.523   6.336   4.769 -0.1711 -0.1413 -0.0050
  789loPI    C312611   6.808   6.157   4.554 -0.0262  0.0066  0.0623
  789loPI   PO412612   6.646   5.975   5.177  0.1559  0.2024  0.2197
  789loPI   GL112613   6.765   5.903   5.659 -0.3293 -0.1276  0.1742
  789loPI   GL212614   7.034   5.879   5.628  0.3575 -0.0346 -0.1923
  789loPI   C1A12615   6.506   5.960   6.016  0.0789  0.3682 -0.0022
  789loPI   C2A12616   6.400   5.973   6.387  0.2660 -0.0815 -0.2108
  789loPI   C3A12617   6.375   5.991   6.855  0.1402  0.2046  0.0752
  789loPI   C4A12618   6.654   6.006   7.315  0.2084 -0.0828  0.1274
  789loPI   C5A12619   6.879   5.994   7.743 -0.2451 -0.5285 -0.1240
  789loPI   C6A12620   7.133   5.959   8.123  0.0774  0.0696 -0.3892
  789loPI   C1B12621   7.237   5.661   5.947  0.1524 -0.0609 -0.1606
  789loPI   C2B12622   7.304   5.727   6.347  0.0312  0.2127  0.0900
  789loPI   C3B12623   6.893   5.831   6.542 -0.3640  0.1055  0.1066
  789loPI   C4B12624   6.873   6.051   6.866  0.0130  0.2757  0.1070
  790loPI    C112625   6.866   4.793   5.131  0.1519 -0.0007  0.1855
  790loPI    C212626   6.818   5.139   4.938  0.1254 -0.1431 -0.0671
  790loPI    C312627   6.928   4.812   4.737 -0.1126 -0.3436  0.1230
  790loPI   PO412628   6.969   4.876   5.326  0.0914  0.0948  0.1519
  790loPI   GL112629   6.796   4.963   5.706 -0.2260 -0.1060 -0.4049
  790loPI   GL212630   6.759   4.661   5.826  0.0656  0.1297  0.1472
  790loPI   C1A12631   6.564   5.078   6.147  0.1263 -0.1132 -0.0781
  790loPI   C2A12632   6.423   4.964   6.577  0.0628  0.0628 -0.0621
  790loPI   C3A12633   6.387   5.176   6.886 -0.2724 -0.0493 -0.1752
  790loPI   C4A12634   6.372   5.345   7.296 -0.0345 -0.1032  0.0900
  790loPI   C5A12635   6.197   5.507   7.713  0.1073 -0.2817  0.1398
  790loPI   C6A12636   6.123   5.221   8.001  0.0107  0.0582  0.0150
  790loPI   C1B12637   7.007   4.866   6.157 -0.2162 -0.0902  0.0059
  790loPI   C2B12638   6.914   5.069   6.573 -0.0491 -0.0848  0.2492
  790loPI   C3B12639   6.920   5.338   6.901  0.1063 -0.1826  0.0331
  790loPI   C4B12640   6.608   5.605   7.013 -0.2265 -0.1636 -0.0368
  791loPI    C112641   2.656  16.842   4.973  0.0431 -0.0696  0.0072
  791loPI    C212642   2.497  16.536   4.770 -0.2712 -0.0434  0.2064
  791loPI    C312643   2.550  16.890   4.591  0.2390 -0.2497 -0.0718
  791loPI   PO412644   2.474  16.860   5.178 -0.2005 -0.1700  0.2597
  791loPI   GL112645   2.527  17.188   5.400  0.4113 -0.0715 -0.0189
  791loPI   GL212646   2.145  17.130   5.398 -0.1140  0.0051 -0.0231
  791loPI   C1A12647   2.549  17.206   5.761 -0.0814 -0.0318  0.3740
  791loPI   C2A12648   2.637  17.223   6.153 -0.0198  0.4213 -0.0168
  791loPI   C3A12649   2.487  17.270   6.650 -0.0667  0.3914  0.0218
  791loPI   C4A12650   2.563  17.289   7.041  0.2512 -0.2538 -0.1313
  791loPI   C5A12651   2.795  17.282   7.447  0.1075  0.0538 -0.1393
  791loPI   C6A12652   2.578  17.370   7.721 -0.0591  0.0196  0.1678
  791loPI   C1B12653   2.091  17.193   5.839 -0.2117  0.0593  0.1703
  791loPI   C2B12654   2.129  17.207   6.226 -0.0061 -0.2903 -0.1476
  791loPI   C3B12655   1.927  17.175   6.624  0.2389 -0.0043 -0.2182
  791loPI   C4B12656   1.492  17.049   6.640 -0.2322 -0.0302  0.0494
  792loPI    C112657  14.692   5.135   4.929  0.0245 -0.3976  0.3508
  792loPI    C212658  14.359   5.072   4.717  0.0802 -0.0078  0.1380
  792loPI    C312659  14.607   4.768   4.794 -0.1095 -0.2189 -0.0679
  792loPI   PO412660  14.630   5.317   5.051  0.4480  0.0774  0.0882
  792loPI   GL112661  14.824   5.477   5.417 -0.1321  0.3545  0.1553
  792loPI   GL212662  15.083   5.433   5.624 -0.1342  0.0082  0.1629
  792loPI   C1A12663  14.804   5.082   5.758 -0.0083 -0.1878  0.0504
  792loPI   C2A12664  15.113   5.050   6.156  0.0504  0.0517 -0.0142
  792loPI   C3A12665  15.222   5.111   6.639  0.0708  0.0230 -0.1776
  792loPI   C4A12666  15.235   5.088   7.127  0.2246  0.3344  0.1297
  792loPI   C5A12667  15.481   5.098   7.506  0.0426 -0.5050  0.2791
  792loPI   C6A12668  15.662   5.029   7.934 -0.0216 -0.0337  0.1214
  792loPI   C1B12669  15.255   5.621   5.974  0.1176  0.2113  0.0398
  792loPI   C2B12670  15.304   5.604   6.423  0.1455  0.1151  0.0433
  792loPI   C3B12671  15.307   5.612   6.884 -0.1849 -0.1396  0.1484
  792loPI   C4B12672  15.428   5.560   7.317  0.0417  0.1178  0.2890
  793loPI    C112673   3.254   1.972   5.071  0.1713 -0.1531 -0.3305
  793loPI    C212674   2.992   2.222   4.901  0.0965  0.0156  0.0236
  793loPI    C312675   3.007   1.840   4.785  0.1689  0.1626 -0.4792
  793loPI   PO412676   3.228   2.041   5.319  0.1587 -0.0033  0.1313
  793loPI   GL112677   3.297   2.347   5.632 -0.1733 -0.0264 -0.0739
  793loPI   GL212678   3.563   2.104   5.751 -0.2539  0.0485  0.2849
  793loPI   C1A12679   3.329   2.500   5.964  0.2715 -0.0326 -0.0262
  793loPI   C2A12680   3.361   2.512   6.456  0.4932  0.0084  0.2151
  793loPI   C3A12681   3.396   2.607   6.825 -0.0248  0.0104 -0.3236
  793loPI   C4A12682   3.328   2.462   7.246 -0.3088  0.1190 -0.1455
  793loPI   C5A12683   3.422   2.485   7.755 -0.0063  0.2339  0.0153
  793loPI   C6A12684   3.776   2.190   8.039 -0.3661 -0.0442 -0.3988
  793loPI   C1B12685   3.546   2.089   6.199  0.0762  0.1014 -0.1866
  793loPI   C2B12686   3.644   2.178   6.722 -0.2379  0.0246 -0.0836
  793loPI   C3B12687   3.636   2.115   7.168  0.0556 -0.0467 -0.1883
  793loPI   C4B12688   3.620   2.113   7.573  0.0073  0.1053 -0.0515
  794loPI    C112689  15.179   2.658   5.005 -0.0974 -0.2893  0.0655
  794loPI    C212690  15.506   2.852   5.129 -0.2959  0.2460 -0.2130
  794loPI    C312691  15.504   2.672   4.772 -0.1827 -0.0985 -0.0447
  794loPI   PO412692  15.010   2.858   5.058 -0.0490 -0.2343 -0.2610
  794loPI   GL112693  15.088   2.982   5.424  0.0997 -0.2555  0.1168
  794loPI   GL212694  15.027   3.270   5.521 -0.2222 -0.2271 -0.3315
  794loPI   C1A12695  15.386   2.880   5.785  0.0240 -0.2929  0.1753
  794loPI   C2A12696  15.273   2.852   6.250 -0.2402  0.0376  0.1922
  794loPI   C3A12697  15.300   2.812   6.665  0.1663  0.0232 -0.2149
  794loPI   C4A12698  15.404   2.790   7.090  0.1072  0.1188  0.1175
  794loPI   C5A12699  15.315   2.680   7.532 -0.1108 -0.3367  0.0006
  794loPI   C6A12700  15.062   2.428   7.739 -0.0517 -0.0796 -0.0397
  794loPI   C1B12701  15.018   3.193   5.910 -0.1298  0.0897 -0.1840
  794loPI   C2B12702  14.940   3.233   6.371  0.0432 -0.3171 -0.1519
  794loPI   C3B12703  14.914   3.158   6.724 -0.3389 -0.3231  0.1052
  794loPI   C4B12704  15.075   3.147   7.102  0.0800  0.0099  0.0070
  795loPI    C112705  13.915  14.542   5.059 -0.0910 -0.1634 -0.1633
  795loPI    C212706  14.133  14.788   4.830  0.0777  0.0239  0.1903
  795loPI    C312707  14.086  14.405   4.724  0.2267  0.0858 -0.1085
  795loPI   PO412708  14.046  14.636   5.307  0.0531  0.1345 -0.0655
  795loPI   GL112709  14.013  14.476   5.768 -0.1981  0.0669  0.0486
  795loPI   GL212710  13.898  14.832   5.863 -0.1137 -0.1772  0.1316
  795loPI   C1A12711  14.315  14.688   6.093 -0.2650  0.2816 -0.0475
  795loPI   C2A12712  14.397  14.863   6.489 -0.0991 -0.1017 -0.2287
  795loPI   C3A12713  14.481  14.869   6.908 -0.0833 -0.1746  0.0319
  795loPI   C4A12714  14.398  14.915   7.380 -0.0836  0.1275 -0.0597
  795loPI   C5A12715  14.394  14.844   7.854  0.0151  0.5430  0.3569
  795loPI   C6A12716  14.310  14.795   8.257  0.0701  0.2847 -0.2421
  795loPI   C1B12717  13.848  14.698   6.318  0.2025 -0.1391 -0.1167
  795loPI   C2B12718  14.001  14.750   6.746  0.1450  0.4145  0.2123
  795loPI   C3B12719  13.790  14.823   7.104 -0.2013  0.2280  0.1649
  795loPI   C4B12720  13.879  14.854   7.567  0.1397  0.1234 -0.0302
  796loPI    C112721  16.064   2.642   5.019  0.1113 -0.1167  0.1089
  796loPI    C212722  16.083   2.262   4.893  0.0288 -0.1641  0.2382
  796loPI    C312723  16.402   2.501   4.857  0.0742 -0.2397  0.1374
  796loPI   PO412724  15.955   2.683   5.315 -0.3000 -0.0423 -0.1397
  796loPI   GL112725  16.150   2.919   5.745 -0.0630  0.0661  0.0863
  796loPI   GL212726  16.059   2.596   5.782  0.0291 -0.0807  0.1084
  796loPI   C1A12727  15.848   2.943   6.094  0.2093 -0.1891  0.0309
  796loPI   C2A12728  15.799   2.794   6.471 -0.2224 -0.1296  0.2584
  796loPI   C3A12729  15.805   2.931   6.839 -0.2240  0.1892  0.1011
  796loPI   C4A12730  15.890   2.964   7.157 -0.3747 -0.1198  0.0052
  796loPI   C5A12731  15.854   3.105   7.594  0.1920  0.0676 -0.1875
  796loPI   C6A12732  16.014   3.215   8.061  0.1546 -0.0150 -0.1224
  796loPI   C1B12733  16.292   2.585   6.146  0.2705 -0.0740 -0.2734
  796loPI   C2B12734  16.222   2.509   6.561  0.0053 -0.0504 -0.1343
  796loPI   C3B12735  16.155   2.486   7.000 -0.0200 -0.2860  0.0412
  796loPI   C4B12736  16.021   2.533   7.426  0.2641 -0.2110 -0.1432
  797loPI    C112737   2.567   4.323   4.688  0.2661 -0.0758 -0.0158
  797loPI    C212738   2.483   4.713   4.710  0.0579 -0.1060 -0.2314
  797loPI    C312739   2.833   4.591   4.559  0.3355  0.0091  0.2950
  797loPI   PO412740   2.575   4.196   4.932  0.1559  0.0572  0.0884
  797loPI   GL112741   2.594   4.262   5.347  0.2281  0.0719 -0.0392
  797loPI   GL212742   2.568   4.541   5.533 -0.2132  0.2765  0.2700
  797loPI   C1A12743   2.658   4.113   5.791 -0.0847  0.1790  0.3417
  797loPI   C2A12744   2.581   4.190   6.216 -0.2738 -0.1318 -0.1336
  797loPI   C3A12745   2.589   4.315   6.659 -0.0438 -0.0071  0.0329
  797loPI   C4A12746   2.624   4.296   7.049 -0.0613 -0.2166 -0.3231
  797loPI   C5A12747   2.643   4.233   7.492  0.0432  0.0653 -0.0653
  797loPI   C6A12748   2.854   4.159   7.960 -0.3583 -0.0301 -0.1450
  797loPI   C1B12749   2.374   4.615   5.978 -0.0016 -0.1694 -0.0578
  797loPI   C2B12750   2.415   4.710   6.438 -0.1100  0.3376  0.0228
  797loPI   C3B12751   2.304   4.674   6.850  0.0462  0.0861  0.0263
  797loPI   C4B12752   2.393   4.740   7.292  0.1080  0.1113 -0.3240
  798loPI    C112753   4.064  18.464   4.693 -0.2347 -0.0532  0.1327
  798loPI    C212754   4.259  18.355   4.361 -0.1269  0.0872  0.1491
  798loPI    C312755   3.907  18.187   4.451 -0.1046 -0.0296  0.0204
  798loPI   PO412756   4.194  18.496   4.947  0.0870 -0.1244  0.2427
  798loPI   GL112757   4.156  18.279   5.317  0.0812  0.1053 -0.1287
  798loPI   GL212758   4.267  17.944   5.309 -0.1598 -0.1686 -0.5076
  798loPI   C1A12759   3.998  18.235   5.737 -0.1730 -0.0313  0.0468
  798loPI   C2A12760   3.961  18.241   6.121 -0.2060 -0.0054  0.1421
  798loPI   C3A12761   4.103  18.164   6.521  0.0506 -0.1799 -0.1831
  798loPI   C4A12762   4.100  18.311   6.916 -0.2235  0.0854 -0.0445
  798loPI   C5A12763   4.242  18.355   7.362 -0.0878  0.0260 -0.1010
  798loPI   C6A12764   4.652  18.320   7.499  0.0059  0.0061  0.2622
  798loPI   C1B12765   4.318  17.862   5.820  0.0082 -0.1249  0.1384
  798loPI   C2B12766   4.293  17.773   6.345  0.1765  0.0003  0.1219
  798loPI   C3B12767   4.354  17.859   6.771 -0.2118 -0.2823 -0.1171
  798loPI   C4B12768   4.537  17.920   7.197  0.0896  0.1144  0.0494
  799loPI    C112769  14.740  12.048   5.617  0.1270 -0.1759  0.1734
  799loPI    C212770  15.008  12.117   5.327  0.1115 -0.1175  0.1728
  799loPI    C312771  14.630  12.023   5.233  0.0541  0.1078  0.1737
  799loPI   PO412772  14.772  12.308   5.720 -0.2640  0.0241 -0.0423
  799loPI   GL112773  14.821  12.470   6.023 -0.2591  0.1258  0.4524
  799loPI   GL212774  15.121  12.293   6.111 -0.1022  0.3251 -0.1318
  799loPI   C1A12775  14.846  12.628   6.490 -0.1386  0.0359 -0.0041
  799loPI   C2A12776  14.647  12.669   6.962  0.1124 -0.0611 -0.1543
  799loPI   C3A12777  14.413  12.629   7.330 -0.1752 -0.0938  0.1451
  799loPI   C4A12778  14.227  12.239   7.382 -0.1036  0.2635  0.4787
  799loPI   C5A12779  14.097  11.922   7.634 -0.0809 -0.0375 -0.1104
  799loPI   C6A12780  13.713  11.879   7.890  0.1501 -0.1098 -0.0355
  799loPI   C1B12781  15.153  12.233   6.536 -0.1746 -0.3146  0.1793
  799loPI   C2B12782  15.208  12.472   6.950 -0.0191  0.2060  0.0883
  799loPI   C3B12783  15.377  12.720   7.367 -0.2405 -0.2844 -0.4516
  799loPI   C4B12784  15.462  12.669   7.770 -0.2555  0.0336 -0.0745
  800loPI    C112785  12.827   9.220   5.527  0.0912 -0.0930  0.0378
  800loPI    C212786  13.018   9.512   5.331  0.1181 -0.0232  0.1664
  800loPI    C312787  12.927   9.171   5.143  0.0300  0.0924 -0.0032
  800loPI   PO412788  12.937   9.253   5.831 -0.0111 -0.3128 -0.0049
  800loPI   GL112789  12.953   9.183   6.185 -0.1057  0.1289 -0.1629
  800loPI   GL212790  13.293   9.163   6.311 -0.0950  0.3760  0.0980
  800loPI   C1A12791  12.615   9.170   6.555  0.3360  0.1392 -0.3900
  800loPI   C2A12792  12.421   9.085   6.961  0.2265 -0.2544  0.2349
  800loPI   C3A12793  12.131   9.039   7.402 -0.0181 -0.0216 -0.0446
  800loPI   C4A12794  11.822   9.210   7.742 -0.3257  0.2112 -0.0702
  800loPI   C5A12795  11.721   9.064   8.154  0.3052 -0.0345  0.0663
  800loPI   C6A12796  11.728   8.915   8.559  0.4551  0.0087 -0.3446
  800loPI   C1B12797  13.070   8.979   6.664  0.1404  0.0279 -0.1715
  800loPI   C2B12798  12.897   8.831   7.084 -0.2305 -0.0952  0.0798
  800loPI   C3B12799  12.514   8.596   7.245  0.1403 -0.0234 -0.1134
  800loPI   C4B12800  12.137   8.571   7.116  0.1256  0.1203 -0.0904
  801loPI    C112801  18.384  16.683   4.928  0.0250 -0.0013  0.0787
  801loPI    C212802  18.104  16.842   4.690 -0.1279 -0.1342  0.1676
  801loPI    C312803  18.487  16.948   4.647 -0.1828  0.0011  0.0027
  801loPI   PO412804  18.337  16.740   5.187 -0.4527  0.3458 -0.0157
  801loPI   GL112805  18.365  17.025   5.628  0.2970  0.0229  0.2234
  801loPI   GL212806  18.632  17.149   5.691 -0.0319  0.0412 -0.1840
  801loPI   C1A12807  18.397  17.120   6.131  0.1643  0.1670  0.1285
  801loPI   C2A12808  18.347  17.029   6.515  0.3344 -0.1533 -0.1638
  801loPI   C3A12809  18.338  16.977   6.999  0.3483 -0.2047 -0.1051
  801loPI   C4A12810  18.306  16.880   7.450  0.0809 -0.1665 -0.3122
  801loPI   C5A12811  18.584  17.030   7.771 -0.2754  0.1067 -0.1003
  801loPI   C6A12812  18.759  17.208   8.080  0.3248  0.0936 -0.3822
  801loPI   C1B12813  18.676  16.748   6.002 -0.0865 -0.3257 -0.1723
  801loPI   C2B12814  18.700  16.674   6.369  0.3039 -0.1391 -0.0313
  801loPI   C3B12815  18.609  16.555   6.868 -0.0670 -0.0193  0.1159
  801loPI   C4B12816  18.612  16.553   7.250  0.0561  0.0354  0.0912
  802loPI    C112817  10.198  10.471   4.907 -0.0063 -0.0609  0.0079
  802loPI    C212818  10.000  10.810   4.984  0.0589 -0.0262  0.0240
  802loPI    C312819   9.830  10.525   4.761  0.0553  0.0726 -0.1007
  802loPI   PO412820  10.305  10.438   5.176  0.2623  0.1789  0.2411
  802loPI   GL112821  10.311  10.390   5.604  0.3251 -0.1813  0.1934
  802loPI   GL212822  10.134  10.570   5.831  0.4502  0.2355 -0.0445
  802loPI   C1A12823  10.451  10.288   6.055  0.1177 -0.1363 -0.2740
  802loPI   C2A12824  10.383  10.174   6.455  0.2478  0.0970 -0.1303
  802loPI   C3A12825  10.054  10.250   6.737  0.4091  0.2732 -0.1687
  802loPI   C4A12826  10.278  10.090   7.121 -0.0226 -0.0638  0.1767
  802loPI   C5A12827  10.370   9.947   7.536  0.1887 -0.1406  0.1078
  802loPI   C6A12828  10.775   9.744   7.753  0.3054 -0.1155  0.1831
  802loPI   C1B12829  10.188  10.655   6.287 -0.0595 -0.2771 -0.4016
  802loPI   C2B12830  10.203  10.717   6.689 -0.1041  0.1003  0.0196
  802loPI   C3B12831  10.228  10.747   7.068  0.0238 -0.0064  0.2708
  802loPI   C4B12832  10.310  11.005   7.427  0.0856  0.2472 -0.3430
  803loPI    C112833  12.756   6.824   5.453 -0.2038  0.0705 -0.1591
  803loPI    C212834  12.584   7.063   5.182  0.1501  0.2625 -0.2206
  803loPI    C312835  12.948   6.912   5.113  0.0605 -0.0448 -0.0427
  803loPI   PO412836  12.699   6.994   5.724  0.0433 -0.1660 -0.3571
  803loPI   GL112837  12.899   7.320   6.046  0.0763 -0.0338  0.1121
  803loPI   GL212838  13.212   7.119   6.083 -0.0261 -0.0330 -0.1422
  803loPI   C1A12839  12.891   7.451   6.505 -0.1834  0.1224  0.1674
  803loPI   C2A12840  13.007   7.314   6.862  0.0406  0.0589 -0.4439
  803loPI   C3A12841  13.025   7.337   7.316  0.3129  0.2099 -0.0696
  803loPI   C4A12842  12.775   7.586   7.571  0.0337  0.0671  0.1708
  803loPI   C5A12843  12.646   7.924   7.782 -0.0345  0.1971  0.1868
  803loPI   C6A12844  12.375   8.253   8.037 -0.0302 -0.0434  0.1951
  803loPI   C1B12845  13.068   6.961   6.454 -0.0017 -0.4163  0.0196
  803loPI   C2B12846  13.377   6.921   6.830 -0.0721 -0.0365 -0.0728
  803loPI   C3B12847  13.437   6.872   7.204 -0.0243 -0.0057 -0.0607
  803loPI   C4B12848  13.332   7.010   7.569  0.1427  0.2742  0.0613
  804loPI    C112849   8.154  16.452   5.070 -0.0823 -0.1766  0.1993
  804loPI    C212850   8.213  16.337   4.691  0.2571  0.0382  0.1831
  804loPI    C312851   8.087  16.709   4.771  0.0454 -0.0519  0.2765
  804loPI   PO412852   8.260  16.459   5.178 -0.0556  0.1708  0.2138
  804loPI   GL112853   8.178  16.631   5.551 -0.0519 -0.0053 -0.0990
  804loPI   GL212854   7.830  16.603   5.575  0.1298 -0.2864 -0.0363
  804loPI   C1A12855   8.318  16.643   6.009 -0.0902 -0.1331  0.1378
  804loPI   C2A12856   8.319  16.748   6.386  0.1110 -0.1549  0.0728
  804loPI   C3A12857   8.230  16.767   6.767 -0.0378  0.1307  0.0817
  804loPI   C4A12858   8.187  16.961   7.220 -0.1360 -0.1343  0.1758
  804loPI   C5A12859   8.408  16.959   7.750 -0.0152  0.0207  0.2429
  804loPI   C6A12860   8.538  16.958   8.172  0.0070 -0.6221 -0.1049
  804loPI   C1B12861   7.801  16.718   5.935  0.0726 -0.0227 -0.0518
  804loPI   C2B12862   7.823  16.690   6.359  0.1163  0.0977  0.3747
  804loPI   C3B12863   7.730  16.858   6.796  0.0458 -0.0266 -0.0086
  804loPI   C4B12864   7.648  16.874   7.140 -0.2687  0.0687 -0.1924
  805loPI    C112865   1.423   8.846   5.243  0.0541 -0.0387 -0.0461
  805loPI    C212866   1.597   8.797   4.886  0.0329  0.0317 -0.0661
  805loPI    C312867   1.281   8.573   4.987 -0.0095  0.0654 -0.1226
  805loPI   PO412868   1.616   8.858   5.394  0.0504 -0.2376 -0.1772
  805loPI   GL112869   1.513   9.169   5.738  0.1862  0.0239 -0.4660
  805loPI   GL212870   1.734   8.981   5.900  0.0097 -0.0404  0.1512
  805loPI   C1A12871   1.287   9.087   6.162  0.2199  0.1337  0.0299
  805loPI   C2A12872   1.232   8.974   6.546 -0.1942 -0.1090  0.3171
  805loPI   C3A12873   1.209   8.995   6.953 -0.0679  0.1833 -0.1578
  805loPI   C4A12874   1.256   9.042   7.440 -0.1694 -0.1320  0.1702
  805loPI   C5A12875   1.381   8.968   7.848 -0.1394  0.3033  0.2294
  805loPI   C6A12876   1.723   8.713   7.963  0.0903 -0.0568 -0.1208
  805loPI   C1B12877   1.767   9.152   6.280 -0.0414  0.0680  0.0052
  805loPI   C2B12878   1.754   9.091   6.810  0.0239  0.2013 -0.0418
  805loPI   C3B12879   1.701   9.096   7.246 -0.2127  0.0765  0.0305
  805loPI   C4B12880   1.800   9.091   7.567 -0.3164  0.0074 -0.0405
  806loPI    C112881  11.596  16.743   5.066 -0.0206  0.1343 -0.1032
  806loPI    C212882  11.631  17.136   5.133  0.1699  0.0731  0.1779
  806loPI    C312883  11.848  16.961   4.846 -0.0182  0.1942 -0.0417
  806loPI   PO412884  11.571  16.642   5.385 -0.1479 -0.0795 -0.0989
  806loPI   GL112885  11.633  16.561   5.794 -0.1517  0.0938  0.1245
  806loPI   GL212886  11.426  16.880   5.821  0.0759 -0.0092  0.0002
  806loPI   C1A12887  11.595  16.649   6.242  0.1308  0.2295  0.0307
  806loPI   C2A12888  11.593  16.415   6.607 -0.2033 -0.0715  0.2016
  806loPI   C3A12889  11.540  16.430   7.021 -0.1329 -0.3077 -0.2975
  806loPI   C4A12890  11.541  16.543   7.472  0.0688  0.4422 -0.2006
  806loPI   C5A12891  11.492  16.779   7.902  0.0240 -0.0025  0.0611
  806loPI   C6A12892  11.378  17.144   8.121 -0.2419  0.0654 -0.0775
  806loPI   C1B12893  11.366  17.232   6.007  0.0774 -0.0096 -0.2288
  806loPI   C2B12894  11.416  17.044   6.473 -0.0602  0.0174  0.0765
  806loPI   C3B12895  11.370  16.863   6.835 -0.1621  0.0715 -0.2105
  806loPI   C4B12896  11.293  16.902   7.272 -0.0578 -0.1675  0.0701
  807loPI    C112897  15.749  10.290   5.559  0.0771  0.0203 -0.1363
  807loPI    C212898  15.641  10.187   5.188 -0.0490  0.1315 -0.1311
  807loPI    C312899  15.402  10.420   5.408  0.0418  0.0945  0.0077
  807loPI   PO412900  15.772  10.160   5.714  0.1957 -0.2721  0.0554
  807loPI   GL112901  15.775  10.127   6.148 -0.2914  0.1055 -0.0461
  807loPI   GL212902  15.468  10.152   6.309 -0.0272  0.0568  0.0542
  807loPI   C1A12903  15.988  10.172   6.413 -0.2175  0.0426  0.0450
  807loPI   C2A12904  15.988  10.115   6.872 -0.3509  0.0536 -0.3640
  807loPI   C3A12905  15.993  10.075   7.307 -0.2749  0.1744  0.3103
  807loPI   C4A12906  16.146  10.019   7.623  0.0811 -0.2304 -0.1279
  807loPI   C5A12907  16.182  10.235   7.992 -0.2618 -0.0716  0.2979
  807loPI   C6A12908  16.429  10.602   8.034 -0.2098  0.4706  0.0101
  807loPI   C1B12909  15.549  10.065   6.688 -0.4443  0.2330  0.0121
  807loPI   C2B12910  15.522  10.045   7.165  0.0626 -0.1579 -0.3603
  807loPI   C3B12911  15.444   9.969   7.614  0.3255  0.1713 -0.2378
  807loPI   C4B12912  15.728   9.984   7.965  0.2741  0.0118 -0.1490
  808loPI    C112913  18.263  12.264   4.914 -0.0238  0.0493  0.0219
  808loPI    C212914  18.349  12.393   4.546  0.1598 -0.2240 -0.0342
  808loPI    C312915  18.071  12.110   4.598 -0.0116 -0.0411  0.0582
  808loPI   PO412916  18.503  12.279   5.170 -0.0545  0.3127 -0.3720
  808loPI   GL112917  18.703  12.024   5.500 -0.1036 -0.1354 -0.0788
  808loPI   GL212918  18.428  12.140   5.702 -0.1878  0.0794  0.0310
  808loPI   C1A12919  18.917  12.144   5.884 -0.0049 -0.1443 -0.1519
  808loPI   C2A12920  18.903  12.171   6.329 -0.0478 -0.0437  0.0105
  808loPI   C3A12921  19.056  12.076   6.771 -0.1775  0.1155  0.0456
  808loPI   C4A12922  19.011  12.116   7.204  0.4487 -0.1345 -0.2012
  808loPI   C5A12923  19.003  12.131   7.579  0.2418 -0.0914  0.0483
  808loPI   C6A12924  19.226  11.890   7.884  0.0867  0.3186  0.0941
  808loPI   C1B12925  18.476  12.140   6.155  0.0801  0.1813  0.0190
  808loPI   C2B12926  18.493  12.152   6.616 -0.0609 -0.3537 -0.1655
  808loPI   C3B12927  18.505  12.094   7.001  0.0554  0.1771 -0.1562
  808loPI   C4B12928  18.545  12.070   7.417 -0.1013 -0.1879  0.2664
  809loPI    C112929   6.868  10.633   5.225 -0.0306  0.1544 -0.2684
  809loPI    C212930   6.819  11.018   5.128  0.2966  0.3009  0.1178
  809loPI    C312931   7.185  10.856   5.125  0.1855  0.0438  0.1455
  809loPI   PO412932   6.885  10.589   5.473 -0.0589  0.0962  0.1039
  809loPI   GL112933   6.922  10.263   5.824 -0.1174 -0.2982  0.0621
  809loPI   GL212934   6.965   9.963   5.892  0.0734  0.4339 -0.0480
  809loPI   C1A12935   6.744  10.041   6.280 -0.0476  0.1091 -0.3200
  809loPI   C2A12936   6.539   9.965   6.680 -0.0610  0.0529  0.1614
  809loPI   C3A12937   6.457   9.855   7.017  0.0751 -0.1110  0.0243
  809loPI   C4A12938   6.617   9.850   7.467 -0.1750 -0.0587  0.0468
  809loPI   C5A12939   6.824   9.608   7.810 -0.2077 -0.4232 -0.3834
  809loPI   C6A12940   7.191   9.567   7.985 -0.1392 -0.0502 -0.0285
  809loPI   C1B12941   7.199   9.860   6.264 -0.2440  0.1287 -0.2339
  809loPI   C2B12942   7.039   9.914   6.681  0.1530 -0.3178 -0.1929
  809loPI   C3B12943   7.008   9.719   7.027  0.1041 -0.1947  0.2450
  809loPI   C4B12944   7.142   9.858   7.472 -0.0947 -0.0687 -0.1447
  810loPI    C112945   9.670   0.509   5.297  0.1112 -0.2316 -0.0879
  810loPI    C212946   9.471   0.321   5.005 -0.0403  0.2124 -0.2788
  810loPI    C312947   9.273   0.552   5.264  0.1074 -0.0964  0.1188
  810loPI   PO412948   9.862   0.361   5.416 -0.1275 -0.3350 -0.2623
  810loPI   GL112949   9.911   0.160   5.807 -0.1235 -0.0500 -0.0471
  810loPI   GL212950   9.695   0.129   5.952  0.2619  0.0884  0.0562
  810loPI   C1A12951  10.148   0.259   6.156 -0.3511  0.2929 -0.0766
  810loPI   C2A12952  10.236   0.294   6.560  0.0107 -0.1221 -0.1647
  810loPI   C3A12953  10.242   0.335   7.017  0.1294 -0.0528 -0.2385
  810loPI   C4A12954  10.276   0.302   7.519 -0.1711 -0.0563 -0.0827
  810loPI   C5A12955  10.390   0.214   7.905  0.0081 -0.1245 -0.2124
  810loPI   C6A12956  10.618   0.011   8.273 -0.0465  0.0929 -0.0531
  810loPI   C1B12957   9.747   0.183   6.434  0.0444 -0.1058  0.2405
  810loPI   C2B12958   9.778   0.173   6.828  0.1280  0.0751 -0.1056
  810loPI   C3B12959   9.809   0.322   7.223  0.0531  0.1070  0.0094
  810loPI   C4B12960   9.950  -0.019   7.678 -0.0427 -0.0880  0.0105
  811loPI    C112961  11.777   5.313   4.744 -0.0679  0.0907  0.2536
  811loPI    C212962  11.466   5.557   4.805  0.1076  0.3305  0.2015
  811loPI    C312963  11.718   5.625   4.501 -0.1879 -0.2727 -0.1992
  811loPI   PO412964  11.841   5.223   5.008  0.1854  0.1069 -0.2316
  811loPI   GL112965  11.585   5.018   5.396 -0.2049 -0.0587 -0.0407
  811loPI   GL212966  11.669   5.189   5.625  0.2156 -0.0651  0.1454
  811loPI   C1A12967  11.219   5.082   5.665  0.1340 -0.1501  0.2197
  811loPI   C2A12968  11.029   5.292   5.970  0.0468 -0.1241 -0.0313
  811loPI   C3A12969  11.009   5.453   6.380  0.2244 -0.0831  0.2533
  811loPI   C4A12970  11.016   5.469   6.814 -0.0947 -0.0247  0.1950
  811loPI   C5A12971  11.304   5.263   7.149  0.1466 -0.2647  0.2274
  811loPI   C6A12972  11.595   4.982   7.300 -0.0389 -0.0480  0.2942
  811loPI   C1B12973  11.607   5.178   6.121  0.2260 -0.0569  0.1533
  811loPI   C2B12974  11.532   5.410   6.588 -0.0262 -0.0226 -0.2184
  811loPI   C3B12975  11.738   5.511   7.038  0.1291 -0.0339  0.0432
  811loPI   C4B12976  12.131   5.662   7.126 -0.0263 -0.1163  0.2212
  812loPI    C112977   7.405  13.253   5.195 -0.0198  0.4147 -0.0636
  812loPI    C212978   7.577  13.007   4.932  0.1383  0.0903  0.3321
  812loPI    C312979   7.628  13.402   4.899  0.0070  0.0696 -0.2213
  812loPI   PO412980   7.395  13.122   5.506  0.0512 -0.1095  0.0964
  812loPI   GL112981   7.259  13.158   5.925 -0.1884 -0.0548 -0.0506
  812loPI   GL212982   7.360  13.507   5.971 -0.0643  0.4132  0.0936
  812loPI   C1A12983   7.237  13.242   6.389  0.0676 -0.2110  0.2494
  812loPI   C2A12984   7.165  13.004   6.714 -0.0583 -0.0457 -0.1113
  812loPI   C3A12985   7.026  12.725   6.916 -0.1669  0.0428  0.0676
  812loPI   C4A12986   6.887  12.734   7.331 -0.1041  0.1617  0.1071
  812loPI   C5A12987   6.435  12.794   7.271 -0.0978 -0.1455 -0.3375
  812loPI   C6A12988   6.106  13.004   7.330  0.0386  0.0870 -0.2524
  812loPI   C1B12989   7.599  13.590   6.283  0.1216  0.0285  0.1758
  812loPI   C2B12990   7.457  13.584   6.731  0.0828  0.0747 -0.2756
  812loPI   C3B12991   7.260  13.315   7.078  0.1474 -0.2529 -0.2118
  812loPI   C4B12992   7.076  13.360   7.498 -0.2776  0.0937  0.0353
  813loPI    C112993  12.347  11.750   4.880 -0.2549  0.0127  0.1939
  813loPI    C212994  11.967  11.769   4.757 -0.1638  0.2635 -0.0608
  813loPI    C312995  12.242  11.586   4.531 -0.1303  0.0814  0.1236
  813loPI   PO412996  12.305  11.703   5.098  0.1422 -0.3351  0.0702
  813loPI   GL112997  12.279  11.861   5.525  0.2448  0.1496 -0.0814
  813loPI   GL212998  12.136  12.216   5.492 -0.0502  0.2466 -0.0456
  813loPI   C1A12999  12.438  11.997   5.957 -0.0495 -0.1432  0.2223
  813loPI   C2A13000  12.376  12.110   6.331 -0.0459 -0.0533 -0.1260
  813loPI   C3A13001  12.248  12.269   6.730  0.0372 -0.0033  0.1740
  813loPI   C4A13002  12.365  12.239   7.228 -0.1036 -0.1557 -0.1476
  813loPI   C5A13003  11.985  12.231   7.552 -0.1806  0.0655 -0.0083
  813loPI   C6A13004  11.738  12.203   7.901  0.0726  0.0139  0.1429
  813loPI   C1B13005  12.038  12.410   5.850  0.0340  0.0667 -0.0695
  813loPI   C2B13006  11.939  12.500   6.311 -0.2903 -0.2944 -0.0402
  813loPI   C3B13007  11.761  12.460   6.764 -0.0592  0.1507  0.1815
  813loPI   C4B13008  11.832  12.356   7.111 -0.1174  0.0388 -0.3189
  814loPI    C113009   1.492   4.952   4.953  0.2282  0.0334  0.1519
  814loPI    C213010   1.314   4.593   4.944  0.1210  0.0846  0.2047
  814loPI    C313011   1.589   4.687   4.669  0.2382 -0.0829  0.2623
  814loPI   PO413012   1.633   4.988   5.227 -0.2607  0.0021 -0.1521
  814loPI   GL113013   1.485   5.045   5.675 -0.0823 -0.0707  0.1860
  814loPI   GL213014   1.108   4.980   5.678  0.2103  0.1894 -0.3226
  814loPI   C1A13015   1.569   5.020   6.150 -0.1646 -0.2573  0.0122
  814loPI   C2A13016   1.510   5.055   6.567 -0.1000  0.0430  0.1892
  814loPI   C3A13017   1.495   5.166   6.965  0.3949 -0.1933  0.1811
  814loPI   C4A13018   1.507   5.127   7.399  0.1899  0.1039 -0.2416
  814loPI   C5A13019   1.612   5.320   7.843 -0.2342 -0.2678 -0.1781
  814loPI   C6A13020   1.434   5.725   8.087 -0.2548  0.0151 -0.0024
  814loPI   C1B13021   1.050   4.985   6.185  0.1085 -0.0610 -0.0196
  814loPI   C2B13022   1.002   5.020   6.662 -0.0761  0.3117 -0.0744
  814loPI   C3B13023   1.020   5.053   7.084 -0.0264 -0.0715  0.3259
  814loPI   C4B13024   0.915   4.631   7.321  0.2044  0.0596  0.0076
  815loPI    C113025  11.789   7.710   5.162  0.1658 -0.0180 -0.0481
  815loPI    C213026  11.619   7.415   4.952  0.2225 -0.1011  0.0222
  815loPI    C313027  11.924   7.620   4.796  0.1033  0.0029 -0.0764
  815loPI   PO413028  11.782   7.608   5.442  0.0028  0.2119  0.2855
  815loPI   GL113029  11.739   7.422   5.777  0.0709 -0.2465  0.0206
  815loPI   GL213030  11.987   7.453   6.068  0.0889 -0.0506 -0.1290
  815loPI   C1A13031  11.475   7.616   6.038 -0.3135 -0.1063 -0.0744
  815loPI   C2A13032  11.502   7.686   6.517  0.2318  0.0788 -0.2854
  815loPI   C3A13033  11.342   7.658   6.953 -0.1415  0.0484 -0.2268
  815loPI   C4A13034  11.352   7.657   7.487 -0.2086  0.1131 -0.0625
  815loPI   C5A13035  11.250   7.666   7.862 -0.4057 -0.2247  0.1374
  815loPI   C6A13036  11.080   7.734   8.219  0.0706  0.0819  0.0280
  815loPI   C1B13037  12.027   7.507   6.542  0.0890  0.2864  0.1979
  815loPI   C2B13038  11.807   7.508   6.889 -0.0632  0.1059  0.1702
  815loPI   C3B13039  11.744   7.420   7.275 -0.1116 -0.0218  0.1034
  815loPI   C4B13040  11.726   7.417   7.774 -0.1589 -0.0439 -0.1971
  816loPI    C113041  16.516  14.782   5.208 -0.0940 -0.2187  0.0152
  816loPI    C213042  16.341  15.120   5.082 -0.1069 -0.2067  0.0654
  816loPI    C313043  16.730  15.119   5.175 -0.0202 -0.2921 -0.2850
  816loPI   PO413044  16.390  14.750   5.438 -0.4441  0.1877 -0.0082
  816loPI   GL113045  16.573  14.598   5.791 -0.0650  0.0208  0.1109
  816loPI   GL213046  16.751  14.514   5.969  0.0095  0.0905  0.0970
  816loPI   C1A13047  16.488  14.948   6.092  0.0534  0.1144  0.2154
  816loPI   C2A13048  16.537  14.999   6.529  0.0638 -0.0326 -0.0664
  816loPI   C3A13049  16.457  15.105   7.019 -0.2119 -0.0008  0.0647
  816loPI   C4A13050  16.479  15.029   7.459  0.1565  0.1630 -0.2538
  816loPI   C5A13051  16.517  15.147   7.917 -0.0203 -0.0220 -0.2092
  816loPI   C6A13052  16.840  15.216   8.211  0.0506 -0.1158  0.1891
  816loPI   C1B13053  16.706  14.578   6.413 -0.1353  0.0051  0.0937
  816loPI   C2B13054  16.800  14.645   6.836  0.2105  0.1957 -0.1093
  816loPI   C3B13055  16.731  14.676   7.257 -0.2189  0.1407  0.2289
  816loPI   C4B13056  16.860  14.795   7.695  0.1714 -0.0904 -0.1144
  817loPI    C113057  13.207  17.301   4.935  0.1871  0.0043  0.1176
  817loPI    C213058  13.165  17.070   4.610 -0.0791 -0.0533  0.1903
  817loPI    C313059  13.464  17.336   4.630  0.0782 -0.2128 -0.0016
  817loPI   PO413060  13.203  17.158   5.161  0.1260  0.0267 -0.0498
  817loPI   GL113061  13.096  16.981   5.547  0.3178  0.1737  0.0984
  817loPI   GL213062  12.880  16.870   5.758  0.1671 -0.0869  0.3660
  817loPI   C1A13063  13.420  16.985   5.943  0.1432  0.0389 -0.2282
  817loPI   C2A13064  13.386  16.954   6.368 -0.3026 -0.2021  0.0740
  817loPI   C3A13065  13.505  16.993   6.767 -0.0353 -0.0145  0.2295
  817loPI   C4A13066  13.442  16.971   7.197 -0.0713 -0.0367 -0.0644
  817loPI   C5A13067  13.501  16.989   7.691 -0.2803 -0.0319 -0.1771
  817loPI   C6A13068  13.142  17.101   7.999  0.1629  0.0640 -0.0299
  817loPI   C1B13069  12.893  16.905   6.237  0.1431 -0.0877 -0.1362
  817loPI   C2B13070  12.928  16.864   6.722  0.1089  0.0146 -0.1921
  817loPI   C3B13071  12.854  16.960   7.183  0.1215 -0.1516  0.0307
  817loPI   C4B13072  12.929  16.893   7.622 -0.1838  0.1163  0.2475
  818loPI    C113073  14.683   5.961   5.275  0.3408 -0.0115 -0.1986
  818loPI    C213074  14.592   5.783   4.928  0.0368  0.0752 -0.1667
  818loPI    C313075  14.639   6.180   4.943  0.3206  0.0433 -0.1599
  818loPI   PO413076  14.535   5.926   5.432  0.1116  0.0866  0.0228
  818loPI   GL113077  14.383   5.669   5.743 -0.1962  0.0828 -0.0519
  818loPI   GL213078  14.457   5.400   5.704  0.0242  0.1183 -0.1502
  818loPI   C1A13079  14.329   5.826   6.166 -0.0011 -0.0945  0.2958
  818loPI   C2A13080  14.475   5.798   6.576  0.2442  0.3155  0.0953
  818loPI   C3A13081  14.481   5.890   6.860 -0.0491 -0.2108  0.1962
  818loPI   C4A13082  14.418   5.828   7.302  0.2185 -0.1294 -0.1023
  818loPI   C5A13083  14.466   5.415   7.653 -0.0052  0.0896 -0.3404
  818loPI   C6A13084  14.476   5.332   8.092  0.0748  0.0329 -0.1814
  818loPI   C1B13085  14.728   5.426   6.135  0.0755  0.4019 -0.0140
  818loPI   C2B13086  14.760   5.306   6.534  0.3801  0.2452 -0.2863
  818loPI   C3B13087  14.814   5.468   6.911 -0.0588  0.2849  0.2899
  818loPI   C4B13088  14.919   5.428   7.316 -0.1403 -0.1026  0.0982
  819loPI    C113089   1.059  16.014   4.922  0.0519 -0.0846  0.0279
  819loPI    C213090   1.374  15.770   4.900 -0.0501 -0.1954 -0.2562
  819loPI    C313091   1.010  15.635   4.804 -0.1893 -0.0725  0.0833
  819loPI   PO413092   1.100  16.141   5.085 -0.0258  0.1444 -0.1744
  819loPI   GL113093   1.127  16.385   5.558 -0.3238 -0.1209  0.2283
  819loPI   GL213094   1.057  16.126   5.555 -0.4843  0.0730 -0.0600
  819loPI   C1A13095   1.332  16.626   5.901  0.0311 -0.0201  0.2758
  819loPI   C2A13096   1.236  17.062   6.198  0.0676 -0.2101 -0.1605
  819loPI   C3A13097   1.056  17.176   6.449  0.1032  0.1410 -0.0476
  819loPI   C4A13098   1.012  17.101   6.909 -0.1632 -0.1626  0.2037
  819loPI   C5A13099   1.415  17.229   7.180  0.0006 -0.3919 -0.1840
  819loPI   C6A13100   1.903  17.320   7.085  0.0572 -0.0495  0.1579
  819loPI   C1B13101   1.027  16.139   6.007 -0.1410 -0.0631 -0.1184
  819loPI   C2B13102   1.065  16.177   6.448 -0.0505  0.2672  0.0765
  819loPI   C3B13103   1.105  16.234   6.926  0.0643 -0.1064  0.0024
  819loPI   C4B13104   1.040  16.240   7.310  0.2391 -0.2405  0.0887
  820loPI    C113105   7.418   5.296   5.049  0.0280 -0.0633 -0.0062
  820loPI    C213106   7.301   5.169   4.688 -0.0136  0.1300 -0.0616
  820loPI    C313107   7.413   5.550   4.740  0.1117  0.0719  0.1023
  820loPI   PO413108   7.299   5.279   5.207  0.1708 -0.0021 -0.0114
  820loPI   GL113109   7.132   5.274   5.595  0.0398  0.0247 -0.4220
  820loPI   GL213110   7.284   5.162   5.953  0.0898  0.0259 -0.0086
  820loPI   C1A13111   6.768   5.477   5.888  0.1210 -0.0694  0.0101
  820loPI   C2A13112   6.494   5.508   6.356  0.0937  0.1549  0.1495
  820loPI   C3A13113   6.077   5.529   6.484  0.0232 -0.1476 -0.2586
  820loPI   C4A13114   6.088   5.575   6.860 -0.1622 -0.0548  0.1945
  820loPI   C5A13115   6.181   5.811   7.269 -0.1531  0.1623  0.1966
  820loPI   C6A13116   6.286   6.000   7.697  0.3003 -0.0102 -0.1010
  820loPI   C1B13117   7.428   5.171   6.386  0.1620  0.0076 -0.0329
  820loPI   C2B13118   7.488   5.261   6.860 -0.4026  0.2148  0.0096
  820loPI   C3B13119   7.360   5.312   7.211 -0.0468  0.1365 -0.0910
  820loPI   C4B13120   7.333   5.582   7.646 -0.3753  0.0881  0.0770
  821loPI    C113121  10.758   3.102   5.318  0.1263  0.0248 -0.0408
  821loPI    C213122  10.650   3.193   4.943  0.0381 -0.4289 -0.1308
  821loPI    C313123  10.980   2.976   5.010  0.0650 -0.3320  0.0571
  821loPI   PO413124  10.808   3.349   5.469 -0.1192 -0.0937 -0.2734
  821loPI   GL113125  10.719   3.322   5.871 -0.1968 -0.0283 -0.1018
  821loPI   GL213126  11.116   3.322   5.885 -0.0384  0.1185  0.1203
  821loPI   C1A13127  10.553   3.361   6.308  0.0181  0.0176 -0.1842
  821loPI   C2A13128  10.375   3.568   6.676 -0.0682  0.1541 -0.1419
  821loPI   C3A13129  10.344   3.696   7.100  0.0710  0.0114 -0.0652
  821loPI   C4A13130  10.177   3.793   7.542  0.1177  0.1759 -0.2189
  821loPI   C5A13131  10.012   3.360   7.872 -0.1575 -0.0951  0.0123
  821loPI   C6A13132   9.589   3.160   7.781  0.1327 -0.0790 -0.0658
  821loPI   C1B13133  11.062   3.411   6.263  0.0849 -0.2561  0.1974
  821loPI   C2B13134  10.969   3.465   6.738  0.0032 -0.0243 -0.1757
  821loPI   C3B13135  10.924   3.617   7.129 -0.0655  0.0183 -0.0259
  821loPI   C4B13136  11.149   3.869   7.336  0.1344  0.0057 -0.2110
  822loPI    C113137   0.821  13.354   4.963  0.1223 -0.0145  0.1709
  822loPI    C213138   0.927  13.036   5.181 -0.1770 -0.1227  0.1630
  822loPI    C313139   0.962  13.025   4.783  0.0042 -0.0687  0.1765
  822loPI   PO413140   0.650  13.456   5.084  0.3118 -0.0831 -0.1875
  822loPI   GL113141   0.813  13.599   5.444  0.3634 -0.2370 -0.1039
  822loPI   GL213142   0.983  13.411   5.549 -0.1713  0.0079  0.0642
  822loPI   C1A13143   0.603  13.627   5.759 -0.1337  0.1788  0.0159
  822loPI   C2A13144   0.319  13.447   6.149 -0.1463  0.3160 -0.1538
  822loPI   C3A13145   0.224  13.447   6.552 -0.3271 -0.2866 -0.0894
  822loPI   C4A13146   0.242  13.457   7.080  0.5654  0.2039  0.3028
  822loPI   C5A13147   0.379  13.489   7.508 -0.0199 -0.4302  0.1104
  822loPI   C6A13148   0.443  13.537   7.945 -0.1447  0.2906  0.1445
  822loPI   C1B13149   0.956  13.461   6.041  0.2049 -0.1244  0.3835
  822loPI   C2B13150   0.872  13.447   6.409  0.3182 -0.1895  0.1367
  822loPI   C3B13151   0.770  13.467   6.833  0.1208  0.2481  0.0352
  822loPI   C4B13152   0.809  13.548   7.265 -0.1701  0.2095 -0.1557
  823loPI    C113153  11.934  13.167   5.349  0.0355 -0.0371 -0.0042
  823loPI    C213154  12.056  13.483   5.136  0.0295 -0.0509 -0.0282
  823loPI    C313155  12.082  13.116   4.981  0.0167 -0.0600 -0.0087
  823loPI   PO413156  11.734  13.246   5.467  0.3172  0.3702 -0.1325
  823loPI   GL113157  11.505  13.182   5.792 -0.2731 -0.4146  0.1496
  823loPI   GL213158  11.216  13.134   5.887  0.0523  0.0721  0.0987
  823loPI   C1A13159  11.536  12.777   6.008  0.0160  0.0409  0.1965
  823loPI   C2A13160  11.455  12.682   6.403  0.2720 -0.1006  0.1406
  823loPI   C3A13161  11.354  12.726   6.911 -0.1581 -0.2570  0.0155
  823loPI   C4A13162  11.419  12.857   7.303  0.0727  0.2750  0.0444
  823loPI   C5A13163  11.778  12.796   7.581  0.2791  0.1326 -0.2336
  823loPI   C6A13164  12.137  12.696   7.860  0.1009  0.1019  0.0318
  823loPI   C1B13165  11.553  13.181   6.310  0.2745 -0.0666 -0.3239
  823loPI   C2B13166  11.424  13.202   6.749  0.0210  0.1710  0.1770
  823loPI   C3B13167  11.485  13.359   7.098  0.1536  0.0210 -0.1285
  823loPI   C4B13168  11.538  13.574   7.476 -0.2545  0.2819  0.0392
  824loPI    C113169   6.052   9.982   5.404 -0.1338  0.0724  0.0115
  824loPI    C213170   5.979  10.032   5.014  0.3514  0.2375 -0.0649
  824loPI    C313171   6.285   9.803   5.132  0.0689  0.0012  0.2283
  824loPI   PO413172   6.049  10.231   5.513  0.0235  0.1755 -0.0306
  824loPI   GL113173   6.000  10.437   5.864 -0.0348 -0.1926 -0.2363
  824loPI   GL213174   5.777  10.121   5.872 -0.0097 -0.2187  0.0925
  824loPI   C1A13175   5.973  10.599   6.271  0.1331  0.0218  0.0993
  824loPI   C2A13176   5.879  10.533   6.690 -0.0446  0.1446 -0.0137
  824loPI   C3A13177   5.787  10.483   7.026  0.0266  0.2271 -0.1554
  824loPI   C4A13178   5.902  10.571   7.409 -0.0787  0.0508 -0.0482
  824loPI   C5A13179   6.353  10.696   7.648  0.1084  0.0405  0.1924
  824loPI   C6A13180   6.429  10.588   8.167  0.0374 -0.1964  0.1061
  824loPI   C1B13181   5.737  10.124   6.321 -0.0972 -0.2829  0.0149
  824loPI   C2B13182   5.560  10.008   6.726 -0.1413 -0.1106 -0.2425
  824loPI   C3B13183   5.444  10.076   7.166  0.1224  0.1696  0.2091
  824loPI   C4B13184   5.639  10.046   7.589  0.1510 -0.0346 -0.0092
  825loPI    C113185   7.699  16.607   5.095  0.2349  0.0640 -0.1334
  825loPI    C213186   7.664  16.226   5.211  0.2527  0.1549  0.1826
  825loPI    C313187   7.748  16.313   4.829 -0.2510 -0.1415 -0.0061
  825loPI   PO413188   7.457  16.708   5.097 -0.1272 -0.1252  0.4691
  825loPI   GL113189   7.352  16.894   5.400  0.0369 -0.1189 -0.3144
  825loPI   GL213190   7.496  17.011   5.585 -0.0358  0.1168  0.0967
  825loPI   C1A13191   7.240  16.658   5.806  0.1383  0.0639  0.1053
  825loPI   C2A13192   7.285  16.616   6.212 -0.0409  0.2929  0.1713
  825loPI   C3A13193   7.268  16.681   6.642  0.1215 -0.0467 -0.0368
  825loPI   C4A13194   7.175  16.740   7.118 -0.0048 -0.1517  0.1199
  825loPI   C5A13195   7.095  16.686   7.540 -0.2103 -0.0052  0.1104
  825loPI   C6A13196   6.951  16.525   8.009 -0.0531  0.0311  0.2650
  825loPI   C1B13197   7.507  17.075   5.979  0.2468 -0.2606 -0.2120
  825loPI   C2B13198   7.428  17.132   6.447  0.1379  0.1164  0.4304
  825loPI   C3B13199   7.367  17.209   6.823  0.1746  0.0004 -0.3544
  825loPI   C4B13200   7.293  17.204   7.273 -0.0142 -0.1275  0.1522
  826loPI    C113201   6.067   3.502   5.179 -0.3958 -0.2219 -0.2201
  826loPI    C213202   6.032   3.899   5.156 -0.1193 -0.1778  0.0633
  826loPI    C313203   6.120   3.687   4.829  0.1330  0.0380 -0.0123
  826loPI   PO413204   5.862   3.374   5.326 -0.2489 -0.0208 -0.2482
  826loPI   GL113205   5.591   3.088   5.576 -0.1508  0.1565 -0.1072
  826loPI   GL213206   5.829   2.859   5.555 -0.0433 -0.0381  0.2360
  826loPI   C1A13207   5.550   3.074   6.059 -0.1165 -0.0329 -0.0307
  826loPI   C2A13208   5.564   3.201   6.420 -0.2403  0.2032  0.0790
  826loPI   C3A13209   5.503   3.286   6.950  0.4421 -0.2601 -0.1533
  826loPI   C4A13210   5.588   3.261   7.425 -0.1077 -0.0579  0.2489
  826loPI   C5A13211   5.856   2.993   7.685 -0.0502 -0.0826  0.0248
  826loPI   C6A13212   5.972   2.632   7.913 -0.0253  0.2167  0.2290
  826loPI   C1B13213   5.865   2.711   5.984  0.1999  0.0886 -0.2839
  826loPI   C2B13214   5.836   2.769   6.410 -0.1350  0.1130  0.2680
  826loPI   C3B13215   5.850   2.797   6.807 -0.0210  0.2654  0.2100
  826loPI   C4B13216   5.812   2.949   7.136 -0.1558 -0.2525  0.0053
  827loPI    C113217  15.986  14.548   5.237  0.0241 -0.0670  0.1381
  827loPI    C213218  16.272  14.417   4.990  0.0233 -0.1676  0.1900
  827loPI    C313219  16.192  14.217   5.327 -0.1238 -0.1528  0.1642
  827loPI   PO413220  15.888  14.799   5.252 -0.1485 -0.0929  0.0124
  827loPI   GL113221  15.638  14.958   5.569 -0.0036 -0.1182 -0.0641
  827loPI   GL213222  15.989  14.934   5.731 -0.1924 -0.1377 -0.1650
  827loPI   C1A13223  15.485  14.971   5.897  0.1002 -0.1773  0.0423
  827loPI   C2A13224  15.459  14.893   6.312  0.1624  0.1037  0.1607
  827loPI   C3A13225  15.496  14.932   6.738 -0.1535 -0.0867  0.0693
  827loPI   C4A13226  15.457  15.012   7.187 -0.2456 -0.0935 -0.2093
  827loPI   C5A13227  15.409  15.038   7.656 -0.0946  0.1641 -0.1349
  827loPI   C6A13228  15.187  15.387   7.903 -0.2914  0.1148 -0.1412
  827loPI   C1B13229  16.011  15.013   6.108 -0.0803 -0.1866 -0.4598
  827loPI   C2B13230  16.016  14.893   6.522 -0.0591 -0.3742  0.0366
  827loPI   C3B13231  15.981  15.002   6.914  0.3790 -0.0462 -0.1462
  827loPI   C4B13232  16.024  15.029   7.363  0.2402  0.2939  0.1033
  828loPI    C113233  10.946  14.211   5.010  0.0469  0.0932 -0.0107
  828loPI    C213234  10.807  14.506   4.779 -0.0018  0.0634 -0.0197
  828loPI    C313235  10.919  14.160   4.614  0.0265  0.0659 -0.0059
  828loPI   PO413236  10.962  14.346   5.223  0.1304  0.2780 -0.2433
  828loPI   GL113237  11.156  14.355   5.624 -0.0200  0.1455 -0.1004
  828loPI   GL213238  11.362  14.573   5.587  0.0128 -0.1472 -0.0751
  828loPI   C1A13239  10.824  14.586   5.793  0.5161  0.0349  0.0083
  828loPI   C2A13240  10.793  14.612   6.255 -0.1872  0.1094 -0.0056
  828loPI   C3A13241  10.638  14.587   6.677 -0.1798 -0.3370  0.2131
  828loPI   C4A13242  10.476  14.556   7.106 -0.1845  0.1231  0.0116
  828loPI   C5A13243  10.619  14.591   7.519  0.0251  0.0067  0.0049
  828loPI   C6A13244  10.858  14.345   7.833 -0.0530 -0.0296  0.1488
  828loPI   C1B13245  11.306  14.628   6.065  0.2973  0.1343  0.1390
  828loPI   C2B13246  11.276  14.544   6.472  0.2557  0.0954  0.2313
  828loPI   C3B13247  11.126  14.450   6.881 -0.0917 -0.1202  0.0036
  828loPI   C4B13248  10.991  14.556   7.232  0.0672  0.0210  0.2126
  829loPI    C113249   9.020  16.052   5.209  0.1791 -0.0544 -0.2831
  829loPI    C213250   9.006  15.734   5.452 -0.0989  0.2850  0.1603
  829loPI    C313251   9.022  15.682   5.055  0.1167 -0.2778  0.2334
  829loPI   PO413252   9.167  16.187   5.281 -0.2158 -0.4473  0.2354
  829loPI   GL113253   9.412  16.357   5.582  0.1154 -0.2385 -0.0815
  829loPI   GL213254   9.137  16.573   5.600  0.0318 -0.3579 -0.1540
  829loPI   C1A13255   9.205  16.246   5.980 -0.2483 -0.4295 -0.0098
  829loPI   C2A13256   9.136  16.234   6.516  0.0055  0.2806  0.0669
  829loPI   C3A13257   9.077  16.308   6.946  0.0127  0.0073  0.1180
  829loPI   C4A13258   8.995  16.434   7.409  0.0784  0.1328  0.3295
  829loPI   C5A13259   8.765  16.488   7.700  0.1387  0.2653  0.0633
  829loPI   C6A13260   8.333  16.432   7.859  0.2566 -0.1082  0.2856
  829loPI   C1B13261   8.900  16.628   5.989 -0.3567 -0.2871 -0.1810
  829loPI   C2B13262   8.894  16.664   6.383 -0.0326  0.0433 -0.0308
  829loPI   C3B13263   8.853  16.783   6.819  0.1712 -0.0574  0.0209
  829loPI   C4B13264   8.769  16.930   7.272 -0.0027 -0.0593  0.0411
  830loPI    C113265   8.057   9.204   4.931 -0.1756 -0.0540 -0.0630
  830loPI    C213266   8.363   9.329   4.705 -0.0304 -0.1375  0.0844
  830loPI    C313267   8.012   9.237   4.535 -0.0709  0.2478 -0.0525
  830loPI   PO413268   8.290   9.146   5.224  0.2679  0.2562 -0.3353
  830loPI   GL113269   8.254   8.961   5.637 -0.1443 -0.1457  0.0051
  830loPI   GL213270   8.213   9.117   5.890  0.2674  0.0847 -0.0106
  830loPI   C1A13271   8.476   8.573   5.688 -0.0807 -0.1043  0.0627
  830loPI   C2A13272   8.751   8.418   5.871  0.1676  0.0005 -0.0232
  830loPI   C3A13273   8.651   8.288   6.280  0.0177 -0.0165  0.0643
  830loPI   C4A13274   8.644   8.142   6.694  0.2998  0.0926 -0.5256
  830loPI   C5A13275   8.626   8.212   7.110 -0.3362 -0.2137  0.0424
  830loPI   C6A13276   8.673   7.938   7.479  0.0734  0.0526 -0.0174
  830loPI   C1B13277   8.148   8.721   6.107 -0.3156 -0.4248  0.0523
  830loPI   C2B13278   8.240   8.428   6.496 -0.2216  0.0274 -0.0589
  830loPI   C3B13279   8.217   8.286   6.910  0.0653  0.0166  0.2472
  830loPI   C4B13280   7.809   8.032   6.919  0.0211  0.1696 -0.2322
  831loPI    C113281   1.357   9.767   5.060  0.1369  0.0265  0.0178
  831loPI    C213282   1.039   9.668   4.838  0.0576  0.0241  0.1317
  831loPI    C313283   1.243  10.003   4.758  0.0563  0.0001  0.0274
  831loPI   PO413284   1.322   9.772   5.285  0.1802 -0.1971 -0.3816
  831loPI   GL113285   1.119   9.653   5.683 -0.0178  0.0659 -0.0721
  831loPI   GL213286   0.960  10.003   5.641  0.0934  0.2941 -0.0273
  831loPI   C1A13287   1.383   9.571   6.050  0.2881  0.0254 -0.0556
  831loPI   C2A13288   1.401   9.412   6.480 -0.0015  0.1116  0.1131
  831loPI   C3A13289   1.455   9.446   6.978  0.1213  0.1699 -0.0702
  831loPI   C4A13290   1.511   9.506   7.477  0.1769  0.0269 -0.1298
  831loPI   C5A13291   1.326   9.837   7.870 -0.2286 -0.0708  0.0136
  831loPI   C6A13292   1.253   9.707   8.274 -0.1469  0.0858  0.0800
  831loPI   C1B13293   1.116  10.004   6.040 -0.0956 -0.0461 -0.2234
  831loPI   C2B13294   1.196   9.867   6.431 -0.1815 -0.1680 -0.0242
  831loPI   C3B13295   1.162  10.015   6.836  0.2550  0.0556 -0.2699
  831loPI   C4B13296   1.170   9.875   7.220 -0.0908  0.1843  0.1501
  832loPI    C113297   5.568  13.852   5.019  0.0176 -0.0918 -0.0463
  832loPI    C213298   5.853  14.125   5.089 -0.1105  0.0765 -0.1710
  832loPI    C313299   5.801  13.980   4.720 -0.0446 -0.1173 -0.1059
  832loPI   PO413300   5.622  13.687   5.227 -0.0331 -0.1924 -0.0344
  832loPI   GL113301   5.572  13.919   5.603  0.0043 -0.2741 -0.2408
  832loPI   GL213302   5.542  13.730   5.749 -0.4153  0.0436 -0.0941
  832loPI   C1A13303   5.622  14.269   5.897  0.3426 -0.1307  0.1358
  832loPI   C2A13304   5.618  14.351   6.289  0.0670  0.2447 -0.0945
  832loPI   C3A13305   5.636  14.369   6.761 -0.0927 -0.1053 -0.0662
  832loPI   C4A13306   5.421  14.396   7.118  0.0437 -0.4154 -0.2778
  832loPI   C5A13307   5.150  14.010   7.425 -0.0138 -0.0990 -0.1097
  832loPI   C6A13308   4.688  13.915   7.503  0.0806  0.0497  0.1650
  832loPI   C1B13309   5.498  13.844   6.118  0.1811  0.0022 -0.1773
  832loPI   C2B13310   5.712  13.877   6.478 -0.1241 -0.1165 -0.0321
  832loPI   C3B13311   5.944  13.969   6.902  0.0251  0.0955 -0.1175
  832loPI   C4B13312   6.317  14.019   7.001  0.0816  0.0386  0.0651
  833loPI    C113313  16.817  15.885   5.415 -0.0666 -0.0645 -0.1250
  833loPI    C213314  17.159  15.764   5.247  0.0584 -0.0327  0.1030
  833loPI    C313315  16.945  15.510   5.470  0.1898  0.0870  0.3705
  833loPI   PO413316  16.634  16.079   5.261 -0.0336 -0.2024 -0.1618
  833loPI   GL113317  16.441  16.314   5.621  0.1264 -0.1858  0.1045
  833loPI   GL213318  16.383  15.939   5.667  0.3859 -0.2041  0.0412
  833loPI   C1A13319  16.728  16.304   6.040  0.2622 -0.2225 -0.0786
  833loPI   C2A13320  16.630  16.357   6.431 -0.1198  0.1155 -0.2396
  833loPI   C3A13321  16.614  16.483   6.884  0.1107  0.0513 -0.2393
  833loPI   C4A13322  16.575  16.376   7.296  0.1771  0.1173  0.0333
  833loPI   C5A13323  16.547  16.390   7.718 -0.3035 -0.0120 -0.1104
  833loPI   C6A13324  16.473  16.607   8.047 -0.0471  0.0535 -0.1839
  833loPI   C1B13325  16.403  15.884   6.187 -0.1103  0.3904  0.1514
  833loPI   C2B13326  16.375  15.983   6.675 -0.2429  0.1454  0.3849
  833loPI   C3B13327  16.390  15.898   7.101 -0.0792 -0.0927  0.0714
  833loPI   C4B13328  16.369  15.972   7.504  0.2163 -0.2586 -0.1903
  834loPI    C113329   4.667  12.233   5.073 -0.1604  0.0842 -0.0442
  834loPI    C213330   4.359  12.417   4.896 -0.1612  0.0067 -0.1247
  834loPI    C313331   4.684  12.322   4.683 -0.1616 -0.0865 -0.0844
  834loPI   PO413332   4.593  12.388   5.306  0.0416 -0.1443 -0.0976
  834loPI   GL113333   4.557  12.371   5.756 -0.1100  0.2124  0.1003
  834loPI   GL213334   4.215  12.411   5.784  0.0631  0.0953 -0.0607
  834loPI   C1A13335   4.693  12.198   6.163 -0.0125  0.0427  0.0425
  834loPI   C2A13336   4.529  11.962   6.641 -0.2561  0.0935 -0.1623
  834loPI   C3A13337   4.495  12.014   7.055 -0.0092 -0.0461  0.1708
  834loPI   C4A13338   4.403  12.130   7.496 -0.2311  0.5085  0.1054
  834loPI   C5A13339   4.650  12.390   7.700  0.0384 -0.2266 -0.0332
  834loPI   C6A13340   4.793  12.588   8.121 -0.1385 -0.0287  0.1716
  834loPI   C1B13341   4.294  12.503   6.238 -0.0756  0.2227  0.1224
  834loPI   C2B13342   4.337  12.373   6.660 -0.1045 -0.1108  0.3592
  834loPI   C3B13343   4.107  12.561   6.945  0.1157  0.1285 -0.0835
  834loPI   C4B13344   3.852  12.967   7.087 -0.2894 -0.1167 -0.1138
  835loPI    C113345   6.953  12.384   5.449 -0.0348  0.0071 -0.0034
  835loPI    C213346   6.736  12.106   5.261 -0.0663  0.1582 -0.1928
  835loPI    C313347   6.904  12.404   5.053  0.0759  0.2086 -0.0084
  835loPI   PO413348   6.790  12.450   5.705 -0.3187  0.0427  0.1553
  835loPI   GL113349   6.764  12.649   6.120  0.0335 -0.1071 -0.0180
  835loPI   GL213350   7.010  12.711   6.340 -0.2062 -0.2230  0.1806
  835loPI   C1A13351   6.391  12.417   6.438  0.2668 -0.2663 -0.1836
  835loPI   C2A13352   6.431  12.268   6.802  0.3078  0.0564  0.0744
  835loPI   C3A13353   6.674  12.377   7.139 -0.1118 -0.1668  0.1740
  835loPI   C4A13354   6.752  12.196   7.548  0.1497  0.3247 -0.0446
  835loPI   C5A13355   6.735  11.993   7.942  0.0228 -0.0838 -0.1705
  835loPI   C6A13356   6.567  11.717   8.249 -0.0071  0.0440 -0.0092
  835loPI   C1B13357   6.661  12.836   6.594 -0.2383  0.2770 -0.0221
  835loPI   C2B13358   6.304  13.093   6.834  0.0093 -0.1083 -0.0946
  835loPI   C3B13359   5.900  13.105   6.884  0.0162  0.1266  0.1915
  835loPI   C4B13360   5.674  13.194   7.259 -0.1717  0.0018  0.1750
  836loPI    C113361  13.970  15.116   5.421  0.0992  0.1232  0.2547
  836loPI    C213362  13.773  15.066   5.076  0.3102 -0.2317  0.1814
  836loPI    C313363  14.123  15.260   5.081  0.2182 -0.0658  0.2267
  836loPI   PO413364  13.688  15.217   5.548  0.0655 -0.2225 -0.2490
  836loPI   GL113365  13.597  15.231   5.991 -0.1233 -0.1421 -0.4605
  836loPI   GL213366  13.454  15.071   6.167 -0.0471  0.1611 -0.0399
  836loPI   C1A13367  13.689  15.612   6.296 -0.0300 -0.1344  0.0972
  836loPI   C2A13368  13.795  15.680   6.638  0.1971 -0.1264 -0.2306
  836loPI   C3A13369  13.833  15.664   7.100 -0.0876 -0.0058  0.2905
  836loPI   C4A13370  13.825  15.635   7.510  0.0591 -0.1623  0.2867
  836loPI   C5A13371  13.874  15.238   7.873 -0.3480  0.2282 -0.1379
  836loPI   C6A13372  13.771  15.040   8.232 -0.0023 -0.2662  0.3247
  836loPI   C1B13373  13.604  15.196   6.520 -0.1348 -0.0537  0.0677
  836loPI   C2B13374  13.548  15.200   6.898 -0.3467 -0.0718 -0.1753
  836loPI   C3B13375  13.594  15.246   7.311  0.2167  0.1513  0.4195
  836loPI   C4B13376  13.373  15.047   7.750  0.0056  0.1357  0.0821
  837loPI    C113377  15.361  16.800   5.023  0.0427  0.2471  0.0647
  837loPI    C213378  15.408  16.524   4.737  0.2742  0.2116  0.1347
  837loPI    C313379  15.098  16.777   4.722  0.0568 -0.0535  0.0726
  837loPI   PO413380  15.326  16.672   5.229  0.0480  0.3322 -0.1967
  837loPI   GL113381  15.191  16.813   5.567  0.1559  0.0521  0.1728
  837loPI   GL213382  15.216  16.447   5.646 -0.1050  0.2836  0.1258
  837loPI   C1A13383  14.865  16.690   5.938  0.0709 -0.1784 -0.0448
  837loPI   C2A13384  14.797  16.577   6.398  0.1139  0.1025  0.0913
  837loPI   C3A13385  14.789  16.659   6.832  0.0015  0.0754 -0.0661
  837loPI   C4A13386  14.835  16.724   7.282 -0.2290  0.1726 -0.0843
  837loPI   C5A13387  14.914  16.672   7.723  0.0076 -0.0290 -0.0315
  837loPI   C6A13388  14.965  16.809   8.114 -0.3653 -0.2004  0.2105
  837loPI   C1B13389  15.406  16.590   5.974  0.1109 -0.0499 -0.0257
  837loPI   C2B13390  15.279  16.771   6.353  0.1030  0.1679  0.1252
  837loPI   C3B13391  15.255  16.757   6.819 -0.1781 -0.2243  0.2057
  837loPI   C4B13392  15.308  16.717   7.212 -0.4533 -0.1094 -0.1048
  838loPI    C113393  11.135  17.813   5.111 -0.0815  0.0415  0.1863
  838loPI    C213394  11.443  17.627   4.935 -0.2555 -0.1240  0.0515
  838loPI    C313395  11.354  18.004   4.836  0.1043  0.0406  0.3317
  838loPI   PO413396  11.180  17.742   5.371  0.0490  0.0587  0.1603
  838loPI   GL113397  11.021  17.694   5.902  0.1049  0.1638 -0.0999
  838loPI   GL213398  10.957  17.418   5.702 -0.1793 -0.0775 -0.0072
  838loPI   C1A13399  10.808  17.900   6.261  0.0054 -0.2396 -0.0690
  838loPI   C2A13400  10.857  17.746   6.674  0.2282 -0.1524  0.1300
  838loPI   C3A13401  10.745  17.765   7.102  0.0815  0.0135 -0.4762
  838loPI   C4A13402  10.928  17.907   7.504  0.0448 -0.1165  0.1988
  838loPI   C5A13403  10.912  17.852   7.952 -0.0135  0.0038  0.2098
  838loPI   C6A13404  10.955  17.401   8.070 -0.1412 -0.2194  0.1834
  838loPI   C1B13405  10.768  17.272   6.112 -0.1596 -0.0902 -0.2695
  838loPI   C2B13406  10.759  17.278   6.609  0.3143  0.0894  0.1087
  838loPI   C3B13407  10.564  17.321   6.940  0.3186  0.1048  0.0566
  838loPI   C4B13408  10.384  17.288   7.278 -0.0346 -0.3787 -0.0274
  839loPI    C113409   1.670  12.399   5.141 -0.0754  0.0930  0.0548
  839loPI    C213410   1.826  12.565   4.813 -0.1133 -0.0137 -0.0176
  839loPI    C313411   1.555  12.273   4.780 -0.1753  0.0291  0.1085
  839loPI   PO413412   1.826  12.292   5.350 -0.2379 -0.0945 -0.1878
  839loPI   GL113413   1.994  12.406   5.645 -0.2182  0.0285 -0.0151
  839loPI   GL213414   2.059  12.656   5.788  0.0470  0.1998 -0.0941
  839loPI   C1A13415   2.148  12.186   6.044 -0.3175  0.1269  0.0603
  839loPI   C2A13416   2.106  12.343   6.466  0.0763 -0.1627  0.0656
  839loPI   C3A13417   2.206  12.287   6.866  0.0267  0.0676 -0.0983
  839loPI   C4A13418   2.142  12.416   7.289 -0.0617  0.1359  0.1075
  839loPI   C5A13419   2.125  12.255   7.684 -0.0649 -0.2416  0.0099
  839loPI   C6A13420   2.146  11.878   7.894 -0.1060  0.1289  0.3167
  839loPI   C1B13421   1.925  12.718   6.238 -0.1490 -0.0757 -0.2767
  839loPI   C2B13422   1.895  12.751   6.726  0.3833  0.0896  0.5057
  839loPI   C3B13423   1.839  12.755   7.037 -0.0208 -0.3286 -0.1303
  839loPI   C4B13424   1.896  12.780   7.541 -0.2081 -0.0020 -0.1152
  840loPI    C113425  12.267  10.500   5.351  0.0628  0.1714  0.2366
  840loPI    C213426  12.394  10.497   4.972 -0.0405 -0.1023  0.2020
  840loPI    C313427  12.384  10.841   5.177  0.2160  0.0133  0.0259
  840loPI   PO413428  12.347  10.249   5.457 -0.2070 -0.0006 -0.2826
  840loPI   GL113429  12.316  10.046   5.793 -0.1187 -0.1983  0.2577
  840loPI   GL213430  12.482  10.274   6.088  0.0730 -0.1122  0.0149
  840loPI   C1A13431  12.080  10.023   6.176 -0.2120  0.1476  0.0638
  840loPI   C2A13432  11.994   9.889   6.562 -0.0960  0.0823  0.1251
  840loPI   C3A13433  11.760   9.846   6.929 -0.1865 -0.0863  0.0795
  840loPI   C4A13434  11.642   9.926   7.335 -0.1358  0.2577  0.2012
  840loPI   C5A13435  11.764   9.771   7.750  0.0460 -0.0689  0.0244
  840loPI   C6A13436  12.068   9.614   8.084 -0.0676 -0.0523 -0.3864
  840loPI   C1B13437  12.369  10.187   6.563  0.2181 -0.0154 -0.0168
  840loPI   C2B13438  12.217  10.128   6.958 -0.1913  0.2935 -0.0981
  840loPI   C3B13439  12.154   9.866   7.339 -0.3929 -0.0761  0.1476
  840loPI   C4B13440  12.306   9.506   7.505  0.1948 -0.0649  0.0467
  841loPI    C113441  11.941  14.776   5.575  0.2407 -0.0055 -0.0999
  841loPI    C213442  12.110  14.708   5.219  0.1536 -0.1351 -0.1174
  841loPI    C313443  11.784  14.503   5.327  0.1261 -0.0307 -0.0007
  841loPI   PO413444  12.126  14.765   5.774 -0.2230  0.1603  0.4082
  841loPI   GL113445  12.173  14.628   6.095 -0.2197  0.1460 -0.0024
  841loPI   GL213446  12.357  14.346   6.037  0.0691 -0.1926  0.1919
  841loPI   C1A13447  12.270  14.586   6.572  0.1290 -0.0266 -0.0758
  841loPI   C2A13448  12.206  14.599   6.999  0.1096  0.0754 -0.1199
  841loPI   C3A13449  11.955  14.469   7.352  0.1626  0.3452 -0.0757
  841loPI   C4A13450  11.773  14.581   7.736 -0.1418 -0.0012  0.3102
  841loPI   C5A13451  11.636  14.967   7.878 -0.1615 -0.0656 -0.2151
  841loPI   C6A13452  11.276  15.269   7.805 -0.1854  0.0889  0.3984
  841loPI   C1B13453  12.360  14.108   6.406 -0.0307  0.1331 -0.0895
  841loPI   C2B13454  12.828  14.029   6.610  0.0391  0.2187 -0.1006
  841loPI   C3B13455  13.040  14.156   6.894 -0.0875 -0.1448  0.1108
  841loPI   C4B13456  13.039  14.333   7.264 -0.0285 -0.1135 -0.0349
  842loPI    C113457   2.616  17.356   4.794 -0.0402 -0.0902  0.1402
  842loPI    C213458   2.373  17.543   5.050 -0.1726 -0.0930  0.0172
  842loPI    C313459   2.249  17.213   4.861 -0.1776  0.0626 -0.2579
  842loPI   PO413460   2.850  17.372   4.944  0.1953  0.0380 -0.1521
  842loPI   GL113461   2.924  17.405   5.350  0.0032 -0.0005  0.0650
  842loPI   GL213462   2.799  17.645   5.455  0.1339 -0.0678 -0.1596
  842loPI   C1A13463   3.017  17.276   5.807  0.1365  0.2952 -0.0810
  842loPI   C2A13464   3.113  17.272   6.190 -0.1506 -0.1316 -0.0561
  842loPI   C3A13465   3.044  17.315   6.662 -0.0580 -0.1783 -0.1476
  842loPI   C4A13466   3.171  17.308   7.073 -0.0685  0.0016  0.0027
  842loPI   C5A13467   3.195  17.059   7.466 -0.2963 -0.2814 -0.1706
  842loPI   C6A13468   3.240  16.817   7.913 -0.1152 -0.0697 -0.2339
  842loPI   C1B13469   2.839  17.752   5.881  0.0351 -0.2292  0.1402
  842loPI   C2B13470   2.703  17.672   6.399  0.0677  0.0205  0.1201
  842loPI   C3B13471   2.765  17.683   6.932 -0.3433 -0.0657 -0.2364
  842loPI   C4B13472   3.060  17.696   7.344 -0.0275 -0.1335 -0.0817
  843loPI    C113473   8.650  12.296   5.200  0.0075 -0.0021  0.0318
  843loPI    C213474   8.327  12.533   5.204 -0.0913 -0.1333 -0.0793
  843loPI    C313475   8.469  12.394   4.856  0.0258 -0.1564 -0.0226
  843loPI   PO413476   8.694  12.393   5.512  0.0976 -0.2579 -0.3438
  843loPI   GL113477   8.447  12.160   5.922  0.1617  0.2007  0.1367
  843loPI   GL213478   8.542  12.401   6.090  0.1345 -0.1879 -0.1892
  843loPI   C1A13479   8.571  11.999   6.405 -0.3443 -0.1350  0.1495
  843loPI   C2A13480   8.804  12.142   6.766  0.0192 -0.0499  0.1867
  843loPI   C3A13481   8.949  12.261   7.162 -0.0711  0.3203  0.1157
  843loPI   C4A13482   9.121  12.474   7.463  0.2732  0.0757  0.0214
  843loPI   C5A13483   9.168  12.607   7.885  0.3948 -0.1059 -0.2034
  843loPI   C6A13484   9.397  12.584   8.226  0.0663  0.0910 -0.1693
  843loPI   C1B13485   8.426  12.516   6.420 -0.2435 -0.1968 -0.0699
  843loPI   C2B13486   8.649  12.730   6.761 -0.2406  0.0071 -0.3830
  843loPI   C3B13487   8.616  12.766   7.275 -0.2597  0.1651  0.0105
  843loPI   C4B13488   8.636  12.819   7.704  0.1699  0.0343  0.0527
  844loPI    C113489   6.336   1.006   5.110  0.0483 -0.1639  0.2553
  844loPI    C213490   6.058   1.209   5.314 -0.1023 -0.2149  0.1028
  844loPI    C313491   5.986   1.093   4.938  0.1534 -0.1663  0.0366
  844loPI   PO413492   6.548   1.189   5.169 -0.1071  0.3291  0.1695
  844loPI   GL113493   6.789   1.059   5.508  0.1366  0.0702  0.1467
  844loPI   GL213494   6.456   1.016   5.689 -0.3338  0.0086  0.0686
  844loPI   C1A13495   6.761   1.457   5.852  0.1093 -0.1043 -0.3158
  844loPI   C2A13496   6.721   1.423   6.287 -0.1744  0.3368  0.3638
  844loPI   C3A13497   6.770   1.624   6.683  0.0232 -0.0429  0.1635
  844loPI   C4A13498   6.795   1.619   7.063  0.0830 -0.3958 -0.2330
  844loPI   C5A13499   6.702   1.355   7.408  0.0225 -0.2496  0.0263
  844loPI   C6A13500   6.776   0.988   7.697  0.0220  0.0613 -0.1738
  844loPI   C1B13501   6.532   0.966   6.099 -0.5103  0.0997  0.0205
  844loPI   C2B13502   6.478   1.050   6.584  0.1762  0.0384 -0.3074
  844loPI   C3B13503   6.564   1.074   6.945 -0.0177  0.2223 -0.2669
  844loPI   C4B13504   6.419   0.944   7.346 -0.2204 -0.2484 -0.1235
  845loPI    C113505   7.689  12.699   5.630 -0.1367 -0.0572 -0.1263
  845loPI    C213506   7.891  12.844   5.317  0.0217 -0.0914 -0.0408
  845loPI    C313507   7.549  12.645   5.259  0.0985 -0.1792 -0.1991
  845loPI   PO413508   7.799  12.765   5.801  0.2269 -0.1330  0.1023
  845loPI   GL113509   7.541  12.748   6.165 -0.1337 -0.3183 -0.0329
  845loPI   GL213510   7.657  13.015   6.214  0.1188 -0.3424 -0.1108
  845loPI   C1A13511   7.453  12.530   6.574  0.0876 -0.0487  0.2826
  845loPI   C2A13512   7.588  12.371   6.898  0.0334 -0.2065 -0.1565
  845loPI   C3A13513   7.870  12.248   7.105 -0.2119 -0.0844  0.3017
  845loPI   C4A13514   8.139  12.177   7.568 -0.0866 -0.0440  0.1464
  845loPI   C5A13515   8.302  12.407   7.942 -0.2462  0.0361 -0.2145
  845loPI   C6A13516   8.375  12.601   8.373 -0.3697  0.1961  0.1684
  845loPI   C1B13517   7.634  13.016   6.611  0.0182  0.0289 -0.3288
  845loPI   C2B13518   7.818  12.959   7.024  0.4060 -0.0511 -0.2012
  845loPI   C3B13519   7.422  12.762   7.178 -0.0511  0.1541 -0.0661
  845loPI   C4B13520   7.176  12.328   7.202  0.3098  0.1453 -0.2280
  846loPI    C113521  12.747  18.130   5.200  0.0914 -0.1269 -0.1616
  846loPI    C213522  13.010  18.308   4.958  0.1511 -0.0540 -0.0438
  846loPI    C313523  12.627  18.423   4.956  0.0910 -0.2481 -0.3087
  846loPI   PO413524  12.912  18.092   5.431 -0.1871  0.0411  0.1393
  846loPI   GL113525  12.859  18.109   5.810  0.2214  0.2027 -0.2055
  846loPI   GL213526  12.519  18.157   5.974  0.0284 -0.1808 -0.2276
  846loPI   C1A13527  12.967  18.119   6.224  0.0145  0.0749  0.1179
  846loPI   C2A13528  13.064  18.248   6.578  0.4157  0.2753 -0.3437
  846loPI   C3A13529  13.040  18.203   7.028  0.1687 -0.0943  0.2383
  846loPI   C4A13530  13.077  18.165   7.408 -0.1448  0.3068  0.0351
  846loPI   C5A13531  13.169  18.431   7.816  0.0347 -0.0854  0.2672
  846loPI   C6A13532  13.586  18.426   8.025  0.1769 -0.0988 -0.0334
  846loPI   C1B13533  12.457  18.007   6.407 -0.1098  0.0002  0.0578
  846loPI   C2B13534  12.234  17.842   6.758  0.1163 -0.1276  0.0251
  846loPI   C3B13535  11.848  17.776   6.994  0.2615 -0.1870  0.0862
  846loPI   C4B13536  11.668  17.744   7.441 -0.1651  0.0047 -0.3382
  847loPI    C113537  16.999  18.340   5.375 -0.1912  0.3521 -0.0994
  847loPI    C213538  16.880  17.978   5.497  0.0299  0.2647 -0.1385
  847loPI    C313539  16.809  18.097   5.121  0.2070  0.1484 -0.2097
  847loPI   PO413540  16.913  18.472   5.630 -0.1281 -0.0922 -0.2010
  847loPI   GL113541  16.869  18.280   5.948 -0.2397 -0.0374 -0.1290
  847loPI   GL213542  16.525  18.216   5.886 -0.0658  0.2476  0.2402
  847loPI   C1A13543  16.966  18.328   6.391  0.3763 -0.0589 -0.0693
  847loPI   C2A13544  16.919  18.282   6.876  0.2498 -0.2950  0.0647
  847loPI   C3A13545  16.910  18.286   7.328  0.4029 -0.1819 -0.0124
  847loPI   C4A13546  17.186  18.228   7.741  0.1770 -0.3012  0.0819
  847loPI   C5A13547  17.373  18.474   8.108  0.1440 -0.2676  0.0499
  847loPI   C6A13548  17.135  18.582   8.407 -0.3008 -0.1910  0.1145
  847loPI   C1B13549  16.470  18.261   6.271 -0.1679  0.0743  0.0040
  847loPI   C2B13550  16.407  18.225   6.623  0.1102 -0.2440  0.0631
  847loPI   C3B13551  16.443  18.301   7.125  0.2297  0.0157  0.0361
  847loPI   C4B13552  16.428  18.305   7.529 -0.0820 -0.1798  0.0021
  848loPI    C113553   4.746  10.927   5.227 -0.0650  0.2631  0.0264
  848loPI    C213554   4.369  10.994   5.112 -0.0632  0.1286 -0.0586
  848loPI    C313555   4.630  10.828   4.857 -0.0261 -0.0547  0.0964
  848loPI   PO413556   4.772  10.825   5.427 -0.2262 -0.2138  0.1584
  848loPI   GL113557   4.928  10.914   5.794 -0.1130  0.0657 -0.0297
  848loPI   GL213558   5.277  10.929   5.912 -0.0434 -0.1442 -0.0113
  848loPI   C1A13559   4.624  10.867   6.160 -0.0131 -0.1719 -0.1591
  848loPI   C2A13560   4.450  10.894   6.471  0.0110  0.1994  0.2699
  848loPI   C3A13561   4.098  11.114   6.733 -0.3315 -0.0337 -0.2502
  848loPI   C4A13562   4.039  11.172   7.200 -0.0398  0.2244  0.1369
  848loPI   C5A13563   4.078  11.247   7.584 -0.3834  0.3915  0.2613
  848loPI   C6A13564   4.448  11.267   7.835  0.0260  0.0187 -0.0237
  848loPI   C1B13565   5.130  10.932   6.289 -0.0822  0.0663  0.1417
  848loPI   C2B13566   4.994  10.776   6.663 -0.2738  0.0479 -0.1607
  848loPI   C3B13567   4.641  10.535   6.866 -0.3353  0.2555  0.0855
  848loPI   C4B13568   4.399  10.812   7.064  0.1613 -0.2536  0.1122
  849loPI    C113569   1.744   7.152   5.087  0.1415 -0.1286 -0.2668
  849loPI    C213570   1.702   7.527   4.955  0.3390 -0.0399 -0.0830
  849loPI    C313571   1.869   7.249   4.720  0.0235 -0.0597 -0.2891
  849loPI   PO413572   1.856   7.210   5.292 -0.1620  0.0341 -0.3746
  849loPI   GL113573   1.953   7.202   5.729 -0.0361  0.1772  0.2467
  849loPI   GL213574   1.682   7.158   5.800  0.2863  0.4976  0.2133
  849loPI   C1A13575   1.829   7.616   5.838 -0.0491  0.4354 -0.1462
  849loPI   C2A13576   1.732   7.709   6.265  0.1607 -0.4635  0.0498
  849loPI   C3A13577   1.636   7.790   6.635 -0.3789  0.1068 -0.0638
  849loPI   C4A13578   1.671   7.764   7.071 -0.1313 -0.0530  0.0095
  849loPI   C5A13579   1.655   7.777   7.555 -0.0249  0.1924  0.3387
  849loPI   C6A13580   1.703   7.720   7.877  0.0946 -0.1683  0.1475
  849loPI   C1B13581   1.484   7.200   6.159  0.0953  0.0632 -0.2567
  849loPI   C2B13582   1.438   7.325   6.524 -0.0127 -0.0487 -0.0712
  849loPI   C3B13583   1.375   7.376   6.911 -0.0511 -0.0984  0.2016
  849loPI   C4B13584   1.537   7.290   7.293  0.3162  0.0344 -0.0307
  850loPI    C113585  16.450   2.792   5.295 -0.0761 -0.0451  0.0781
  850loPI    C213586  16.325   3.161   5.384 -0.0439 -0.0130 -0.0098
  850loPI    C313587  16.388   3.057   5.003  0.1169 -0.0548  0.0273
  850loPI   PO413588  16.589   2.705   5.573  0.3245 -0.3432  0.1416
  850loPI   GL113589  16.763   2.863   5.915  0.1473 -0.0936  0.0936
  850loPI   GL213590  16.605   3.096   5.856  0.1652 -0.0081  0.1287
  850loPI   C1A13591  16.718   2.612   6.328 -0.1283  0.0502 -0.0308
  850loPI   C2A13592  16.617   2.571   6.833 -0.0215 -0.0148  0.0064
  850loPI   C3A13593  16.569   2.566   7.290 -0.0404 -0.0911  0.1008
  850loPI   C4A13594  16.538   2.576   7.730 -0.1371  0.1218 -0.1833
  850loPI   C5A13595  16.673   2.891   7.963 -0.0617 -0.1089  0.0340
  850loPI   C6A13596  16.864   3.202   8.201 -0.0493 -0.0553  0.2487
  850loPI   C1B13597  16.334   3.083   6.213 -0.0337 -0.1151 -0.0323
  850loPI   C2B13598  16.361   2.986   6.623  0.0595  0.2264 -0.1210
  850loPI   C3B13599  16.381   2.971   6.973 -0.1957 -0.2141  0.0302
  850loPI   C4B13600  16.604   3.134   7.215  0.3462 -0.3113 -0.0801
  851loPI    C113601  12.744  16.864   5.247 -0.0618 -0.2763 -0.0781
  851loPI    C213602  12.972  16.745   4.941  0.1814 -0.0656  0.0184
  851loPI    C313603  12.739  17.068   4.903 -0.0031 -0.2043 -0.0366
  851loPI   PO413604  12.570  16.692   5.394  0.1377  0.1595  0.0212
  851loPI   GL113605  12.391  16.783   5.798 -0.1716 -0.3514  0.1287
  851loPI   GL213606  12.119  16.690   5.798  0.0473 -0.0378  0.0790
  851loPI   C1A13607  12.379  16.834   6.217 -0.1015  0.2352  0.0681
  851loPI   C2A13608  12.440  16.868   6.705 -0.0183  0.1696 -0.0451
  851loPI   C3A13609  12.377  16.840   7.113 -0.0020  0.2023 -0.5403
  851loPI   C4A13610  12.486  16.842   7.585  0.0380  0.1715  0.3993
  851loPI   C5A13611  12.368  16.776   8.018 -0.0620 -0.2983 -0.0412
  851loPI   C6A13612  12.446  16.568   8.414  0.0556 -0.0203  0.3925
  851loPI   C1B13613  12.095  16.409   6.144 -0.0201  0.0301  0.0747
  851loPI   C2B13614  12.088  16.426   6.581 -0.1660 -0.0814  0.0074
  851loPI   C3B13615  12.117  16.366   7.010 -0.0020 -0.1462  0.3191
  851loPI   C4B13616  12.144  16.454   7.446  0.0939  0.0445 -0.0251
  852loPI    C113617  17.139   6.078   4.767  0.2986 -0.2192 -0.1990
  852loPI    C213618  17.528   6.163   4.731  0.2645 -0.0295 -0.1328
  852loPI    C313619  17.255   6.392   4.548  0.1760 -0.0653 -0.0464
  852loPI   PO413620  17.145   5.994   5.050 -0.6119 -0.0771  0.1881
  852loPI   GL113621  17.084   5.952   5.467  0.1704  0.0037 -0.1199
  852loPI   GL213622  16.940   5.613   5.585 -0.1374 -0.2417  0.0397
  852loPI   C1A13623  17.289   6.135   5.729 -0.0739 -0.1892 -0.1284
  852loPI   C2A13624  17.540   6.365   5.929  0.1089 -0.0704  0.0780
  852loPI   C3A13625  17.439   6.510   6.313 -0.0921  0.0647  0.1884
  852loPI   C4A13626  17.477   6.473   6.711 -0.0656 -0.1796  0.0826
  852loPI   C5A13627  17.549   6.630   7.172  0.2076  0.0926  0.0856
  852loPI   C6A13628  17.578   6.753   7.617 -0.1206  0.2396 -0.1926
  852loPI   C1B13629  16.915   5.945   5.942 -0.2113 -0.1763  0.0064
  852loPI   C2B13630  16.911   5.815   6.394 -0.2105 -0.3443  0.2540
  852loPI   C3B13631  16.979   5.878   6.794  0.0043 -0.0921 -0.0951
  852loPI   C4B13632  17.025   5.822   7.206  0.3370  0.1265 -0.2783
  853loPI    C113633   9.880   3.366   5.053  0.1351  0.1731  0.2099
  853loPI    C213634  10.103   3.682   4.952  0.0936  0.1224 -0.0489
  853loPI    C313635  10.193   3.320   4.808  0.1109  0.0234  0.2062
  853loPI   PO413636   9.962   3.363   5.382  0.1467 -0.0942  0.0995
  853loPI   GL113637   9.708   3.278   5.766 -0.0870 -0.1028  0.1019
  853loPI   GL213638   9.902   3.036   5.787  0.3624  0.2228 -0.0992
  853loPI   C1A13639   9.665   3.504   6.169  0.5770 -0.0205 -0.0277
  853loPI   C2A13640   9.504   3.619   6.507  0.0181 -0.0946  0.0137
  853loPI   C3A13641   9.639   3.577   6.941  0.3038 -0.0626  0.2105
  853loPI   C4A13642   9.752   3.573   7.349  0.0521 -0.2887  0.0104
  853loPI   C5A13643   9.564   3.626   7.685 -0.0705  0.2408 -0.0384
  853loPI   C6A13644   9.384   3.977   7.817 -0.1444 -0.1052 -0.0959
  853loPI   C1B13645  10.067   3.217   6.136 -0.1212  0.1549  0.0892
  853loPI   C2B13646   9.943   3.305   6.570  0.0968  0.0490 -0.2041
  853loPI   C3B13647  10.067   3.228   6.973  0.0395  0.0877  0.0730
  853loPI   C4B13648  10.219   3.284   7.428 -0.2522 -0.2677  0.1516
  854loPI    C113649  13.858   7.590   5.627 -0.3021  0.1734  0.1245
  854loPI    C213650  13.662   7.585   5.278 -0.1336  0.3274  0.0254
  854loPI    C313651  13.797   7.931   5.426  0.1561  0.2118  0.0387
  854loPI   PO413652  13.770   7.358   5.707 -0.0612 -0.2305 -0.1727
  854loPI   GL113653  13.708   7.084   6.057  0.1666  0.1769 -0.0100
  854loPI   GL213654  13.632   7.376   6.224 -0.1449 -0.2604  0.0040
  854loPI   C1A13655  13.615   6.849   6.411 -0.0893  0.4398  0.0732
  854loPI   C2A13656  13.749   6.609   6.774 -0.1243 -0.1149  0.4428
  854loPI   C3A13657  13.774   6.536   7.209 -0.0463  0.0043 -0.0619
  854loPI   C4A13658  13.639   6.556   7.600  0.1486  0.1403  0.2403
  854loPI   C5A13659  13.625   6.601   7.988  0.1445 -0.0833 -0.0174
  854loPI   C6A13660  13.829   6.556   8.413 -0.2026  0.1706 -0.0733
  854loPI   C1B13661  13.416   7.364   6.649  0.0551  0.2159 -0.1913
  854loPI   C2B13662  13.482   7.337   7.041  0.0502  0.0179  0.0333
  854loPI   C3B13663  13.521   7.452   7.462 -0.0274 -0.1671 -0.0162
  854loPI   C4B13664  13.237   7.450   7.789 -0.3492 -0.1138 -0.0767
  855loPI    C113665  16.845   2.540   5.157 -0.1935 -0.0035 -0.0587
  855loPI    C213666  16.903   2.428   4.777 -0.3623  0.0584 -0.1038
  855loPI    C313667  16.794   2.804   4.861 -0.2013  0.0796  0.0164
  855loPI   PO413668  16.824   2.342   5.303  0.2476  0.2321  0.1207
  855loPI   GL113669  16.626   2.248   5.768  0.4368 -0.0731 -0.0004
  855loPI   GL213670  16.321   2.042   5.783  0.0438  0.0568  0.1247
  855loPI   C1A13671  16.518   2.154   6.231 -0.1284  0.1184 -0.1872
  855loPI   C2A13672  16.445   2.073   6.702  0.1064 -0.1035  0.0821
  855loPI   C3A13673  16.449   2.016   7.096  0.1394 -0.1117  0.1574
  855loPI   C4A13674  16.510   2.128   7.487 -0.1626 -0.1202 -0.2142
  855loPI   C5A13675  16.881   2.032   7.702  0.4498  0.0484  0.0059
  855loPI   C6A13676  17.215   1.999   7.918 -0.0969 -0.0029 -0.1312
  855loPI   C1B13677  16.135   1.787   6.041 -0.0574  0.0383  0.0428
  855loPI   C2B13678  16.236   1.654   6.400 -0.2333 -0.1683  0.2620
  855loPI   C3B13679  16.198   1.565   6.832  0.1293  0.4956 -0.3288
  855loPI   C4B13680  16.247   1.630   7.333  0.2312 -0.3283  0.3568
  856loPI    C113681   6.752  15.419   4.788  0.2011  0.1121 -0.1391
  856loPI    C213682   6.674  15.811   4.768 -0.0531  0.0519 -0.3770
  856loPI    C313683   6.935  15.645   4.514 -0.0526  0.0426 -0.3702
  856loPI   PO413684   6.647  15.382   5.058  0.1114 -0.3872 -0.4074
  856loPI   GL113685   6.648  15.789   5.301  0.2134 -0.0183 -0.0554
  856loPI   GL213686   6.498  15.586   5.450 -0.0801  0.0131  0.3922
  856loPI   C1A13687   6.903  15.739   5.768 -0.1947 -0.1291 -0.2058
  856loPI   C2A13688   6.832  15.706   6.147 -0.1436  0.1353 -0.0861
  856loPI   C3A13689   6.697  15.803   6.560  0.1118  0.0980  0.1602
  856loPI   C4A13690   6.747  15.807   6.967 -0.0673 -0.2329 -0.2224
  856loPI   C5A13691   6.812  15.817   7.341  0.0774 -0.0033  0.0142
  856loPI   C6A13692   6.747  16.149   7.696 -0.0986  0.3182  0.0140
  856loPI   C1B13693   6.352  15.764   5.740 -0.1969 -0.1020  0.3139
  856loPI   C2B13694   6.327  15.781   6.240 -0.0836 -0.2197  0.3305
  856loPI   C3B13695   6.223  15.800   6.655  0.0258  0.1667  0.0725
  856loPI   C4B13696   6.239  15.814   7.105  0.1495 -0.0930 -0.2151
  857loPI    C113697  17.345   2.989   5.450  0.0024  0.2397 -0.1365
  857loPI    C213698  17.630   2.948   5.172  0.0588  0.0391 -0.0505
  857loPI    C313699  17.260   2.810   5.103  0.0252  0.1513 -0.0967
  857loPI   PO413700  17.466   2.862   5.725 -0.0810 -0.1121 -0.0531
  857loPI   GL113701  17.270   2.812   6.040 -0.0167  0.4322 -0.1770
  857loPI   GL213702  17.502   2.480   6.049  0.1432  0.0178  0.0776
  857loPI   C1A13703  17.220   2.786   6.411 -0.1858 -0.1022  0.0997
  857loPI   C2A13704  17.638   2.709   6.694 -0.1234 -0.2551  0.2183
  857loPI   C3A13705  17.954   2.686   6.970 -0.1490 -0.1762 -0.2626
  857loPI   C4A13706  18.252   2.854   7.187 -0.0249  0.2206 -0.0123
  857loPI   C5A13707  18.444   2.646   7.458  0.0023 -0.0990 -0.0034
  857loPI   C6A13708  18.705   2.195   7.394  0.0204  0.0716 -0.2896
  857loPI   C1B13709  17.832   2.367   6.288  0.0437 -0.2465  0.0155
  857loPI   C2B13710  18.138   2.272   6.665  0.0392 -0.2433  0.0559
  857loPI   C3B13711  18.188   2.321   7.120 -0.3964 -0.0640 -0.1726
  857loPI   C4B13712  17.949   2.569   7.466 -0.0420 -0.2694  0.2495
  858loPI    C113713   6.480  14.908   5.108 -0.0571  0.0450 -0.0069
  858loPI    C213714   6.849  14.874   5.259 -0.1104  0.0993  0.1370
  858loPI    C313715   6.795  14.879   4.862  0.0399  0.0553  0.1154
  858loPI   PO413716   6.339  14.895   5.367 -0.0346  0.0706  0.0287
  858loPI   GL113717   6.505  15.049   5.608  0.1230 -0.1944  0.1374
  858loPI   GL213718   6.718  14.901   5.724  0.0100  0.1836  0.1494
  858loPI   C1A13719   6.608  15.331   5.886  0.1322 -0.0091  0.0169
  858loPI   C2A13720   6.617  15.297   6.335  0.3080  0.3020  0.0491
  858loPI   C3A13721   6.461  15.300   6.741  0.1514  0.0117 -0.2208
  858loPI   C4A13722   6.593  15.351   7.212 -0.1804 -0.0200 -0.0515
  858loPI   C5A13723   6.493  15.395   7.686  0.0537  0.1131  0.0478
  858loPI   C6A13724   6.723  15.700   7.916 -0.0154  0.2936 -0.0053
  858loPI   C1B13725   6.856  14.868   6.171  0.0085  0.2978 -0.3552
  858loPI   C2B13726   6.841  14.913   6.583  0.2181 -0.0361 -0.0084
  858loPI   C3B13727   6.706  14.887   6.976 -0.1532 -0.0670  0.0460
  858loPI   C4B13728   6.786  14.884   7.481 -0.0770 -0.1387  0.0038
  859loPI    C113729   3.906   9.653   5.192 -0.1908 -0.1615  0.0623
  859loPI    C213730   4.297   9.589   5.140 -0.1475  0.0148  0.1609
  859loPI    C313731   4.096   9.817   4.880 -0.1012  0.2394  0.3188
  859loPI   PO413732   3.871   9.543   5.431 -0.1685  0.3181  0.0850
  859loPI   GL113733   3.963   9.380   5.843 -0.0370  0.0506 -0.0457
  859loPI   GL213734   4.035   9.040   5.656  0.1502  0.1108 -0.1236
  859loPI   C1A13735   3.817   9.305   6.299  0.0159 -0.0555 -0.1426
  859loPI   C2A13736   3.848   9.428   6.671  0.0944  0.3938  0.1224
  859loPI   C3A13737   3.794   9.507   7.074  0.0071 -0.3375 -0.0667
  859loPI   C4A13738   3.717   9.372   7.478  0.1244  0.0322 -0.1236
  859loPI   C5A13739   3.488   9.348   7.863 -0.1312  0.1936 -0.0921
  859loPI   C6A13740   3.457   9.686   8.192 -0.0087  0.0627 -0.2281
  859loPI   C1B13741   3.980   8.907   6.068  0.2115  0.0925 -0.1886
  859loPI   C2B13742   3.786   8.852   6.479 -0.1156  0.1323 -0.0068
  859loPI   C3B13743   3.607   8.866   6.867  0.1508 -0.2113 -0.2536
  859loPI   C4B13744   3.495   8.958   7.266 -0.0363 -0.2282  0.3504
  860loPI    C113745   8.309   4.491   5.310 -0.0228 -0.1607 -0.0484
  860loPI    C213746   8.194   4.511   4.928 -0.2658 -0.1835  0.0216
  860loPI    C313747   7.974   4.307   5.192  0.1373 -0.5486  0.0857
  860loPI   PO413748   8.524   4.740   5.291  0.0617 -0.1273  0.3226
  860loPI   GL113749   8.684   4.814   5.625  0.0988 -0.0100  0.0907
  860loPI   GL213750   8.507   4.525   5.764  0.0978 -0.1421 -0.0026
  860loPI   C1A13751   8.599   4.978   5.972 -0.3255  0.0437  0.0830
  860loPI   C2A13752   8.739   5.084   6.353 -0.1075 -0.2531 -0.0552
  860loPI   C3A13753   8.793   5.246   6.721 -0.0693  0.1487 -0.0913
  860loPI   C4A13754   8.739   5.240   7.179 -0.3325  0.0599 -0.1146
  860loPI   C5A13755   8.727   5.321   7.601  0.1834  0.0198 -0.0905
  860loPI   C6A13756   8.731   5.765   7.863  0.0498  0.1229 -0.0696
  860loPI   C1B13757   8.798   4.544   6.146  0.0197 -0.2321  0.1389
  860loPI   C2B13758   8.916   4.667   6.554 -0.0576 -0.1272  0.3632
  860loPI   C3B13759   8.874   4.806   6.956  0.0137  0.1321  0.0289
  860loPI   C4B13760   8.943   4.816   7.426 -0.2718  0.0888  0.0971
  861loPI    C113761   8.199  14.485   5.238 -0.0664  0.0235  0.0432
  861loPI    C213762   8.433  14.169   5.310 -0.1534 -0.0309  0.0890
  861loPI    C313763   8.135  14.141   5.046  0.0080  0.0941 -0.1097
  861loPI   PO413764   8.129  14.597   5.496  0.3399  0.3401 -0.1160
  861loPI   GL113765   8.078  14.762   5.841 -0.3085  0.0963 -0.0752
  861loPI   GL213766   8.459  14.944   5.926  0.1187 -0.2399  0.0140
  861loPI   C1A13767   7.912  14.881   6.195  0.2377  0.1690  0.1998
  861loPI   C2A13768   7.830  14.947   6.677  0.0716 -0.0514 -0.4697
  861loPI   C3A13769   7.753  15.014   7.103  0.0513 -0.1074  0.0798
  861loPI   C4A13770   7.685  15.002   7.472 -0.2001 -0.0412 -0.1450
  861loPI   C5A13771   7.451  15.232   7.671 -0.1275 -0.0787 -0.2050
  861loPI   C6A13772   7.330  15.668   7.662 -0.1415  0.0636 -0.2521
  861loPI   C1B13773   8.411  14.965   6.284 -0.1364 -0.0198  0.1930
  861loPI   C2B13774   8.362  14.873   6.632  0.1309 -0.1353  0.0588
  861loPI   C3B13775   8.196  14.800   7.061 -0.2952  0.1323 -0.0188
  861loPI   C4B13776   8.209  14.703   7.516 -0.0144 -0.0676 -0.1572
  862loPI    C113777   9.867  16.554   5.385 -0.1404  0.1204 -0.0427
  862loPI    C213778   9.634  16.320   5.159 -0.0717 -0.1336  0.1446
  862loPI    C313779  10.028  16.331   5.094 -0.1040  0.1220 -0.0239
  862loPI   PO413780   9.689  16.771   5.396 -0.1602  0.2734 -0.0101
  862loPI   GL113781   9.377  17.025   5.671 -0.0204 -0.0535 -0.0251
  862loPI   GL213782   9.116  17.053   5.846 -0.0246 -0.2230 -0.0059
  862loPI   C1A13783   9.432  16.692   6.012  0.4370  0.3328 -0.1118
  862loPI   C2A13784   9.386  16.656   6.434 -0.0376 -0.3285 -0.1816
  862loPI   C3A13785   9.375  16.877   6.775 -0.0673  0.1633  0.4273
  862loPI   C4A13786   9.262  16.849   7.217 -0.1087  0.2432 -0.1698
  862loPI   C5A13787   9.194  17.173   7.523  0.4294 -0.1692 -0.2982
  862loPI   C6A13788   8.873  16.953   7.863 -0.1319  0.1323  0.3646
  862loPI   C1B13789   9.131  17.092   6.337 -0.0326 -0.3870 -0.0203
  862loPI   C2B13790   9.009  17.282   6.748 -0.2348 -0.0643 -0.0411
  862loPI   C3B13791   8.916  17.453   7.180 -0.2171  0.2922  0.0665
  862loPI   C4B13792   8.746  17.404   7.543 -0.0062 -0.0182 -0.0205
  863loPI    C113793   8.710   4.400   4.751 -0.0184 -0.0202  0.0665
  863loPI    C213794   8.421   4.198   4.562  0.1747  0.0372 -0.2983
  863loPI    C313795   8.440   4.596   4.529  0.0762  0.0717  0.0318
  863loPI   PO413796   8.686   4.369   4.964  0.0492 -0.1601  0.1348
  863loPI   GL113797   8.788   4.247   5.398 -0.2048 -0.3220 -0.3519
  863loPI   GL213798   8.876   3.917   5.267 -0.2018  0.1179  0.0601
  863loPI   C1A13799   8.939   4.200   5.831 -0.2434  0.3922 -0.0807
  863loPI   C2A13800   8.960   4.136   6.278 -0.1487  0.0889 -0.0264
  863loPI   C3A13801   9.028   4.191   6.706  0.2111  0.0502 -0.1549
  863loPI   C4A13802   8.957   4.260   7.066 -0.1140 -0.3281 -0.2755
  863loPI   C5A13803   8.860   4.253   7.458 -0.0843  0.0002 -0.1890
  863loPI   C6A13804   8.886   3.941   7.845 -0.0670  0.0235 -0.0286
  863loPI   C1B13805   8.806   3.762   5.730 -0.3516  0.1638  0.2531
  863loPI   C2B13806   8.588   3.593   6.116  0.1444  0.2234 -0.0064
  863loPI   C3B13807   8.642   3.671   6.619 -0.1997 -0.1365  0.1834
  863loPI   C4B13808   8.586   3.938   6.968 -0.0242  0.1178  0.1752
  864loPI    C113809  15.227   1.393   4.814 -0.1048 -0.0058  0.2242
  864loPI    C213810  14.973   1.087   4.861  0.2977 -0.3653  0.1249
  864loPI    C313811  15.293   1.047   4.624  0.3481  0.1440  0.0957
  864loPI   PO413812  15.276   1.468   5.049 -0.1600  0.0120 -0.1944
  864loPI   GL113813  15.115   1.370   5.450 -0.3405  0.1517 -0.3270
  864loPI   GL213814  15.146   1.643   5.513 -0.0399 -0.0105 -0.1980
  864loPI   C1A13815  15.241   1.407   5.984  0.1621  0.0608  0.0764
  864loPI   C2A13816  15.158   1.501   6.395 -0.1617  0.0893 -0.0412
  864loPI   C3A13817  15.156   1.489   6.851 -0.1085 -0.0837 -0.0209
  864loPI   C4A13818  15.067   1.501   7.310  0.0992 -0.2707 -0.2358
  864loPI   C5A13819  14.937   1.798   7.552  0.0621 -0.0338 -0.0243
  864loPI   C6A13820  14.685   1.930   7.930 -0.0432 -0.1445 -0.0990
  864loPI   C1B13821  14.902   1.916   5.837 -0.1125  0.0545 -0.0462
  864loPI   C2B13822  14.833   1.925   6.244 -0.2628 -0.0809 -0.1720
  864loPI   C3B13823  14.877   1.888   6.701 -0.3372 -0.0544 -0.0056
  864loPI   C4B13824  14.775   1.851   7.099 -0.1402 -0.1207  0.1874
  865loPI    C113825  12.975   1.902   5.199  0.1294 -0.0496  0.0332
  865loPI    C213826  13.026   1.881   4.803 -0.0506 -0.1024  0.0120
  865loPI    C313827  13.140   1.576   5.035  0.0778 -0.0612  0.0042
  865loPI   PO413828  12.714   1.926   5.246 -0.0453  0.0946  0.2589
  865loPI   GL113829  12.497   2.069   5.600  0.2005 -0.2771  0.1621
  865loPI   GL213830  12.878   2.002   5.718  0.0904  0.0387 -0.0636
  865loPI   C1A13831  12.465   1.952   6.035 -0.1147  0.0491 -0.1586
  865loPI   C2A13832  12.401   1.926   6.453  0.3510 -0.2659  0.0239
  865loPI   C3A13833  12.435   2.014   6.885  0.1786 -0.1732  0.2098
  865loPI   C4A13834  12.473   2.102   7.364 -0.1679  0.1132 -0.1514
  865loPI   C5A13835  12.226   2.102   7.792  0.1407 -0.0794 -0.0378
  865loPI   C6A13836  12.378   2.136   8.215 -0.1861  0.0406  0.0151
  865loPI   C1B13837  13.012   2.061   6.181 -0.0192 -0.0559 -0.0345
  865loPI   C2B13838  12.994   2.143   6.735 -0.0116 -0.1554 -0.0183
  865loPI   C3B13839  12.934   2.158   7.072 -0.1105  0.1520  0.1112
  865loPI   C4B13840  13.054   2.056   7.440 -0.0320  0.4397 -0.1490
  866loPI    C113841   0.609   3.796   5.101  0.0536  0.1603 -0.0846
  866loPI    C213842   0.440   3.867   4.745  0.0065  0.1159 -0.0712
  866loPI    C313843   0.798   3.688   4.765 -0.1088 -0.1209 -0.0891
  866loPI   PO413844   0.378   3.775   5.330 -0.0563  0.2657 -0.0755
  866loPI   GL113845   0.257   3.811   5.755 -0.1039 -0.0740  0.0106
  866loPI   GL213846   0.600   3.776   5.783  0.1948 -0.0676 -0.1269
  866loPI   C1A13847   0.297   3.682   6.235 -0.5054  0.0752  0.1817
  866loPI   C2A13848   0.208   3.867   6.688 -0.2314 -0.1373 -0.0504
  866loPI   C3A13849   0.217   3.939   7.107  0.1226 -0.1730  0.2110
  866loPI   C4A13850   0.031   4.199   7.360 -0.2038  0.1885  0.0888
  866loPI   C5A13851  -0.003   4.333   7.679  0.1138 -0.0383 -0.2046
  866loPI   C6A13852  -0.046   4.600   8.071  0.1299  0.1745 -0.1075
  866loPI   C1B13853   0.767   3.619   6.241  0.2414 -0.0346 -0.1254
  866loPI   C2B13854   0.651   3.619   6.728 -0.0509 -0.0270  0.1476
  866loPI   C3B13855   0.677   3.874   7.136 -0.2627 -0.0252 -0.0933
  866loPI   C4B13856   0.823   3.790   7.404  0.1702  0.1992 -0.7178
  867loPI    C113857   0.617   2.402   5.663  0.2955 -0.0828 -0.1506
  867loPI    C213858   0.425   2.122   5.452  0.0902  0.0791 -0.1825
  867loPI    C313859   0.662   2.385   5.266 -0.1027  0.2314 -0.2163
  867loPI   PO413860   0.756   2.269   5.866 -0.2496 -0.2369 -0.2584
  867loPI   GL113861   0.715   2.220   6.225  0.1540  0.3579 -0.0335
  867loPI   GL213862   0.687   1.875   6.201 -0.2506  0.0981 -0.1225
  867loPI   C1A13863   0.774   2.284   6.711 -0.2002 -0.2192 -0.0146
  867loPI   C2A13864   0.786   2.311   7.198 -0.1536 -0.3114 -0.0870
  867loPI   C3A13865   0.803   2.221   7.653 -0.0444  0.0818 -0.3504
  867loPI   C4A13866   0.630   2.100   8.005 -0.0164  0.0022  0.2727
  867loPI   C5A13867   0.720   1.822   8.390 -0.0134 -0.1647 -0.4356
  867loPI   C6A13868   0.699   1.846   8.804  0.0859  0.1171 -0.1312
  867loPI   C1B13869   1.005   1.895   6.452 -0.0975  0.1233  0.3485
  867loPI   C2B13870   1.359   1.681   6.700 -0.2024 -0.3064 -0.0171
  867loPI   C3B13871   1.470   1.393   7.107  0.2261  0.1292 -0.3783
  867loPI   C4B13872   1.439   1.236   7.478  0.0145  0.0863 -0.0596
  868loPI    C113873  11.131  16.592   5.121  0.0479  0.0814 -0.2065
  868loPI    C213874  11.332  16.247   5.089 -0.0880 -0.0149 -0.0422
  868loPI    C313875  11.249  16.462   4.762  0.0391 -0.1136 -0.1402
  868loPI   PO413876  10.977  16.552   5.410 -0.1960 -0.0070  0.0291
  868loPI   GL113877  11.020  16.447   5.879  0.1662  0.2080  0.1974
  868loPI   GL213878  10.715  16.243   5.998 -0.2183  0.3172  0.2217
  868loPI   C1A13879  11.159  16.469   6.322 -0.1788 -0.1184  0.0545
  868loPI   C2A13880  11.101  16.422   6.762  0.0135  0.0568 -0.1431
  868loPI   C3A13881  10.997  16.441   7.183 -0.0041 -0.1811 -0.2356
  868loPI   C4A13882  10.993  16.622   7.600  0.0530 -0.0066  0.0593
  868loPI   C5A13883  11.067  17.001   7.742  0.4947  0.1282 -0.0857
  868loPI   C6A13884  11.143  17.458   7.644 -0.0790 -0.1900  0.0562
  868loPI   C1B13885  10.642  16.325   6.384  0.0507 -0.0957 -0.1502
  868loPI   C2B13886  10.641  16.261   6.783  0.2803 -0.0070  0.3682
  868loPI   C3B13887  10.471  16.383   7.157 -0.1988  0.0325  0.0715
  868loPI   C4B13888  10.525  16.463   7.649  0.0777 -0.0596  0.1148
  869loPI    C113889  10.822   0.196   5.319  0.2569  0.1021  0.0923
  869loPI    C213890  11.054   0.052   5.026  0.2976 -0.1670  0.2539
  869loPI    C313891  10.841  -0.198   5.255 -0.1844  0.0777  0.0861
  869loPI   PO413892  10.992   0.304   5.512 -0.0216  0.4203 -0.3652
  869loPI   GL113893  10.951   0.292   5.846  0.2006 -0.2805 -0.0595
  869loPI   GL213894  10.667   0.473   5.944 -0.0866 -0.0543  0.1199
  869loPI   C1A13895  11.023   0.002   6.117  0.0899  0.2204 -0.3182
  869loPI   C2A13896  11.219  -0.132   6.502  0.1865  0.1972  0.0234
  869loPI   C3A13897  11.100  -0.168   6.839 -0.0199  0.0945  0.0457
  869loPI   C4A13898  11.294  -0.135   7.314  0.2553 -0.0256  0.0384
  869loPI   C5A13899  11.354  -0.293   7.708 -0.1428  0.2183  0.1015
  869loPI   C6A13900  11.455  -0.643   8.025 -0.1486  0.2299  0.1776
  869loPI   C1B13901  10.764   0.390   6.381 -0.0495  0.0212  0.2892
  869loPI   C2B13902  10.886   0.383   6.832  0.1233 -0.0407 -0.0032
  869loPI   C3B13903  11.173   0.389   7.200  0.0468  0.2180  0.0273
  869loPI   C4B13904  11.209   0.420   7.621  0.1330  0.0725 -0.1625
  870loPI    C113905   6.840  11.608   5.040 -0.1577 -0.0426 -0.0267
  870loPI    C213906   6.496  11.405   5.026 -0.2287  0.0856 -0.1627
  870loPI    C313907   6.776  11.342   4.747 -0.0586 -0.1633  0.0597
  870loPI   PO413908   6.881  11.554   5.314 -0.0909 -0.2902  0.3445
  870loPI   GL113909   6.767  11.458   5.788  0.2877 -0.0975 -0.0361
  870loPI   GL213910   7.013  11.475   5.887 -0.1321 -0.1369 -0.1739
  870loPI   C1A13911   6.531  11.390   6.138 -0.2337 -0.1443 -0.1258
  870loPI   C2A13912   6.333  11.474   6.512  0.0732 -0.5623 -0.2960
  870loPI   C3A13913   6.277  11.783   6.882  0.0535  0.0590 -0.3199
  870loPI   C4A13914   6.399  11.993   7.247 -0.2467 -0.2100 -0.1635
  870loPI   C5A13915   6.158  11.790   7.515  0.2685 -0.4390 -0.0873
  870loPI   C6A13916   6.254  11.587   7.914  0.1978  0.2403 -0.2845
  870loPI   C1B13917   7.052  11.260   6.209  0.0521 -0.1792  0.1124
  870loPI   C2B13918   7.231  10.860   6.463  0.0053  0.1023 -0.2797
  870loPI   C3B13919   7.419  10.586   6.732  0.1551 -0.1237 -0.0968
  870loPI   C4B13920   7.753  10.506   7.130  0.0441 -0.0778  0.1110
  871loPI    C113921   9.482  15.706   5.324  0.0993  0.0976 -0.1983
  871loPI    C213922   9.556  15.505   4.986  0.2066  0.1169 -0.1868
  871loPI    C313923   9.450  15.890   4.970  0.0768  0.0812 -0.2049
  871loPI   PO413924   9.445  15.540   5.531 -0.1436 -0.0315 -0.1872
  871loPI   GL113925   9.375  15.626   5.942  0.1621 -0.1567  0.1039
  871loPI   GL213926   9.094  15.415   5.909 -0.0419  0.0483  0.5626
  871loPI   C1A13927   9.426  15.831   6.354  0.0174 -0.0227  0.0565
  871loPI   C2A13928   9.349  15.893   6.867 -0.3668  0.0487  0.1909
  871loPI   C3A13929   9.204  15.927   7.259 -0.1056 -0.0432 -0.2456
  871loPI   C4A13930   9.098  15.847   7.668 -0.1529 -0.1969 -0.1354
  871loPI   C5A13931   9.091  15.509   7.987  0.1013 -0.0722  0.0333
  871loPI   C6A13932   8.892  15.144   8.017  0.1649  0.2782  0.1907
  871loPI   C1B13933   9.192  15.402   6.316  0.0111 -0.0742 -0.1056
  871loPI   C2B13934   9.062  15.428   6.769  0.1320  0.0621 -0.0243
  871loPI   C3B13935   9.007  15.474   7.130  0.0885  0.1167  0.0699
  871loPI   C4B13936   8.791  15.494   7.546 -0.0980 -0.0872  0.0606
  872loPI    C113937   4.487   3.293   4.706  0.0323  0.2594 -0.1746
  872loPI    C213938   4.098   3.201   4.715  0.0367  0.2572  0.0648
  872loPI    C313939   4.267   3.321   4.373 -0.1750  0.2640 -0.0393
  872loPI   PO413940   4.462   3.513   4.922 -0.2324 -0.1952  0.0881
  872loPI   GL113941   4.548   3.489   5.313  0.0099 -0.2057 -0.2888
  872loPI   GL213942   4.950   3.639   5.470  0.2295 -0.1953  0.0170
  872loPI   C1A13943   4.447   3.581   5.628  0.1665  0.4499 -0.0167
  872loPI   C2A13944   4.302   3.576   6.102  0.0892  0.1971  0.0613
  872loPI   C3A13945   4.258   3.541   6.516  0.0870 -0.0696 -0.2939
  872loPI   C4A13946   4.326   3.575   6.909 -0.0036 -0.0291 -0.0171
  872loPI   C5A13947   4.285   3.686   7.297 -0.1307  0.0854 -0.1921
  872loPI   C6A13948   4.329   3.619   7.648 -0.0596  0.0900  0.0326
  872loPI   C1B13949   4.885   3.572   5.939 -0.2935  0.1841  0.3060
  872loPI   C2B13950   4.824   3.643   6.405 -0.0693 -0.0500 -0.1910
  872loPI   C3B13951   4.819   3.704   6.817  0.1637  0.3074 -0.0995
  872loPI   C4B13952   4.852   3.710   7.315  0.1019  0.2502  0.3010
  873loPI    C113953   3.638  11.812   5.137  0.1735  0.1310  0.0454
  873loPI    C213954   3.726  11.879   4.752 -0.0944  0.2783  0.0070
  873loPI    C313955   3.445  11.611   4.849  0.1261  0.0812  0.1117
  873loPI   PO413956   3.880  11.713   5.364 -0.2537  0.1088 -0.0322
  873loPI   GL113957   3.962  11.861   5.756 -0.0734 -0.0330  0.0677
  873loPI   GL213958   3.788  12.107   5.726  0.0083  0.1628 -0.0518
  873loPI   C1A13959   3.964  11.602   6.203 -0.0163  0.0137  0.1232
  873loPI   C2A13960   3.947  11.531   6.623 -0.2102 -0.0327 -0.1180
  873loPI   C3A13961   3.758  11.628   6.992 -0.5316  0.0338 -0.1463
  873loPI   C4A13962   3.812  11.568   7.409 -0.0383 -0.1782  0.2275
  873loPI   C5A13963   4.110  11.686   7.866 -0.1820  0.1315 -0.0711
  873loPI   C6A13964   4.215  11.744   8.365  0.0806  0.2140  0.3211
  873loPI   C1B13965   3.858  12.257   6.054 -0.0778  0.0739  0.0168
  873loPI   C2B13966   3.684  12.400   6.573 -0.0546  0.0602  0.2642
  873loPI   C3B13967   3.639  12.486   7.026 -0.1299 -0.0059  0.0139
  873loPI   C4B13968   3.699  12.532   7.462  0.2019  0.0765 -0.0230
  874loPI    C113969  17.783  17.795   5.068  0.2570  0.1659 -0.0744
  874loPI    C213970  17.977  17.478   4.920 -0.0474 -0.1118  0.1099
  874loPI    C313971  17.667  17.634   4.720 -0.1678 -0.2005  0.2248
  874loPI   PO413972  17.841  17.814   5.236  0.3053  0.0633 -0.0083
  874loPI   GL113973  17.887  17.989   5.589  0.2734 -0.1078 -0.2574
  874loPI   GL213974  18.199  18.026   5.611  0.3236 -0.0940  0.1031
  874loPI   C1A13975  17.857  17.912   6.044 -0.0064 -0.1229 -0.2084
  874loPI   C2A13976  17.746  17.935   6.452  0.0991 -0.1301  0.0760
  874loPI   C3A13977  17.713  17.852   6.865  0.0446 -0.1806  0.0876
  874loPI   C4A13978  17.695  17.861   7.258 -0.1603 -0.2409  0.1948
  874loPI   C5A13979  17.650  17.849   7.705  0.1432 -0.0783  0.1787
  874loPI   C6A13980  17.378  17.801   8.044 -0.1311  0.0371 -0.0248
  874loPI   C1B13981  18.316  17.999   5.921  0.2036  0.0277  0.1612
  874loPI   C2B13982  18.294  18.025   6.335  0.1149  0.4217  0.1065
  874loPI   C3B13983  18.177  18.155   6.726  0.1485  0.4105  0.2909
  874loPI   C4B13984  18.105  18.298   7.224  0.1684  0.1964  0.1515
  875loPI    C113985  12.244   0.975   5.378 -0.1116  0.0194 -0.0402
  875loPI    C213986  12.391   1.033   5.011  0.1103 -0.1543  0.0190
  875loPI    C313987  12.180   0.703   5.092 -0.0201 -0.0705  0.0241
  875loPI   PO413988  12.236   1.228   5.490  0.1085  0.0412 -0.0725
  875loPI   GL113989  12.088   1.644   5.702  0.0159 -0.0513  0.0809
  875loPI   GL213990  12.229   1.481   5.929 -0.2442  0.1465  0.0916
  875loPI   C1A13991  11.956   1.880   5.999 -0.4131  0.0017  0.0192
  875loPI   C2A13992  11.844   1.817   6.443  0.2366  0.1298  0.3125
  875loPI   C3A13993  11.926   1.903   6.822  0.0526  0.3799 -0.0402
  875loPI   C4A13994  11.898   1.944   7.300  0.1355 -0.1537 -0.0460
  875loPI   C5A13995  11.640   1.847   7.644  0.0041  0.0305  0.0358
  875loPI   C6A13996  11.286   2.016   7.663 -0.0365 -0.0370 -0.0012
  875loPI   C1B13997  12.226   1.488   6.332  0.1328 -0.3363  0.0321
  875loPI   C2B13998  12.269   1.507   6.775  0.0027  0.1691 -0.0610
  875loPI   C3B13999  12.289   1.606   7.135 -0.2034  0.2055  0.3917
  875loPI   C4B14000  12.347   1.643   7.610 -0.0679  0.2897 -0.0988
  876loPI    C114001   4.683  13.286   4.752 -0.1224 -0.0041  0.2978
  876loPI    C214002   4.779  12.913   4.645 -0.1088  0.0978 -0.0578
  876loPI    C314003   4.474  13.100   4.467 -0.2167  0.2026  0.2299
  876loPI   PO414004   4.737  13.328   5.019  0.2129  0.0576  0.0592
  876loPI   GL114005   4.448  13.291   5.342  0.0938 -0.1713  0.0073
  876loPI   GL214006   4.613  13.661   5.444 -0.1675 -0.2340  0.2215
  876loPI   C1A14007   4.565  13.352   5.830  0.4236  0.3031  0.0794
  876loPI   C2A14008   4.675  13.456   6.135  0.1262 -0.0065  0.2230
  876loPI   C3A14009   4.745  13.483   6.556  0.0628  0.1513 -0.0736
  876loPI   C4A14010   4.825  13.218   6.819 -0.1307 -0.0252  0.1158
  876loPI   C5A14011   4.931  13.067   7.254 -0.2745 -0.0300  0.1403
  876loPI   C6A14012   5.338  13.121   7.576 -0.0060  0.0598 -0.4705
  876loPI   C1B14013   4.391  13.860   5.790 -0.0690  0.2030 -0.2190
  876loPI   C2B14014   4.381  13.898   6.278  0.2661 -0.0664 -0.4962
  876loPI   C3B14015   4.388  13.843   6.597  0.2840 -0.1500 -0.1450
  876loPI   C4B14016   4.336  13.890   7.111  0.0983 -0.0136  0.2169
  877loPI    C114017   4.764   0.655   4.991 -0.0739  0.0826 -0.1444
  877loPI    C214018   4.687   0.838   4.644 -0.1341  0.0456 -0.1508
  877loPI    C314019   5.016   0.614   4.683 -0.0805  0.1229 -0.1553
  877loPI   PO414020   4.497   0.636   5.056 -0.0923  0.2291  0.0989
  877loPI   GL114021   4.281   0.433   5.451  0.1173  0.2500  0.0249
  877loPI   GL214022   4.497   0.721   5.640  0.1149  0.0078 -0.1177
  877loPI   C1A14023   4.231   0.320   5.962 -0.1630 -0.2478 -0.0730
  877loPI   C2A14024   4.307   0.454   6.334 -0.0723 -0.0171 -0.0012
  877loPI   C3A14025   4.263   0.454   6.737 -0.1802  0.0658 -0.2044
  877loPI   C4A14026   4.276   0.467   7.153 -0.4263 -0.0292 -0.0847
  877loPI   C5A14027   4.425   0.405   7.616 -0.0005  0.0432 -0.2693
  877loPI   C6A14028   4.241   0.260   8.070 -0.2261 -0.0106 -0.0318
  877loPI   C1B14029   4.412   0.833   6.033 -0.2360 -0.1054  0.1360
  877loPI   C2B14030   4.535   0.928   6.420  0.2238 -0.2206  0.0653
  877loPI   C3B14031   4.570   0.898   6.881 -0.0181 -0.3545 -0.1836
  877loPI   C4B14032   4.517   0.829   7.336 -0.1633  0.1308 -0.1315
  878loPI    C114033  14.004  12.382   5.197  0.0002  0.0414  0.2244
  878loPI    C214034  14.072  12.698   5.432 -0.2722  0.1558  0.1542
  878loPI    C314035  14.155  12.718   5.041 -0.0189  0.0387  0.1998
  878loPI   PO414036  14.189  12.225   5.336 -0.2222 -0.1473 -0.0548
  878loPI   GL114037  14.249  12.381   5.776  0.1797  0.4018 -0.1532
  878loPI   GL214038  14.406  12.199   6.043 -0.3548  0.2795  0.0135
  878loPI   C1A14039  13.981  12.450   6.168  0.0052  0.1136  0.0584
  878loPI   C2A14040  14.044  12.300   6.474  0.0159 -0.0401  0.0208
  878loPI   C3A14041  14.201  12.189   6.891 -0.0030  0.3041  0.1658
  878loPI   C4A14042  14.073  11.868   7.084 -0.0341  0.0317  0.0568
  878loPI   C5A14043  13.770  11.667   7.228 -0.0947  0.1751 -0.0967
  878loPI   C6A14044  13.382  11.439   7.375  0.0074 -0.1167  0.0831
  878loPI   C1B14045  14.540  12.206   6.382 -0.5330  0.2580 -0.0315
  878loPI   C2B14046  14.700  12.234   6.764  0.0393  0.0034 -0.0057
  878loPI   C3B14047  14.799  12.260   7.261  0.1295 -0.1615  0.2938
  878loPI   C4B14048  15.217  12.238   7.524  0.0057 -0.3225  0.1092
  879loPI    C114049  13.176   6.318   5.504 -0.0651 -0.0738 -0.0677
  879loPI    C214050  12.889   6.372   5.230  0.1113  0.2509 -0.1944
  879loPI    C314051  13.234   6.199   5.127  0.0162 -0.0175 -0.0731
  879loPI   PO414052  13.216   6.494   5.659 -0.1995  0.0222  0.0613
  879loPI   GL114053  12.963   6.656   6.001 -0.0182  0.2298 -0.5253
  879loPI   GL214054  12.665   6.800   6.259 -0.3255  0.2055 -0.0260
  879loPI   C1A14055  13.017   6.438   6.392 -0.1591 -0.2067 -0.0517
  879loPI   C2A14056  13.209   6.465   6.772 -0.2112  0.3033  0.0174
  879loPI   C3A14057  13.212   6.423   7.204 -0.1823 -0.1239  0.2485
  879loPI   C4A14058  13.147   6.512   7.576  0.0100  0.3001 -0.2165
  879loPI   C5A14059  12.836   6.352   7.882  0.2248 -0.0847 -0.3869
  879loPI   C6A14060  12.458   6.479   7.827 -0.2944 -0.1193  0.2205
  879loPI   C1B14061  12.669   6.844   6.724  0.0034 -0.2417 -0.0288
  879loPI   C2B14062  12.864   6.865   7.175 -0.3882  0.1987 -0.1265
  879loPI   C3B14063  12.681   6.992   7.593  0.1274  0.1435 -0.0943
  879loPI   C4B14064  12.803   6.977   7.962 -0.1173  0.1214 -0.4988
  880loPI    C114065   9.302   3.740   5.004  0.1696 -0.2602  0.0842
  880loPI    C214066   9.249   3.621   4.626  0.0507  0.1625 -0.0368
  880loPI    C314067   9.614   3.720   4.756  0.0859  0.0523 -0.0506
  880loPI   PO414068   9.057   3.525   5.065  0.0305 -0.0414 -0.0993
  880loPI   GL114069   8.944   3.259   5.484  0.2130  0.0538  0.1431
  880loPI   GL214070   9.198   3.258   5.695 -0.1232 -0.0826 -0.1107
  880loPI   C1A14071   8.711   3.172   5.894 -0.0989  0.1617 -0.0939
  880loPI   C2A14072   8.686   3.013   6.250  0.0372  0.0126 -0.0937
  880loPI   C3A14073   8.692   2.804   6.590  0.2339 -0.2109  0.0645
  880loPI   C4A14074   8.740   2.695   7.026 -0.0480  0.0182  0.1733
  880loPI   C5A14075   8.739   2.675   7.347  0.2356  0.1351 -0.2249
  880loPI   C6A14076   8.534   2.524   7.678 -0.1491 -0.1248  0.0650
  880loPI   C1B14077   9.130   3.236   6.195 -0.2821  0.2715 -0.0980
  880loPI   C2B14078   9.095   3.241   6.562 -0.1659 -0.3473 -0.2229
  880loPI   C3B14079   8.801   3.273   6.822 -0.0127  0.0374  0.0598
  880loPI   C4B14080   8.490   3.127   7.029 -0.0137 -0.0422  0.0490
  881loPI    C114081   0.581  15.714   5.111 -0.0522  0.1298  0.2995
  881loPI    C214082   0.234  15.725   4.912  0.1257 -0.1729 -0.0399
  881loPI    C314083   0.573  15.830   4.729  0.2088  0.2067  0.3161
  881loPI   PO414084   0.536  15.567   5.331 -0.4326  0.1629  0.2925
  881loPI   GL114085   0.435  15.675   5.717  0.1538 -0.1824  0.0310
  881loPI   GL214086   0.784  15.725   5.770 -0.0675 -0.0350 -0.2856
  881loPI   C1A14087   0.344  15.786   6.131  0.0269 -0.1719  0.4792
  881loPI   C2A14088   0.381  15.730   6.568 -0.2739 -0.0377 -0.1547
  881loPI   C3A14089   0.363  15.636   6.971  0.1238 -0.2855 -0.0150
  881loPI   C4A14090   0.356  15.676   7.416  0.0792 -0.0133  0.2160
  881loPI   C5A14091   0.452  15.708   7.866 -0.1678 -0.2147 -0.1407
  881loPI   C6A14092   0.817  15.551   8.034  0.0991 -0.1196  0.2237
  881loPI   C1B14093   0.831  15.722   6.269 -0.1522 -0.3719 -0.0046
  881loPI   C2B14094   0.900  15.763   6.685 -0.1844  0.4356  0.2077
  881loPI   C3B14095   0.857  15.748   7.097  0.3566  0.0453  0.0729
  881loPI   C4B14096   0.840  15.613   7.502 -0.1192  0.0570  0.0619
  882loPI    C114097   1.960  16.640   5.130 -0.0923  0.2241  0.1919
  882loPI    C214098   2.031  16.800   4.770  0.0778  0.0536  0.1481
  882loPI    C314099   1.771  16.975   5.019 -0.1301  0.1081 -0.1031
  882loPI   PO414100   2.196  16.465   5.165 -0.0169 -0.2960 -0.0423
  882loPI   GL114101   2.461  16.421   5.518  0.1554 -0.2250 -0.0516
  882loPI   GL214102   2.349  16.688   5.647 -0.0042 -0.0686  0.1358
  882loPI   C1A14103   2.627  16.358   5.953 -0.3687  0.0353 -0.2359
  882loPI   C2A14104   2.580  16.465   6.417 -0.2906 -0.2091  0.0596
  882loPI   C3A14105   2.625  16.420   6.872  0.3944 -0.0717 -0.0637
  882loPI   C4A14106   2.656  16.342   7.232  0.0695 -0.0305 -0.2798
  882loPI   C5A14107   2.580  16.348   7.654  0.2502 -0.3385 -0.3845
  882loPI   C6A14108   2.784  16.515   8.027  0.2245 -0.0941 -0.3914
  882loPI   C1B14109   2.351  16.764   6.054  0.4360 -0.0420 -0.1753
  882loPI   C2B14110   2.280  16.823   6.496 -0.1886  0.0183  0.3582
  882loPI   C3B14111   2.262  16.848   6.924  0.2882  0.0141 -0.0856
  882loPI   C4B14112   2.355  16.727   7.334  0.1311  0.1497  0.0636
  883loPI    C114113  17.917  10.109   5.574  0.0522  0.1062  0.0753
  883loPI    C214114  18.257   9.922   5.477 -0.0106  0.1258 -0.1889
  883loPI    C314115  18.020   9.772   5.762  0.0561 -0.0693 -0.2345
  883loPI   PO414116  17.965  10.290   5.701  0.3339  0.1482  0.4834
  883loPI   GL114117  18.139  10.303   6.133 -0.0135  0.1045 -0.2946
  883loPI   GL214118  18.359  10.231   6.024  0.3856  0.1080  0.1247
  883loPI   C1A14119  18.114  10.278   6.552  0.0841 -0.0633  0.2565
  883loPI   C2A14120  18.121  10.241   7.024 -0.0333 -0.0069  0.0432
  883loPI   C3A14121  18.063  10.235   7.414 -0.1069  0.1497  0.1204
  883loPI   C4A14122  18.157  10.108   7.914  0.1177 -0.1594  0.1954
  883loPI   C5A14123  18.008  10.255   8.277  0.1398  0.1408 -0.0622
  883loPI   C6A14124  18.131  10.304   8.618 -0.0749 -0.1517  0.0305
  883loPI   C1B14125  18.648  10.309   6.317 -0.1515  0.2947  0.1704
  883loPI   C2B14126  18.742  10.308   6.805  0.1063 -0.1721 -0.4218
  883loPI   C3B14127  18.586  10.210   7.228  0.0128 -0.1653  0.1126
  883loPI   C4B14128  18.619  10.297   7.709  0.0816 -0.2235  0.3043
  884loPI    C114129   1.244  15.168   5.025 -0.0463  0.1555  0.1204
  884loPI    C214130   0.870  15.250   5.139 -0.1032 -0.1692  0.1776
  884loPI    C314131   0.938  15.080   4.784  0.0018 -0.0007  0.1154
  884loPI   PO414132   1.369  15.377   5.199  0.1066  0.1656 -0.0518
  884loPI   GL114133   1.255  15.406   5.627  0.1753 -0.2244  0.0472
  884loPI   GL214134   1.330  15.666   5.760 -0.1998 -0.1880 -0.0720
  884loPI   C1A14135   1.100  15.297   5.970 -0.1969  0.1218  0.1310
  884loPI   C2A14136   1.168  15.339   6.395 -0.0802 -0.3002  0.1812
  884loPI   C3A14137   1.218  15.373   6.829  0.3821  0.0823  0.0466
  884loPI   C4A14138   1.235  15.311   7.199 -0.0489 -0.2175  0.0098
  884loPI   C5A14139   1.322  15.239   7.610  0.0611  0.0190  0.2657
  884loPI   C6A14140   1.304  15.550   7.810 -0.1706  0.0534  0.0436
  884loPI   C1B14141   1.413  15.771   6.206 -0.0226 -0.3773 -0.1804
  884loPI   C2B14142   1.401  15.798   6.641 -0.4438  0.1278  0.0422
  884loPI   C3B14143   1.406  15.794   7.036 -0.1129  0.1681 -0.0345
  884loPI   C4B14144   1.306  15.744   7.385 -0.2096  0.3373  0.2557
  885loPI    C114145  16.789   5.367   5.038 -0.1191  0.0705  0.0555
  885loPI    C214146  17.082   5.342   4.766  0.0547  0.1981  0.2279
  885loPI    C314147  16.874   5.681   4.806 -0.0025  0.1638  0.2225
  885loPI   PO414148  16.877   5.226   5.285  0.2915  0.0124 -0.0450
  885loPI   GL114149  16.871   5.110   5.694 -0.0355  0.1766  0.2340
  885loPI   GL214150  16.734   4.874   5.797 -0.3035 -0.2670  0.0135
  885loPI   C1A14151  17.100   5.389   6.024  0.1488  0.0082  0.1397
  885loPI   C2A14152  17.232   5.442   6.451 -0.0580  0.2820 -0.0599
  885loPI   C3A14153  17.275   5.475   6.929 -0.0292  0.1729 -0.3620
  885loPI   C4A14154  17.298   5.376   7.312  0.0055  0.2966 -0.0190
  885loPI   C5A14155  17.523   5.321   7.658  0.1086 -0.1329  0.1909
  885loPI   C6A14156  17.769   5.389   8.007 -0.1830  0.0099  0.1952
  885loPI   C1B14157  16.999   4.937   6.139  0.0161 -0.2339 -0.3622
  885loPI   C2B14158  17.079   4.951   6.611 -0.0906  0.3795  0.2768
  885loPI   C3B14159  17.091   4.935   6.999  0.0638 -0.1156 -0.1338
  885loPI   C4B14160  17.054   4.973   7.477 -0.1088 -0.0554 -0.0300
  886loPI    C114161   9.107   5.087   4.903 -0.0452 -0.1606  0.0549
  886loPI    C214162   8.759   4.891   4.878 -0.1452  0.0524 -0.2877
  886loPI    C314163   8.942   5.018   4.545  0.1372  0.1590 -0.0955
  886loPI   PO414164   9.179   5.059   5.078 -0.1644 -0.0763  0.0495
  886loPI   GL114165   9.227   5.109   5.433 -0.0579  0.1207  0.1311
  886loPI   GL214166   9.500   5.097   5.477 -0.1352 -0.0120 -0.1305
  886loPI   C1A14167   9.126   5.094   5.839 -0.0891  0.2462  0.1280
  886loPI   C2A14168   9.301   5.034   6.211 -0.1576  0.1094  0.0072
  886loPI   C3A14169   9.256   5.073   6.617 -0.0033  0.3669 -0.1026
  886loPI   C4A14170   9.302   5.109   7.001 -0.0214 -0.1078 -0.0322
  886loPI   C5A14171   9.375   5.011   7.413  0.2607  0.0118 -0.3218
  886loPI   C6A14172   9.093   5.001   7.873  0.1315  0.3534  0.2766
  886loPI   C1B14173   9.619   5.232   5.889  0.0375  0.1166  0.0089
  886loPI   C2B14174   9.696   5.384   6.270  0.0007 -0.1657  0.0548
  886loPI   C3B14175   9.679   5.450   6.659  0.1075 -0.0431 -0.0041
  886loPI   C4B14176   9.647   5.426   7.114 -0.3172 -0.0838 -0.0402
  887loPI    C114177  10.327  17.906   4.923  0.0177  0.1887  0.3267
  887loPI    C214178  10.006  18.082   4.762 -0.0007  0.0158  0.1718
  887loPI    C314179  10.067  17.690   4.710  0.0316 -0.0298  0.5264
  887loPI   PO414180  10.355  18.066   5.162  0.0489  0.0303 -0.1950
  887loPI   GL114181  10.442  18.095   5.589 -0.2685  0.1595 -0.1141
  887loPI   GL214182  10.483  18.373   5.632  0.1337  0.0033  0.2470
  887loPI   C1A14183  10.097  17.966   5.933 -0.0388  0.0938  0.0058
  887loPI   C2A14184  10.098  18.043   6.318  0.1872 -0.1852 -0.1810
  887loPI   C3A14185  10.096  18.139   6.690  0.3534 -0.3090  0.1483
  887loPI   C4A14186   9.949  18.101   7.109  0.0003  0.4385  0.0058
  887loPI   C5A14187   9.645  18.003   7.429 -0.0293 -0.3018 -0.0962
  887loPI   C6A14188   9.513  17.888   7.889 -0.0390 -0.1365  0.0052
  887loPI   C1B14189  10.539  18.313   6.020  0.2525  0.0098  0.1978
  887loPI   C2B14190  10.563  18.254   6.489  0.0045 -0.1164 -0.0506
  887loPI   C3B14191  10.553  18.295   6.895 -0.1722  0.0114 -0.1300
  887loPI   C4B14192  10.403  18.171   7.363  0.1296 -0.1582  0.2066
  888loPI    C114193   2.755   0.106   4.745 -0.2098  0.3585  0.2229
  888loPI    C214194   3.072   0.311   4.611  0.0491 -0.2905 -0.2092
  888loPI    C314195   2.727   0.320   4.408 -0.0355 -0.0499 -0.0593
  888loPI   PO414196   2.675   0.200   5.022 -0.1997 -0.3209 -0.0742
  888loPI   GL114197   2.892   0.268   5.434 -0.1616  0.4603  0.0647
  888loPI   GL214198   2.730   0.266   5.701  0.0034 -0.1728  0.0999
  888loPI   C1A14199   3.225   0.290   5.819 -0.0386  0.1507  0.1891
  888loPI   C2A14200   3.186   0.183   6.333  0.0060 -0.3545 -0.1499
  888loPI   C3A14201   3.332   0.231   6.827 -0.1376 -0.1020  0.1748
  888loPI   C4A14202   3.341   0.321   7.294  0.0398 -0.2033 -0.0608
  888loPI   C5A14203   3.327   0.332   7.721 -0.1965  0.0956  0.2411
  888loPI   C6A14204   3.333   0.191   8.074 -0.0868 -0.1691  0.0351
  888loPI   C1B14205   2.713   0.209   6.111  0.1282 -0.1717  0.1258
  888loPI   C2B14206   2.686   0.158   6.557  0.0483  0.0382 -0.0453
  888loPI   C3B14207   2.742   0.160   6.901  0.1292 -0.2814 -0.0034
  888loPI   C4B14208   2.812   0.245   7.323  0.3814  0.1003  0.0722
  889loPI    C114209  18.069   1.951   5.273 -0.0129 -0.1226 -0.0714
  889loPI    C214210  18.434   2.037   5.132  0.1382 -0.5688  0.0323
  889loPI    C314211  18.202   1.774   4.940 -0.3095  0.0239 -0.2723
  889loPI   PO414212  17.999   2.169   5.403 -0.2051 -0.2483  0.0331
  889loPI   GL114213  18.229   2.239   5.685  0.2522  0.0518 -0.1134
  889loPI   GL214214  18.323   2.476   5.768  0.2726 -0.1615 -0.2265
  889loPI   C1A14215  18.184   1.813   5.955 -0.0072  0.0035 -0.0074
  889loPI   C2A14216  18.314   1.856   6.304 -0.1929 -0.1618 -0.4719
  889loPI   C3A14217  18.381   1.861   6.848  0.2276  0.0187  0.1731
  889loPI   C4A14218  18.411   1.800   7.246 -0.0222  0.0700  0.3808
  889loPI   C5A14219  18.568   1.752   7.629 -0.0696  0.2071 -0.1096
  889loPI   C6A14220  18.880   1.624   7.807  0.2008  0.0810  0.1671
  889loPI   C1B14221  18.406   2.415   6.199 -0.1452  0.0011 -0.2698
  889loPI   C2B14222  18.646   2.151   6.511  0.0289  0.1624 -0.0632
  889loPI   C3B14223  18.704   1.698   6.566 -0.0580 -0.0940  0.0342
  889loPI   C4B14224  18.648   1.410   6.879  0.0335 -0.0311  0.1064
  890loPI    C114225  10.493   8.836   5.065 -0.0352  0.1546  0.0449
  890loPI    C214226  10.554   8.859   5.459 -0.0662 -0.2701  0.0797
  890loPI    C314227  10.854   8.755   5.216  0.0284  0.2652 -0.0464
  890loPI   PO414228  10.252   8.702   5.064  0.1669 -0.0491  0.1971
  890loPI   GL114229  10.126   8.609   5.598 -0.0170  0.0614  0.2350
  890loPI   GL214230   9.802   8.320   5.622 -0.0638 -0.2250  0.0406
  890loPI   C1A14231   9.902   8.713   5.890 -0.1029 -0.0631  0.0460
  890loPI   C2A14232   9.582   8.881   6.112  0.0480 -0.0076 -0.1664
  890loPI   C3A14233   9.476   8.993   6.578  0.0137 -0.2525  0.1553
  890loPI   C4A14234   9.448   8.831   6.952 -0.2082 -0.2660  0.1055
  890loPI   C5A14235   9.288   8.738   7.392 -0.0050 -0.0094 -0.0935
  890loPI   C6A14236   9.120   8.846   7.747  0.1498 -0.2790  0.0383
  890loPI   C1B14237   9.970   8.147   6.049 -0.0069 -0.0707 -0.0560
  890loPI   C2B14238   9.985   8.102   6.546  0.0903  0.0802 -0.0112
  890loPI   C3B14239   9.965   8.083   6.994 -0.1208 -0.1098 -0.0466
  890loPI   C4B14240   9.986   8.141   7.456  0.2066 -0.0367  0.0835
  891loPI    C114241  16.956  13.452   4.848  0.3036 -0.1080 -0.2017
  891loPI    C214242  17.212  13.740   4.741  0.1732  0.1511  0.1623
  891loPI    C314243  16.818  13.809   4.731  0.1223 -0.1559 -0.1368
  891loPI   PO414244  17.069  13.378   5.063  0.2835 -0.1733 -0.0080
  891loPI   GL114245  17.031  13.482   5.562 -0.1637  0.2760  0.0960
  891loPI   GL214246  17.307  13.737   5.720 -0.0897 -0.2571  0.0990
  891loPI   C1A14247  17.052  13.261   5.992  0.2533 -0.2326 -0.0835
  891loPI   C2A14248  17.095  13.254   6.368 -0.0076  0.1012 -0.1882
  891loPI   C3A14249  17.110  13.237   6.800  0.1236  0.0103  0.2124
  891loPI   C4A14250  17.106  13.413   7.304 -0.2048  0.1610  0.1074
  891loPI   C5A14251  17.252  13.309   7.745 -0.1934  0.0974  0.0635
  891loPI   C6A14252  16.966  13.174   8.061  0.0503 -0.3005 -0.1210
  891loPI   C1B14253  17.291  13.759   6.194  0.5132 -0.2367  0.0828
  891loPI   C2B14254  17.353  13.675   6.615 -0.0150 -0.1183  0.0659
  891loPI   C3B14255  17.319  13.785   7.020  0.0048  0.3267 -0.1737
  891loPI   C4B14256  17.420  13.812   7.418  0.1376  0.0229 -0.1304
  892loPI    C114257  18.245  15.383   4.761 -0.0402 -0.1756 -0.0312
  892loPI    C214258  17.985  15.222   4.504 -0.1171  0.1322 -0.1505
  892loPI    C314259  18.340  15.049   4.563 -0.2291 -0.1240 -0.2124
  892loPI   PO414260  18.082  15.450   4.972  0.5192 -0.0069  0.0200
  892loPI   GL114261  17.974  15.277   5.370 -0.0095  0.1423  0.0742
  892loPI   GL214262  17.800  15.482   5.439  0.0397 -0.2082  0.0984
  892loPI   C1A14263  18.317  15.376   5.648 -0.0378  0.0493 -0.0783
  892loPI   C2A14264  18.454  15.141   5.997 -0.2006 -0.1740 -0.3073
  892loPI   C3A14265  18.447  15.306   6.430  0.1261  0.1344  0.0219
  892loPI   C4A14266  18.495  15.172   6.908 -0.3234 -0.0843  0.0288
  892loPI   C5A14267  18.449  15.226   7.263  0.1390 -0.0726 -0.1813
  892loPI   C6A14268  18.306  15.326   7.673 -0.1038 -0.1766 -0.0822
  892loPI   C1B14269  17.804  15.415   5.861  0.0074  0.0893  0.3398
  892loPI   C2B14270  17.667  15.736   6.210  0.0357  0.1068 -0.0320
  892loPI   C3B14271  17.759  15.692   6.616 -0.3379  0.0461  0.1462
  892loPI   C4B14272  17.687  15.621   7.126 -0.0444 -0.0448  0.1131
  893loPI    C114273   3.249   1.032   4.868  0.1479  0.3328  0.3595
  893loPI    C214274   3.022   1.316   4.701 -0.1849 -0.2440 -0.2200
  893loPI    C314275   3.351   1.186   4.513  0.0191 -0.1827  0.0871
  893loPI   PO414276   3.202   1.046   5.099 -0.1630  0.1744  0.2675
  893loPI   GL114277   3.020   0.827   5.477 -0.1199 -0.1701  0.0829
  893loPI   GL214278   3.195   1.179   5.575  0.1393 -0.1668 -0.0851
  893loPI   C1A14279   2.972   0.687   5.876  0.0641  0.2584 -0.2215
  893loPI   C2A14280   3.003   0.688   6.404 -0.0924  0.3170  0.0039
  893loPI   C3A14281   2.930   0.678   6.804  0.1856  0.1481  0.0152
  893loPI   C4A14282   2.949   0.693   7.237 -0.0403 -0.1846  0.1419
  893loPI   C5A14283   2.585   0.614   7.507  0.1504  0.3873 -0.0239
  893loPI   C6A14284   2.132   0.626   7.601 -0.3817 -0.2128  0.1341
  893loPI   C1B14285   3.260   1.086   6.068  0.2308 -0.1705  0.1931
  893loPI   C2B14286   3.259   1.082   6.440  0.2785 -0.1997  0.1893
  893loPI   C3B14287   3.165   1.213   6.865 -0.0477 -0.1528  0.1936
  893loPI   C4B14288   3.247   1.141   7.256  0.2666  0.2710  0.0523
  894loPI    C114289   4.273   6.330   5.166 -0.1953  0.2181 -0.1232
  894loPI    C214290   4.134   6.304   4.792 -0.0302  0.1520 -0.1809
  894loPI    C314291   4.527   6.286   4.861 -0.0716 -0.0437  0.0145
  894loPI   PO414292   4.047   6.120   5.216 -0.3079 -0.1717 -0.0327
  894loPI   GL114293   3.825   6.092   5.579  0.0594  0.1975  0.0716
  894loPI   GL214294   3.789   6.430   5.567 -0.0738 -0.1139 -0.0806
  894loPI   C1A14295   3.751   5.905   6.002 -0.0965  0.0872  0.1341
  894loPI   C2A14296   3.844   5.782   6.428 -0.1924  0.2525 -0.0894
  894loPI   C3A14297   3.803   5.841   6.883 -0.0251 -0.3597  0.0601
  894loPI   C4A14298   3.858   5.756   7.270 -0.1526  0.1157  0.2368
  894loPI   C5A14299   4.030   5.782   7.629  0.2798  0.0529  0.1086
  894loPI   C6A14300   4.462   5.802   7.637  0.0104  0.0449  0.1762
  894loPI   C1B14301   3.651   6.398   5.981  0.0814 -0.0598  0.1699
  894loPI   C2B14302   3.494   6.215   6.372  0.0028 -0.4354 -0.1400
  894loPI   C3B14303   3.462   6.244   6.831  0.0094 -0.2721  0.0763
  894loPI   C4B14304   3.549   6.164   7.275 -0.1954  0.2480  0.0108
  895loPI    C114305   0.368  10.090   5.077  0.2239  0.0711  0.0146
  895loPI    C214306   0.522  10.342   4.807  0.2243 -0.1462 -0.1903
  895loPI    C314307   0.181  10.148   4.728  0.0564  0.0260  0.0958
  895loPI   PO414308   0.376  10.113   5.331 -0.0570  0.0896  0.0212
  895loPI   GL114309   0.394  10.042   5.733 -0.4045 -0.0947 -0.0245
  895loPI   GL214310   0.511  10.321   5.764  0.1775  0.0467  0.2523
  895loPI   C1A14311   0.630   9.840   6.008  0.0218 -0.2886 -0.3339
  895loPI   C2A14312   0.556   9.862   6.385  0.3952 -0.0302 -0.1715
  895loPI   C3A14313   0.658   9.854   6.756 -0.1412 -0.0262  0.1437
  895loPI   C4A14314   0.634   9.902   7.211 -0.0242 -0.1784 -0.1316
  895loPI   C5A14315   0.595   9.918   7.591 -0.5679  0.0537 -0.2049
  895loPI   C6A14316   0.850   9.791   7.969  0.0218  0.2037  0.1416
  895loPI   C1B14317   0.777  10.335   6.004  0.1024  0.0137 -0.2043
  895loPI   C2B14318   0.867  10.286   6.414 -0.2639 -0.1119  0.0553
  895loPI   C3B14319   0.881  10.403   6.847  0.0432 -0.1680  0.1048
  895loPI   C4B14320   0.807  10.313   7.296 -0.2898  0.0468 -0.0375
  896loPI    C114321   5.436  17.622   4.631 -0.3128  0.0103 -0.2657
  896loPI    C214322   5.761  17.845   4.699 -0.2877 -0.1481  0.1614
  896loPI    C314323   5.717  17.659   4.348 -0.0711  0.1256 -0.0153
  896loPI   PO414324   5.415  17.450   4.820 -0.0671 -0.1064 -0.1180
  896loPI   GL114325   5.567  17.119   5.075  0.1024 -0.0694  0.0215
  896loPI   GL214326   5.397  16.980   5.185 -0.3207  0.0206 -0.0633
  896loPI   C1A14327   5.641  17.407   5.428  0.0308 -0.0141 -0.0688
  896loPI   C2A14328   5.729  17.478   5.885 -0.2674  0.0501  0.2087
  896loPI   C3A14329   5.602  17.489   6.221 -0.0544  0.1093 -0.1058
  896loPI   C4A14330   5.658  17.517   6.630 -0.2781  0.0630 -0.2196
  896loPI   C5A14331   5.501  17.583   7.085 -0.2459 -0.1059  0.3025
  896loPI   C6A14332   5.443  17.970   7.288  0.1430  0.0075  0.1241
  896loPI   C1B14333   5.477  16.936   5.608  0.1852  0.0476  0.2649
  896loPI   C2B14334   5.437  17.062   5.934 -0.0063 -0.2402  0.2490
  896loPI   C3B14335   5.383  17.088   6.326 -0.2069  0.1686 -0.0716
  896loPI   C4B14336   5.424  16.990   6.773 -0.1791  0.0487  0.1316
  897loPI    C114337  12.629   8.179   5.318 -0.0671  0.1228 -0.1334
  897loPI    C214338  12.777   7.864   5.120 -0.3282  0.1122 -0.3175
  897loPI    C314339  12.980   8.209   5.130 -0.0587 -0.0479 -0.1465
  897loPI   PO414340  12.598   8.083   5.542 -0.1164  0.0235  0.1371
  897loPI   GL114341  12.625   8.158   6.026  0.0896  0.3496 -0.1447
  897loPI   GL214342  12.787   7.947   5.974  0.1109  0.0480 -0.0784
  897loPI   C1A14343  12.493   8.209   6.451  0.2228  0.2541  0.0644
  897loPI   C2A14344  12.080   8.322   6.515 -0.0342  0.0011  0.1487
  897loPI   C3A14345  11.725   8.485   6.877 -0.0332  0.0520  0.0771
  897loPI   C4A14346  11.691   8.427   7.321  0.1510 -0.2953  0.1411
  897loPI   C5A14347  11.455   8.232   7.722 -0.0340  0.1132 -0.1936
  897loPI   C6A14348  11.362   8.085   8.135 -0.1646 -0.0573  0.1469
  897loPI   C1B14349  12.940   7.974   6.523 -0.0387 -0.1333  0.0168
  897loPI   C2B14350  13.197   7.818   6.827  0.1570  0.2784 -0.0853
  897loPI   C3B14351  13.518   7.800   7.130 -0.1351 -0.0776 -0.0980
  897loPI   C4B14352  13.795   7.887   7.240 -0.1424 -0.3415 -0.0569
  898loPI    C114353   4.493   1.699   4.731  0.1968 -0.2025  0.0755
  898loPI    C214354   4.590   1.334   4.600 -0.0957 -0.2013 -0.1564
  898loPI    C314355   4.229   1.486   4.518  0.0040  0.1195 -0.0156
  898loPI   PO414356   4.548   1.628   4.987 -0.1713 -0.1961 -0.1791
  898loPI   GL114357   4.601   1.536   5.372  0.0024 -0.1149 -0.0729
  898loPI   GL214358   4.464   1.776   5.452  0.1099 -0.0696  0.0710
  898loPI   C1A14359   4.692   1.331   5.738 -0.3866  0.2094 -0.2785
  898loPI   C2A14360   4.703   1.254   6.120 -0.1525  0.0469  0.2006
  898loPI   C3A14361   4.783   1.330   6.630 -0.1027  0.2161 -0.1170
  898loPI   C4A14362   4.747   1.368   7.096  0.0943 -0.4171  0.1165
  898loPI   C5A14363   4.681   1.339   7.512 -0.0016  0.0260 -0.1475
  898loPI   C6A14364   4.337   1.507   7.636  0.1645  0.2302 -0.1627
  898loPI   C1B14365   4.401   1.708   5.926  0.1339  0.2056 -0.0546
  898loPI   C2B14366   4.457   1.764   6.374  0.0237  0.2190  0.2858
  898loPI   C3B14367   4.538   1.693   6.781 -0.0059  0.2348  0.1405
  898loPI   C4B14368   4.500   1.868   7.252  0.2304 -0.1541  0.1395
  899loPI    C114369  14.144  17.208   4.902 -0.0760 -0.2548 -0.1190
  899loPI    C214370  13.966  17.441   4.631 -0.1738 -0.2185 -0.0240
  899loPI    C314371  14.234  17.168   4.515  0.2211  0.1912 -0.1042
  899loPI   PO414372  14.071  17.455   5.141  0.2908  0.3511  0.2917
  899loPI   GL114373  13.926  17.562   5.504  0.0971  0.1020  0.1337
  899loPI   GL214374  14.328  17.501   5.575 -0.0277  0.0920  0.0816
  899loPI   C1A14375  13.777  17.415   5.933  0.1265  0.0045 -0.1629
  899loPI   C2A14376  13.733  17.469   6.272 -0.0157  0.3147 -0.0730
  899loPI   C3A14377  13.668  17.452   6.593  0.1032 -0.1245 -0.0784
  899loPI   C4A14378  13.759  17.414   6.968 -0.1026 -0.0191 -0.0412
  899loPI   C5A14379  13.666  17.405   7.424  0.0507  0.3257 -0.0954
  899loPI   C6A14380  13.816  17.501   7.849 -0.0731  0.0725 -0.0105
  899loPI   C1B14381  14.234  17.546   6.004 -0.0121 -0.1670 -0.0604
  899loPI   C2B14382  14.189  17.513   6.500 -0.1017  0.0432  0.1068
  899loPI   C3B14383  14.239  17.454   6.909  0.1142 -0.0603 -0.2230
  899loPI   C4B14384  14.207  17.482   7.364  0.0723 -0.0102 -0.0716
  900loPI    C114385   6.578  17.695   4.823 -0.1730  0.1600 -0.0309
  900loPI    C214386   6.906  17.786   4.613  0.0246 -0.1376  0.1409
  900loPI    C314387   6.558  17.723   4.425  0.0953  0.0447 -0.0544
  900loPI   PO414388   6.565  17.491   4.946 -0.0003  0.0062 -0.1489
  900loPI   GL114389   6.359  17.392   5.305  0.0351  0.0160  0.1021
  900loPI   GL214390   6.625  17.418   5.488  0.0176 -0.3347  0.1673
  900loPI   C1A14391   6.204  17.507   5.745  0.0933 -0.0622  0.1829
  900loPI   C2A14392   6.171  17.493   6.140  0.0916  0.0754  0.0877
  900loPI   C3A14393   6.161  17.614   6.628 -0.3641 -0.1443 -0.2011
  900loPI   C4A14394   6.128  17.623   7.093  0.0931 -0.0309  0.2333
  900loPI   C5A14395   6.182  17.524   7.452  0.0972 -0.0697 -0.4918
  900loPI   C6A14396   6.427  17.390   7.788  0.0760  0.0549 -0.1841
  900loPI   C1B14397   6.727  17.515   5.933 -0.0134  0.1404 -0.0586
  900loPI   C2B14398   6.649  17.520   6.317 -0.1146 -0.5070  0.1838
  900loPI   C3B14399   6.668  17.534   6.737  0.0575  0.0120 -0.1377
  900loPI   C4B14400   6.647  17.557   7.218  0.0494 -0.0881  0.2830
  901loPI    C114401   3.781  14.104   4.959 -0.0212  0.1264 -0.0340
  901loPI    C214402   4.116  14.050   4.747 -0.0492 -0.0913 -0.0245
  901loPI    C314403   3.832  13.769   4.747 -0.1052 -0.0369  0.2005
  901loPI   PO414404   3.891  14.204   5.160  0.1131  0.0284 -0.1987
  901loPI   GL114405   3.720  14.153   5.571 -0.0675  0.2084 -0.2111
  901loPI   GL214406   3.908  13.935   5.622  0.0687  0.1620 -0.1155
  901loPI   C1A14407   3.475  14.130   5.899  0.1233 -0.1937 -0.0271
  901loPI   C2A14408   3.579  14.233   6.363  0.0898  0.1240 -0.3646
  901loPI   C3A14409   3.521  14.281   6.865  0.1620 -0.2200 -0.3382
  901loPI   C4A14410   3.483  14.302   7.294  0.0826 -0.1160  0.0028
  901loPI   C5A14411   3.213  14.295   7.636 -0.1018  0.1217  0.3702
  901loPI   C6A14412   2.854  14.397   8.000  0.0131 -0.0696 -0.1203
  901loPI   C1B14413   3.895  13.921   6.098  0.2279  0.0900 -0.2143
  901loPI   C2B14414   3.919  13.819   6.410  0.1079  0.0858 -0.0991
  901loPI   C3B14415   3.886  13.836   6.819 -0.1831 -0.1076  0.1180
  901loPI   C4B14416   3.909  13.973   7.299  0.0535 -0.0389 -0.2869
  902loPI    C114417   6.849   9.331   5.150  0.2060 -0.0135 -0.1052
  902loPI    C214418   6.693   9.140   4.834  0.1936 -0.0168 -0.0972
  902loPI    C314419   7.054   9.312   4.807  0.0466  0.2795 -0.2205
  902loPI   PO414420   6.689   9.539   5.257  0.0171 -0.2541 -0.1097
  902loPI   GL114421   6.681   9.529   5.677 -0.1933 -0.0899 -0.0531
  902loPI   GL214422   7.018   9.456   5.752 -0.3298  0.1935 -0.0351
  902loPI   C1A14423   6.662   9.589   6.082  0.2157  0.0597 -0.2407
  902loPI   C2A14424   6.815   9.482   6.489  0.0853  0.1108  0.2071
  902loPI   C3A14425   6.625   9.401   6.910  0.0626  0.1253 -0.1260
  902loPI   C4A14426   6.468   9.407   7.344 -0.0100 -0.0920  0.0498
  902loPI   C5A14427   6.649   9.190   7.688 -0.0901  0.2973  0.0427
  902loPI   C6A14428   6.887   8.861   7.683 -0.0033 -0.2745 -0.1128
  902loPI   C1B14429   7.070   9.309   6.086  0.2157  0.1797 -0.0387
  902loPI   C2B14430   7.197   9.177   6.462 -0.0329  0.3838  0.3518
  902loPI   C3B14431   7.140   9.165   6.930  0.1138  0.2397  0.2101
  902loPI   C4B14432   6.975   9.251   7.322  0.0517  0.2146 -0.0586
  903loPI    C114433   3.669  16.086   4.601 -0.0913  0.1853  0.1518
  903loPI    C214434   3.318  16.207   4.453 -0.0367  0.0665 -0.0815
  903loPI    C314435   3.658  16.370   4.320  0.0137 -0.0424 -0.0875
  903loPI   PO414436   3.589  15.946   4.807 -0.2826 -0.2216  0.0080
  903loPI   GL114437   3.543  15.983   5.253  0.1309 -0.2379 -0.1441
  903loPI   GL214438   3.246  16.059   5.405  0.4384 -0.0373 -0.0350
  903loPI   C1A14439   3.513  16.015   5.779  0.0551  0.4624 -0.0497
  903loPI   C2A14440   3.420  16.005   6.200 -0.4466  0.0553  0.1884
  903loPI   C3A14441   3.382  16.008   6.531  0.2094  0.0038  0.0971
  903loPI   C4A14442   3.327  15.956   6.905  0.0010 -0.2162 -0.0360
  903loPI   C5A14443   3.421  16.118   7.332  0.0367  0.2039  0.0414
  903loPI   C6A14444   3.487  16.076   7.842  0.0503  0.0655  0.0276
  903loPI   C1B14445   3.227  16.404   5.773 -0.3677  0.0197 -0.0447
  903loPI   C2B14446   3.106  16.398   6.162 -0.0039  0.0243 -0.0883
  903loPI   C3B14447   3.068  16.412   6.631  0.2768  0.0334  0.0047
  903loPI   C4B14448   3.117  16.406   7.032 -0.0762  0.2749 -0.1009
  904loPI    C114449  10.552  16.615   5.108 -0.1041  0.2043  0.1198
  904loPI    C214450  10.409  16.892   4.857 -0.1892  0.0617  0.0094
  904loPI    C314451  10.710  16.654   4.743 -0.1675  0.0571  0.0758
  904loPI   PO414452  10.407  16.616   5.343 -0.0607 -0.1881  0.1880
  904loPI   GL114453  10.443  16.525   5.721 -0.0093  0.0293 -0.0389
  904loPI   GL214454  10.257  16.293   5.673  0.2857  0.2782  0.3213
  904loPI   C1A14455  10.583  16.694   6.066  0.3599 -0.1678 -0.0824
  904loPI   C2A14456  10.415  16.825   6.469  0.0288 -0.2335  0.1966
  904loPI   C3A14457  10.319  16.902   6.918  0.1429 -0.0528  0.0525
  904loPI   C4A14458  10.179  16.831   7.350 -0.0008  0.0812 -0.2368
  904loPI   C5A14459  10.066  16.856   7.867 -0.0506  0.0279  0.3175
  904loPI   C6A14460   9.885  16.993   8.304 -0.0144 -0.1608 -0.0533
  904loPI   C1B14461  10.189  16.274   6.156  0.2511  0.1995 -0.2402
  904loPI   C2B14462  10.128  16.380   6.542  0.0108  0.1727 -0.0435
  904loPI   C3B14463   9.994  16.410   7.045  0.2975  0.3274  0.0283
  904loPI   C4B14464   9.941  16.378   7.447  0.1534  0.1506 -0.1705
  905loPI    C114465  14.835  14.692   5.305 -0.0140 -0.1978  0.1292
  905loPI    C214466  14.516  14.781   5.530  0.0291 -0.1759  0.1818
  905loPI    C314467  14.557  14.945   5.167  0.0176 -0.1212  0.2051
  905loPI   PO414468  14.900  14.424   5.380  0.1138 -0.0535 -0.3343
  905loPI   GL114469  15.298  14.358   5.764 -0.2232  0.2077  0.0822
  905loPI   GL214470  15.494  14.075   5.871  0.0460  0.3119 -0.2135
  905loPI   C1A14471  15.194  14.492   6.174  0.0677  0.1884  0.2766
  905loPI   C2A14472  15.226  14.521   6.577 -0.0876 -0.3459  0.3280
  905loPI   C3A14473  15.305  14.566   7.018 -0.3404 -0.3233 -0.1268
  905loPI   C4A14474  15.267  14.565   7.410  0.0485 -0.0272 -0.1815
  905loPI   C5A14475  15.220  14.619   7.831 -0.1819 -0.2598 -0.2067
  905loPI   C6A14476  15.446  14.723   8.159  0.0994  0.2014  0.1730
  905loPI   C1B14477  15.899  14.059   6.148 -0.1585 -0.1901  0.1819
  905loPI   C2B14478  16.045  14.179   6.631  0.0975  0.0330  0.0742
  905loPI   C3B14479  15.975  14.143   7.094 -0.1587  0.0837  0.0770
  905loPI   C4B14480  15.974  14.199   7.504  0.0816  0.2287 -0.2442
  906loPI    C114481  13.146   0.872   4.974 -0.1076  0.1729  0.1110
  906loPI    C214482  12.872   1.079   4.769 -0.1323  0.0670  0.0366
  906loPI    C314483  13.201   0.945   4.585 -0.1202  0.0332  0.0825
  906loPI   PO414484  13.202   1.018   5.124 -0.0473 -0.1431 -0.4253
  906loPI   GL114485  13.255   0.891   5.510  0.1169 -0.1092 -0.0898
  906loPI   GL214486  13.025   0.696   5.611  0.2763 -0.2769  0.0906
  906loPI   C1A14487  13.523   0.851   5.849 -0.0205  0.2768 -0.3206
  906loPI   C2A14488  13.436   0.854   6.334  0.3348  0.0119  0.1129
  906loPI   C3A14489  13.458   0.818   6.767 -0.0015  0.1493 -0.0558
  906loPI   C4A14490  13.252   0.863   7.135  0.1064 -0.2182  0.3271
  906loPI   C5A14491  12.875   0.851   7.440 -0.0421 -0.2909  0.2226
  906loPI   C6A14492  12.404   0.712   7.517 -0.0678  0.0824  0.1866
  906loPI   C1B14493  12.948   0.784   6.006  0.0644  0.2670  0.2227
  906loPI   C2B14494  12.948   0.800   6.522 -0.0305 -0.0524  0.1977
  906loPI   C3B14495  12.734   0.649   6.942 -0.0744  0.3427 -0.2174
  906loPI   C4B14496  12.369   0.596   7.052  0.1971 -0.0904 -0.0279
  907loPI    C114497   7.949  15.079   4.938 -0.0804  0.0348  0.0553
  907loPI    C214498   8.329  14.959   4.912 -0.1512 -0.2166  0.1587
  907loPI    C314499   8.114  15.015   4.579  0.0144  0.0569  0.0948
  907loPI   PO414500   7.904  14.941   5.217 -0.0963  0.0042  0.0132
  907loPI   GL114501   7.837  15.075   5.587  0.1660  0.4101  0.3242
  907loPI   GL214502   8.111  15.301   5.640 -0.3037 -0.1160  0.0068
  907loPI   C1A14503   7.649  15.179   5.889  0.1343 -0.0420  0.0365
  907loPI   C2A14504   7.602  15.427   6.139  0.0376  0.0315 -0.2882
  907loPI   C3A14505   7.619  15.404   6.582 -0.1047  0.2485 -0.1909
  907loPI   C4A14506   7.623  15.492   7.042  0.0191 -0.3360 -0.0006
  907loPI   C5A14507   7.814  15.543   7.461  0.0084 -0.1233 -0.1450
  907loPI   C6A14508   7.931  15.386   7.881  0.2334  0.0287 -0.0295
  907loPI   C1B14509   8.148  15.329   6.013 -0.0200 -0.1374 -0.2061
  907loPI   C2B14510   8.123  15.345   6.461  0.1560  0.0575 -0.0514
  907loPI   C3B14511   8.106  15.276   6.926  0.3721 -0.2346 -0.1967
  907loPI   C4B14512   8.166  15.198   7.360  0.0299 -0.1854  0.2031
  908loPI    C114513   7.039   1.281   5.063  0.1667 -0.0453 -0.0987
  908loPI    C214514   6.820   1.163   4.750 -0.0498 -0.1677  0.0963
  908loPI    C314515   7.093   1.452   4.705  0.0432 -0.3037 -0.2430
  908loPI   PO414516   7.210   1.173   5.186 -0.0844 -0.0993 -0.1581
  908loPI   GL114517   7.472   1.041   5.428 -0.1388 -0.2808  0.1644
  908loPI   GL214518   7.237   0.857   5.581  0.3461  0.0732  0.3782
  908loPI   C1A14519   7.605   0.973   5.859  0.3513  0.0459 -0.1785
  908loPI   C2A14520   7.522   1.074   6.289 -0.1672 -0.1098 -0.2208
  908loPI   C3A14521   7.546   1.146   6.721 -0.0186  0.0042 -0.4755
  908loPI   C4A14522   7.531   1.241   7.154 -0.1715 -0.2698  0.0923
  908loPI   C5A14523   7.598   1.332   7.510 -0.1099  0.0473 -0.0440
  908loPI   C6A14524   7.527   1.661   7.741  0.1693  0.1465 -0.1384
  908loPI   C1B14525   7.025   0.949   5.898 -0.0976 -0.0401  0.1516
  908loPI   C2B14526   7.001   0.990   6.350 -0.2085 -0.2033 -0.0710
  908loPI   C3B14527   7.005   1.207   6.769  0.0256 -0.2929 -0.1499
  908loPI   C4B14528   7.074   1.183   7.150 -0.1321 -0.2853 -0.1634
  909loPI    C114529   4.834   7.534   4.962 -0.0379 -0.0610  0.1225
  909loPI    C214530   5.046   7.824   4.787  0.1328 -0.0370  0.3642
  909loPI    C314531   4.692   7.717   4.636  0.3311 -0.1053 -0.0688
  909loPI   PO414532   4.792   7.563   5.219  0.4439 -0.1418 -0.0692
  909loPI   GL114533   4.765   7.887   5.560 -0.1645  0.2377 -0.0746
  909loPI   GL214534   4.502   7.852   5.551  0.3239  0.0547 -0.2626
  909loPI   C1A14535   4.882   7.681   5.923 -0.0315 -0.0250 -0.0249
  909loPI   C2A14536   4.614   7.667   6.306 -0.0772  0.0718 -0.4191
  909loPI   C3A14537   4.413   7.431   6.576 -0.0950 -0.1375  0.0452
  909loPI   C4A14538   4.260   7.220   6.935  0.2457  0.0312 -0.1805
  909loPI   C5A14539   4.519   7.185   7.398  0.0809  0.0500 -0.0094
  909loPI   C6A14540   4.744   7.256   7.844  0.0711 -0.2424 -0.1248
  909loPI   C1B14541   4.396   8.032   5.987  0.0008 -0.0115 -0.0243
  909loPI   C2B14542   4.300   8.039   6.369  0.2408  0.1385 -0.1549
  909loPI   C3B14543   4.241   8.107   6.780 -0.4035 -0.2041  0.2622
  909loPI   C4B14544   4.167   8.109   7.135  0.1361 -0.4016 -0.0759
  910loPI    C114545   5.301  15.368   4.995 -0.0674 -0.1343 -0.1207
  910loPI    C214546   5.449  15.548   4.670  0.0029 -0.1731 -0.1104
  910loPI    C314547   5.212  15.228   4.630  0.0423 -0.2010 -0.1224
  910loPI   PO414548   5.520  15.283   5.100  0.3211  0.1975 -0.1376
  910loPI   GL114549   5.660  15.497   5.395  0.0118  0.0726  0.0581
  910loPI   GL214550   5.829  15.681   5.343  0.2393  0.2491 -0.0302
  910loPI   C1A14551   5.357  15.626   5.704  0.1631 -0.0768 -0.1391
  910loPI   C2A14552   5.348  15.569   6.126 -0.0393  0.1414 -0.1077
  910loPI   C3A14553   5.210  15.680   6.568  0.1364  0.2307 -0.0965
  910loPI   C4A14554   5.232  15.725   7.059 -0.2135  0.2027 -0.1467
  910loPI   C5A14555   4.922  16.015   7.301 -0.1140  0.0355 -0.1127
  910loPI   C6A14556   4.661  16.314   7.466  0.0955 -0.2392 -0.0678
  910loPI   C1B14557   5.867  15.647   5.820 -0.1191 -0.1887 -0.1481
  910loPI   C2B14558   5.826  15.711   6.250  0.1534  0.2264  0.0519
  910loPI   C3B14559   5.736  15.726   6.638  0.0437  0.1980 -0.0276
  910loPI   C4B14560   5.714  15.685   7.026 -0.1673  0.2604 -0.3083
  911loPI    C114561  14.858   8.792   5.753 -0.1042 -0.0410  0.1672
  911loPI    C214562  15.011   8.466   5.579 -0.1709 -0.0017  0.0341
  911loPI    C314563  15.088   8.828   5.428  0.2163  0.0766  0.4019
  911loPI   PO414564  14.771   8.685   6.009  0.0236  0.0851 -0.0114
  911loPI   GL114565  14.772   8.409   6.330  0.1770  0.3075  0.1940
  911loPI   GL214566  14.630   8.156   6.289  0.0734  0.3569  0.1408
  911loPI   C1A14567  14.920   8.608   6.660  0.2119 -0.2089  0.2993
  911loPI   C2A14568  14.826   8.683   7.051 -0.1506 -0.0440 -0.0174
  911loPI   C3A14569  14.945   8.568   7.439 -0.1322  0.1203 -0.2399
  911loPI   C4A14570  15.032   8.524   7.848  0.0300 -0.0666  0.0237
  911loPI   C5A14571  15.415   8.429   8.166 -0.0322  0.2069  0.2489
  911loPI   C6A14572  15.642   8.440   8.475 -0.0941 -0.1053 -0.0967
  911loPI   C1B14573  14.646   8.159   6.768  0.0147 -0.1167  0.0663
  911loPI   C2B14574  14.693   8.234   7.137 -0.0499  0.1237  0.0853
  911loPI   C3B14575  14.763   8.153   7.519 -0.1627 -0.0983  0.0894
  911loPI   C4B14576  14.799   8.007   7.942  0.1716  0.0579 -0.1214
  912loPI    C114577  15.708  14.048   5.099  0.0228  0.0881 -0.1354
  912loPI    C214578  15.764  14.343   4.835 -0.1175  0.0937 -0.1592
  912loPI    C314579  15.917  13.981   4.765 -0.0299  0.1342 -0.1778
  912loPI   PO414580  15.692  14.162   5.355 -0.0802  0.2040 -0.1435
  912loPI   GL114581  15.756  14.507   5.751 -0.1840 -0.1334  0.1583
  912loPI   GL214582  16.085  14.452   5.770 -0.1142 -0.1277  0.2625
  912loPI   C1A14583  15.689  14.482   6.037 -0.0355  0.1828 -0.2462
  912loPI   C2A14584  15.706  14.477   6.462 -0.1522 -0.1023  0.2331
  912loPI   C3A14585  15.783  14.548   6.880 -0.0713  0.4306  0.1288
  912loPI   C4A14586  15.750  14.622   7.265  0.0618 -0.1296  0.0382
  912loPI   C5A14587  15.772  14.674   7.746 -0.0284  0.0795  0.0235
  912loPI   C6A14588  16.089  14.874   7.857 -0.1597  0.2787 -0.1625
  912loPI   C1B14589  16.171  14.484   6.182  0.1364  0.0843  0.1787
  912loPI   C2B14590  16.289  14.577   6.775 -0.0649 -0.0717  0.0044
  912loPI   C3B14591  16.271  14.626   7.147 -0.0989  0.1567  0.1116
  912loPI   C4B14592  16.361  14.501   7.613  0.3588 -0.1693 -0.2685
  913loPI    C114593  10.527   5.064   4.971 -0.1549 -0.1418 -0.3640
  913loPI    C214594  10.886   5.021   4.799 -0.0268 -0.0063 -0.1345
  913loPI    C314595  10.561   5.071   4.572  0.1240  0.0545 -0.3396
  913loPI   PO414596  10.562   5.186   5.165  0.0757  0.0421 -0.2018
  913loPI   GL114597  10.245   5.371   5.496 -0.0724  0.2521  0.1317
  913loPI   GL214598  10.034   5.516   5.493 -0.2151  0.1136  0.0295
  913loPI   C1A14599  10.491   5.451   5.840 -0.0558 -0.1671 -0.1142
  913loPI   C2A14600  10.469   5.570   6.315 -0.3054  0.2256 -0.1599
  913loPI   C3A14601  10.471   5.637   6.834 -0.1976 -0.2033  0.0751
  913loPI   C4A14602  10.536   5.669   7.244 -0.0493  0.3794  0.0611
  913loPI   C5A14603  10.442   5.667   7.660  0.1611 -0.1014 -0.0768
  913loPI   C6A14604  10.538   5.440   8.011 -0.0956  0.2538 -0.0774
  913loPI   C1B14605   9.988   5.682   5.898  0.3929 -0.1840  0.2090
  913loPI   C2B14606  10.029   5.779   6.355  0.1117  0.0170 -0.1174
  913loPI   C3B14607   9.958   5.799   6.839  0.0045  0.1285  0.0353
  913loPI   C4B14608  10.055   5.748   7.283 -0.2054 -0.0609  0.0046
  914loPI    C114609   0.247   7.453   5.437 -0.0833  0.1616  0.0426
  914loPI    C214610   0.201   7.717   5.140  0.0636 -0.0859 -0.2042
  914loPI    C314611  -0.048   7.405   5.171 -0.0714  0.0444  0.0501
  914loPI   PO414612   0.192   7.485   5.669 -0.1302 -0.1724  0.3104
  914loPI   GL114613   0.112   7.503   6.135 -0.1684 -0.2925 -0.0979
  914loPI   GL214614  -0.118   7.741   5.960 -0.0338 -0.0172 -0.0018
  914loPI   C1A14615   0.053   7.540   6.634  0.2984 -0.0344 -0.0970
  914loPI   C2A14616   0.063   7.514   7.065  0.0750 -0.0897  0.1678
  914loPI   C3A14617   0.104   7.669   7.485  0.1654  0.0005 -0.1085
  914loPI   C4A14618   0.137   7.745   7.836  0.0806 -0.2871 -0.0275
  914loPI   C5A14619  -0.113   8.036   8.176 -0.1187  0.1519  0.1574
  914loPI   C6A14620  -0.250   8.078   8.568  0.1884  0.0603  0.0092
  914loPI   C1B14621  -0.243   7.979   6.335 -0.3025  0.2145  0.2288
  914loPI   C2B14622  -0.357   8.050   6.781 -0.2585  0.0316  0.0288
  914loPI   C3B14623  -0.254   8.033   7.162 -0.0557  0.1476 -0.0366
  914loPI   C4B14624  -0.212   8.079   7.619 -0.0237  0.2599  0.2285
  915loPI    C114625   0.345  14.751   4.811 -0.0243 -0.2163  0.0382
  915loPI    C214626   0.549  14.954   4.534  0.1457 -0.1791  0.1889
  915loPI    C314627   0.313  14.650   4.425 -0.0711  0.0628 -0.0331
  915loPI   PO414628   0.403  14.844   5.043 -0.1243 -0.1676  0.2189
  915loPI   GL114629   0.526  15.015   5.429  0.0792 -0.0198  0.0629
  915loPI   GL214630   0.740  15.139   5.618 -0.0325 -0.3222  0.0240
  915loPI   C1A14631   0.429  14.774   5.852 -0.0851  0.0291 -0.1533
  915loPI   C2A14632   0.399  14.811   6.321 -0.0639 -0.0963  0.0717
  915loPI   C3A14633   0.537  14.830   6.679  0.2157  0.2429 -0.0028
  915loPI   C4A14634   0.504  14.840   7.109  0.2483 -0.0463 -0.2193
  915loPI   C5A14635   0.321  14.835   7.520  0.2304 -0.1578  0.0396
  915loPI   C6A14636   0.013  14.818   7.912  0.0029  0.1059  0.0005
  915loPI   C1B14637   0.615  15.314   6.069 -0.1763 -0.0965  0.1001
  915loPI   C2B14638   0.658  15.282   6.454 -0.3243  0.1701 -0.1171
  915loPI   C3B14639   0.711  15.330   6.798  0.3712  0.2490 -0.1458
  915loPI   C4B14640   0.647  15.262   7.175  0.2356 -0.1407 -0.1648
  916loPI    C114641  12.337   9.473   5.494  0.1146  0.1131 -0.1758
  916loPI    C214642  12.273   9.789   5.257 -0.2054  0.1131 -0.0944
  916loPI    C314643  12.456   9.464   5.112 -0.3439  0.1359 -0.3256
  916loPI   PO414644  12.487   9.579   5.722 -0.3954 -0.1253  0.1306
  916loPI   GL114645  12.507   9.545   6.139 -0.0461  0.1500 -0.0931
  916loPI   GL214646  12.516   9.806   6.236 -0.1078 -0.0097  0.2098
  916loPI   C1A14647  12.147   9.416   6.399  0.0938  0.3008  0.0179
  916loPI   C2A14648  12.054   9.412   6.890 -0.4697 -0.2452 -0.5141
  916loPI   C3A14649  11.829   9.422   7.275 -0.0332  0.0822  0.1505
  916loPI   C4A14650  11.474   9.469   7.228 -0.3085  0.2356 -0.0647
  916loPI   C5A14651  11.217   9.722   7.531 -0.0641 -0.2128  0.0413
  916loPI   C6A14652  11.324   9.975   7.940  0.1071 -0.0826 -0.1662
  916loPI   C1B14653  12.444   9.692   6.642 -0.2296 -0.1524  0.2148
  916loPI   C2B14654  12.473   9.660   7.009 -0.0715  0.0718 -0.1252
  916loPI   C3B14655  12.754   9.881   7.369  0.0380 -0.1109 -0.0539
  916loPI   C4B14656  12.805   9.657   7.711  0.1114  0.1353  0.1169
  917loPI    C114657   6.150  17.103   4.831 -0.0241 -0.1548 -0.2092
  917loPI    C214658   5.929  17.398   4.987  0.4174  0.0805 -0.0131
  917loPI    C314659   6.150  17.465   4.660  0.2261 -0.1450 -0.1919
  917loPI   PO414660   5.972  16.854   4.918  0.0520  0.0349  0.0277
  917loPI   GL114661   5.852  16.728   5.288  0.2732  0.0346  0.4974
  917loPI   GL214662   6.021  16.970   5.442 -0.0526  0.4036  0.1278
  917loPI   C1A14663   5.766  16.549   5.694 -0.0852  0.3613  0.0238
  917loPI   C2A14664   5.762  16.640   6.143 -0.0987 -0.1067  0.1046
  917loPI   C3A14665   5.754  16.597   6.653  0.3539 -0.0629  0.1381
  917loPI   C4A14666   5.690  16.703   7.081  0.1055  0.0428  0.1446
  917loPI   C5A14667   5.961  16.672   7.417  0.1515  0.0807 -0.1200
  917loPI   C6A14668   5.934  16.692   7.860  0.0024  0.1570 -0.0384
  917loPI   C1B14669   5.986  17.003   5.913 -0.1628  0.0045  0.0644
  917loPI   C2B14670   5.904  17.113   6.371  0.0768  0.0692 -0.0456
  917loPI   C3B14671   5.942  17.093   6.759  0.2001 -0.1671  0.0475
  917loPI   C4B14672   5.884  17.150   7.228 -0.0499  0.0695  0.0932
  918loPI    C114673   2.773  16.268   5.053 -0.0805  0.1196 -0.3188
  918loPI    C214674   3.116  16.117   4.912 -0.0535  0.0600 -0.1905
  918loPI    C314675   2.795  16.140   4.675  0.0419  0.1259 -0.3144
  918loPI   PO414676   2.940  16.522   5.194  0.1665 -0.0925  0.0028
  918loPI   GL114677   2.930  16.863   5.474  0.3039  0.1164  0.3957
  918loPI   GL214678   3.324  16.885   5.487  0.2335  0.0735 -0.0898
  918loPI   C1A14679   2.903  16.812   5.866  0.2977 -0.0419  0.1566
  918loPI   C2A14680   2.862  16.843   6.348 -0.0010  0.0188  0.0865
  918loPI   C3A14681   2.814  16.860   6.774  0.2046 -0.0365 -0.0583
  918loPI   C4A14682   2.846  16.816   7.156  0.1142  0.0446  0.2304
  918loPI   C5A14683   2.771  16.821   7.527 -0.1100 -0.4118 -0.3513
  918loPI   C6A14684   2.639  16.949   7.909 -0.1708  0.2242 -0.1396
  918loPI   C1B14685   3.385  16.894   5.975 -0.2223  0.2845  0.1482
  918loPI   C2B14686   3.376  16.892   6.371 -0.2615  0.1580 -0.2015
  918loPI   C3B14687   3.370  16.788   6.851 -0.2513  0.0103  0.1190
  918loPI   C4B14688   3.446  16.702   7.275 -0.1330  0.0137 -0.1709
  919loPI    C114689   4.763  15.414   4.422 -0.1454  0.1488  0.2012
  919loPI    C214690   5.010  15.705   4.542 -0.0597  0.1714 -0.0253
  919loPI    C314691   4.884  15.692   4.162 -0.0556 -0.0921 -0.0197
  919loPI   PO414692   4.545  15.454   4.665  0.1714  0.0544  0.1870
  919loPI   GL114693   4.516  15.596   5.062 -0.1087  0.0867  0.1906
  919loPI   GL214694   4.861  15.654   5.094  0.1921 -0.0428 -0.1094
  919loPI   C1A14695   4.262  15.512   5.399  0.2248 -0.3567 -0.1331
  919loPI   C2A14696   4.312  15.518   5.810  0.0456 -0.0825  0.0996
  919loPI   C3A14697   4.238  15.642   6.221 -0.2391  0.1511 -0.0108
  919loPI   C4A14698   4.250  15.660   6.712 -0.2764  0.0282 -0.1151
  919loPI   C5A14699   4.076  15.574   7.173 -0.0468  0.0202  0.0394
  919loPI   C6A14700   3.864  15.734   7.484 -0.0143 -0.2757  0.2197
  919loPI   C1B14701   4.810  15.577   5.539 -0.0674 -0.1267  0.3105
  919loPI   C2B14702   4.901  15.595   5.923 -0.1112 -0.0174 -0.1044
  919loPI   C3B14703   4.815  15.593   6.343  0.1534  0.1974 -0.0481
  919loPI   C4B14704   4.778  15.571   6.829 -0.0442  0.0536  0.0517
  920loPI    C114705   0.578   9.113   5.297 -0.2604 -0.0492 -0.0640
  920loPI    C214706   0.547   8.913   4.952  0.0886  0.1423 -0.2113
  920loPI    C314707   0.642   9.302   4.951  0.1525  0.1306  0.1037
  920loPI   PO414708   0.482   8.930   5.457 -0.4239 -0.1358 -0.0083
  920loPI   GL114709   0.332   8.983   5.848  0.3722  0.0351  0.1261
  920loPI   GL214710   0.411   8.801   6.002 -0.1442  0.1951 -0.1849
  920loPI   C1A14711   0.434   9.287   6.121  0.0470  0.1309  0.0677
  920loPI   C2A14712   0.315   9.383   6.476 -0.4557  0.2300 -0.0672
  920loPI   C3A14713   0.421   9.389   6.898 -0.0208 -0.0606  0.0736
  920loPI   C4A14714   0.404   9.506   7.390 -0.2392  0.1316  0.2896
  920loPI   C5A14715   0.500   9.400   7.838 -0.1270  0.0647  0.1287
  920loPI   C6A14716   0.460   9.570   8.252  0.0174  0.1687  0.0844
  920loPI   C1B14717   0.607   8.979   6.456  0.0135  0.0337 -0.1155
  920loPI   C2B14718   0.643   8.954   6.910  0.1698 -0.0098  0.1952
  920loPI   C3B14719   0.757   9.097   7.323  0.2065 -0.1650 -0.0721
  920loPI   C4B14720   0.858   8.971   7.738  0.1899  0.0664 -0.1814
  921loPI    C114721   5.842   2.389   4.615 -0.0175 -0.1512  0.0631
  921loPI    C214722   5.540   2.317   4.363 -0.0894  0.1563  0.0570
  921loPI    C314723   5.904   2.401   4.220 -0.1035  0.2177  0.0566
  921loPI   PO414724   5.638   2.412   4.838 -0.2827 -0.0249  0.1894
  921loPI   GL114725   5.645   2.435   5.188 -0.1480 -0.0924 -0.2703
  921loPI   GL214726   5.495   2.548   5.433 -0.2760 -0.2448  0.0489
  921loPI   C1A14727   5.938   2.368   5.582  0.0600 -0.2003  0.1315
  921loPI   C2A14728   6.137   2.335   5.838  0.3333 -0.1411  0.1540
  921loPI   C3A14729   6.137   2.322   6.258  0.0960 -0.0044 -0.2595
  921loPI   C4A14730   6.177   2.433   6.720 -0.1450 -0.0176 -0.0760
  921loPI   C5A14731   6.170   2.447   7.199  0.0644 -0.4150 -0.0644
  921loPI   C6A14732   6.217   2.677   7.504  0.0248 -0.2428  0.0470
  921loPI   C1B14733   5.422   2.632   5.831 -0.0010 -0.2046  0.1648
  921loPI   C2B14734   5.344   2.678   6.232 -0.3168  0.2408  0.3369
  921loPI   C3B14735   5.381   2.819   6.707  0.2129 -0.2059 -0.4195
  921loPI   C4B14736   5.299   2.931   7.228 -0.2134  0.2154 -0.0139
  922loPI    C114737   6.444  11.218   5.491 -0.0577 -0.3812  0.1488
  922loPI    C214738   6.243  11.420   5.771  0.1409 -0.1192  0.1061
  922loPI    C314739   6.057  11.302   5.437  0.0250  0.0024  0.1267
  922loPI   PO414740   6.592  11.012   5.567 -0.2272  0.1653  0.1042
  922loPI   GL114741   6.645  10.827   5.954  0.0613 -0.2005  0.0139
  922loPI   GL214742   6.812  10.801   6.093  0.0007  0.0114 -0.0556
  922loPI   C1A14743   6.488  10.513   6.252 -0.2217 -0.0148 -0.1433
  922loPI   C2A14744   6.365  10.485   6.746  0.0219  0.3565  0.2270
  922loPI   C3A14745   6.347  10.351   7.208 -0.0496 -0.4038  0.2653
  922loPI   C4A14746   6.224  10.206   7.609  0.0448 -0.0519 -0.0458
  922loPI   C5A14747   6.467  10.048   7.925 -0.4575  0.2689 -0.0729
  922loPI   C6A14748   6.749   9.750   8.254  0.1948 -0.0509 -0.2325
  922loPI   C1B14749   6.676  11.051   6.495 -0.0083  0.1765 -0.0805
  922loPI   C2B14750   6.620  11.293   6.913  0.1650  0.0455 -0.1572
  922loPI   C3B14751   6.572  11.486   7.229  0.0145  0.0942  0.0720
  922loPI   C4B14752   6.646  11.692   7.602  0.0943  0.0345  0.1112
  923loPI    C114753   6.791   2.796   5.353  0.0457 -0.0242  0.0501
  923loPI    C214754   6.616   2.518   5.125  0.2899 -0.1799  0.0485
  923loPI    C314755   6.650   2.893   4.992  0.1196 -0.1895 -0.0244
  923loPI   PO414756   6.809   2.959   5.522 -0.2358 -0.1302 -0.4408
  923loPI   GL114757   6.818   3.215   5.975 -0.0587  0.0408 -0.0309
  923loPI   GL214758   7.122   3.096   5.948 -0.1554 -0.0821 -0.1192
  923loPI   C1A14759   6.667   3.257   6.372 -0.0272 -0.0413 -0.2654
  923loPI   C2A14760   6.611   3.379   6.842 -0.2029 -0.0987  0.1132
  923loPI   C3A14761   6.726   3.391   7.286  0.4388 -0.4206  0.0266
  923loPI   C4A14762   6.788   3.245   7.765 -0.1071 -0.0941  0.1014
  923loPI   C5A14763   6.517   3.299   8.214  0.1660  0.1990 -0.0433
  923loPI   C6A14764   6.176   3.295   8.271  0.0892  0.2109  0.0974
  923loPI   C1B14765   7.167   3.225   6.341 -0.2048  0.0083 -0.0330
  923loPI   C2B14766   7.131   3.386   6.730 -0.0573  0.1881  0.0876
  923loPI   C3B14767   7.269   3.475   7.216 -0.0595  0.0028 -0.0103
  923loPI   C4B14768   7.200   3.515   7.625  0.1738 -0.0394 -0.2308
  924loPI    C114769   8.545   0.359   4.948 -0.0079  0.0699  0.1691
  924loPI    C214770   8.935   0.334   5.031  0.0672  0.0717 -0.1670
  924loPI    C314771   8.780   0.116   4.734 -0.1924  0.0589 -0.0249
  924loPI   PO414772   8.368   0.316   5.111 -0.0072 -0.0308 -0.2672
  924loPI   GL114773   8.398   0.191   5.543  0.0097  0.0214  0.1109
  924loPI   GL214774   8.420  -0.109   5.668 -0.1301  0.1031  0.1532
  924loPI   C1A14775   8.327   0.394   5.972  0.1219 -0.1717  0.0054
  924loPI   C2A14776   8.356   0.620   6.341  0.1575  0.0455  0.3966
  924loPI   C3A14777   8.385   0.793   6.731 -0.2218  0.2326  0.1419
  924loPI   C4A14778   8.317   0.792   7.195 -0.3016  0.0839 -0.2172
  924loPI   C5A14779   8.390   0.681   7.613  0.3488 -0.3356 -0.3854
  924loPI   C6A14780   8.225   0.338   7.755  0.4157 -0.2120 -0.1801
  924loPI   C1B14781   8.266  -0.063   6.100  0.1026  0.1488 -0.2741
  924loPI   C2B14782   8.209   0.164   6.439  0.3258 -0.3034  0.0221
  924loPI   C3B14783   8.161   0.364   6.914  0.1693  0.2400  0.0401
  924loPI   C4B14784   8.016   0.337   7.288 -0.1561  0.2344  0.1863
  925loPI    C114785  17.913   8.897   5.495  0.2187 -0.1076  0.0007
  925loPI    C214786  18.005   8.627   5.215 -0.0391  0.0026 -0.1938
  925loPI    C314787  18.006   9.017   5.125  0.0826  0.0522  0.0171
  925loPI   PO414788  17.966   8.789   5.674  0.0458  0.2812  0.1029
  925loPI   GL114789  18.248   8.784   5.998  0.0780  0.0192  0.0888
  925loPI   GL214790  17.960   8.880   6.245  0.1815 -0.0685  0.2155
  925loPI   C1A14791  18.440   8.966   6.426 -0.1429 -0.0591 -0.0171
  925loPI   C2A14792  18.452   8.895   6.762 -0.3697 -0.1706  0.0310
  925loPI   C3A14793  18.561   8.969   7.157 -0.1297  0.0927 -0.1862
  925loPI   C4A14794  18.596   8.968   7.609 -0.0556 -0.1740  0.0768
  925loPI   C5A14795  18.598   8.904   8.029 -0.1953  0.0037 -0.1531
  925loPI   C6A14796  18.510   8.946   8.430 -0.1344 -0.0292 -0.1322
  925loPI   C1B14797  17.947   8.953   6.644 -0.3880  0.1033  0.4337
  925loPI   C2B14798  17.986   8.924   7.127  0.0262  0.2897 -0.1034
  925loPI   C3B14799  18.011   8.877   7.559  0.0341  0.0522 -0.2190
  925loPI   C4B14800  18.081   8.853   7.943 -0.1153 -0.2447 -0.4482
  926loPI    C114801  13.531   4.609   4.887  0.1692  0.1094  0.1639
  926loPI    C214802  13.181   4.802   4.879 -0.1101 -0.3885 -0.0803
  926loPI    C314803  13.449   4.862   4.589 -0.1616 -0.3066 -0.1113
  926loPI   PO414804  13.673   4.614   5.130 -0.0187 -0.0539 -0.2403
  926loPI   GL114805  13.591   4.503   5.558 -0.3616  0.0822 -0.2083
  926loPI   GL214806  13.484   4.541   5.839  0.1647 -0.1916 -0.2936
  926loPI   C1A14807  14.107   4.347   5.832  0.1916 -0.0705 -0.1590
  926loPI   C2A14808  14.395   4.425   6.096  0.1003  0.1354 -0.3490
  926loPI   C3A14809  14.405   4.486   6.557  0.0153 -0.1735 -0.0108
  926loPI   C4A14810  14.554   4.432   6.946  0.2225  0.2380 -0.0659
  926loPI   C5A14811  14.591   4.520   7.348  0.0502  0.0114  0.1057
  926loPI   C6A14812  14.699   4.238   7.787  0.0834  0.1906 -0.0088
  926loPI   C1B14813  13.581   4.758   6.270  0.1386 -0.0048  0.3912
  926loPI   C2B14814  13.558   4.706   6.691  0.1652  0.0355  0.1420
  926loPI   C3B14815  13.688   4.719   7.075  0.0545 -0.0690  0.2319
  926loPI   C4B14816  13.863   4.679   7.511  0.0024 -0.0158  0.2015
  927loPI    C114817  16.710   4.436   4.897 -0.2483  0.1111  0.3014
  927loPI    C214818  16.330   4.454   5.022 -0.3400  0.0458  0.0387
  927loPI    C314819  16.417   4.289   4.668 -0.0568 -0.0136  0.1329
  927loPI   PO414820  16.836   4.425   5.142 -0.3772  0.0986 -0.2746
  927loPI   GL114821  16.828   4.399   5.661 -0.0117  0.1184 -0.0050
  927loPI   GL214822  16.453   4.347   5.491 -0.1222  0.1304 -0.1502
  927loPI   C1A14823  16.893   4.397   6.036 -0.0046 -0.0426 -0.2118
  927loPI   C2A14824  16.813   4.448   6.414 -0.1569  0.0263 -0.0091
  927loPI   C3A14825  16.929   4.517   6.797  0.0544  0.0112  0.0614
  927loPI   C4A14826  16.976   4.499   7.212 -0.0202 -0.0105 -0.0911
  927loPI   C5A14827  17.351   4.217   7.292 -0.0112 -0.0955 -0.1801
  927loPI   C6A14828  17.619   4.080   7.036  0.0531 -0.3194  0.1627
  927loPI   C1B14829  16.381   4.509   5.918  0.3133  0.1800  0.0707
  927loPI   C2B14830  16.332   4.436   6.333 -0.0469  0.3504  0.1368
  927loPI   C3B14831  16.307   4.408   6.663  0.0322  0.2508  0.0827
  927loPI   C4B14832  16.496   4.297   7.030 -0.0511 -0.1059  0.0047
  928loPI    C114833   0.656   0.090   4.749  0.2316 -0.0572 -0.2292
  928loPI    C214834   0.601  -0.208   4.489  0.0899 -0.0520 -0.2060
  928loPI    C314835   0.526   0.169   4.379  0.0624 -0.0465 -0.1684
  928loPI   PO414836   0.578   0.007   5.008  0.0198 -0.0496 -0.1287
  928loPI   GL114837   0.592   0.005   5.450 -0.1104  0.1743 -0.1867
  928loPI   GL214838   0.873   0.187   5.425 -0.0343  0.2980  0.1174
  928loPI   C1A14839   0.457  -0.179   5.899 -0.3359 -0.1227 -0.0090
  928loPI   C2A14840   0.486  -0.205   6.359  0.0826  0.0482 -0.0037
  928loPI   C3A14841   0.284  -0.416   6.740 -0.2478 -0.0219 -0.1232
  928loPI   C4A14842   0.114  -0.477   7.112 -0.0144 -0.1395  0.0946
  928loPI   C5A14843  -0.157  -0.499   7.426  0.1246 -0.2989 -0.1023
  928loPI   C6A14844  -0.253  -0.191   7.743 -0.3096 -0.2498  0.0702
  928loPI   C1B14845   0.968   0.162   5.914 -0.3374  0.3338  0.0028
  928loPI   C2B14846   1.089   0.140   6.364  0.0102  0.0935 -0.0742
  928loPI   C3B14847   1.185   0.126   6.881  0.0063 -0.0581  0.4426
  928loPI   C4B14848   1.394  -0.016   7.269 -0.4042  0.3112  0.0857
  929loPI    C114849  11.377  13.588   5.408  0.1152 -0.1287 -0.1428
  929loPI    C214850  11.136  13.903   5.358  0.1596 -0.0742 -0.0186
  929loPI    C314851  11.170  13.629   5.068  0.0925  0.0155 -0.1123
  929loPI   PO414852  11.435  13.678   5.670 -0.2319  0.2006 -0.1375
  929loPI   GL114853  11.214  13.851   5.883 -0.2854  0.1799  0.1389
  929loPI   GL214854  11.091  13.542   6.126 -0.1062 -0.2626  0.2948
  929loPI   C1A14855  10.975  14.158   6.059 -0.2572  0.1302 -0.0191
  929loPI   C2A14856  10.692  14.136   6.280 -0.1325  0.4677  0.1938
  929loPI   C3A14857  10.430  14.085   6.613  0.0110  0.0105  0.1595
  929loPI   C4A14858  10.249  14.094   7.035  0.1460  0.3429  0.1418
  929loPI   C5A14859  10.062  14.172   7.205  0.0599  0.1968  0.0706
  929loPI   C6A14860   9.822  14.190   7.551 -0.1895 -0.1629 -0.0880
  929loPI   C1B14861  11.014  13.499   6.537 -0.2208 -0.0710 -0.2678
  929loPI   C2B14862  11.029  13.550   6.924 -0.0789  0.0912  0.2621
  929loPI   C3B14863  10.879  13.651   7.309 -0.2331 -0.1602  0.1236
  929loPI   C4B14864  10.717  13.785   7.652  0.0444 -0.1768  0.1308
  930loPI    C114865  17.553  10.166   5.147 -0.0955 -0.1866  0.0106
  930loPI    C214866  17.337  10.245   4.820 -0.0721 -0.0729  0.0224
  930loPI    C314867  17.732  10.311   4.820 -0.0441 -0.2377  0.0158
  930loPI   PO414868  17.431  10.229   5.321 -0.0059  0.2891 -0.0996
  930loPI   GL114869  17.502  10.335   5.839  0.3234  0.0438  0.2317
  930loPI   GL214870  17.582  10.095   6.010 -0.1486 -0.1738 -0.1009
  930loPI   C1A14871  17.316  10.551   6.177  0.1901 -0.1046 -0.1769
  930loPI   C2A14872  17.320  10.615   6.641  0.4278  0.1444  0.2748
  930loPI   C3A14873  17.297  10.611   7.071 -0.2269  0.0964  0.3923
  930loPI   C4A14874  17.348  10.544   7.539 -0.1805  0.3265  0.0318
  930loPI   C5A14875  17.245  10.606   7.978  0.1428  0.0265  0.2410
  930loPI   C6A14876  16.962  10.830   8.176 -0.0097  0.0264  0.1329
  930loPI   C1B14877  17.623  10.245   6.378  0.0307  0.1759 -0.1754
  930loPI   C2B14878  17.582  10.230   6.832 -0.0643 -0.2394  0.1023
  930loPI   C3B14879  17.594  10.188   7.250  0.0310  0.1660  0.0050
  930loPI   C4B14880  17.581  10.153   7.709 -0.0704 -0.0857 -0.0045
  931loPI    C114881  16.834  12.396   5.173 -0.0337  0.2039  0.0154
  931loPI    C214882  17.054  12.247   4.874  0.0779 -0.2109  0.2945
  931loPI    C314883  16.720  12.452   4.794  0.1429 -0.2548 -0.1124
  931loPI   PO414884  17.002  12.494   5.347 -0.1885  0.0562  0.0509
  931loPI   GL114885  17.022  12.413   5.719 -0.1314 -0.1546 -0.2031
  931loPI   GL214886  16.991  12.726   5.783 -0.0727 -0.0110  0.1499
  931loPI   C1A14887  17.148  12.413   6.204 -0.0923 -0.0108  0.1542
  931loPI   C2A14888  17.153  12.389   6.717  0.0908  0.0312 -0.0793
  931loPI   C3A14889  17.222  12.366   7.125  0.1740  0.1882  0.1596
  931loPI   C4A14890  17.137  12.542   7.513  0.0657 -0.1029 -0.1239
  931loPI   C5A14891  17.183  12.684   7.839 -0.2524 -0.0908  0.0510
  931loPI   C6A14892  17.428  12.789   8.152 -0.3794 -0.1010 -0.2362
  931loPI   C1B14893  16.815  12.803   6.233 -0.2626  0.5180  0.0936
  931loPI   C2B14894  16.866  12.745   6.684 -0.2048 -0.1145 -0.2928
  931loPI   C3B14895  16.926  12.890   7.125 -0.0364  0.0264 -0.0792
  931loPI   C4B14896  16.896  13.045   7.569 -0.3355  0.1438  0.2451
  932loPI    C114897  14.617  13.877   5.047  0.1556 -0.1947 -0.1312
  932loPI    C214898  14.846  14.124   4.832 -0.0574  0.0397 -0.0942
  932loPI    C314899  14.475  14.039   4.710 -0.0921 -0.0223  0.0524
  932loPI   PO414900  14.668  13.951   5.257 -0.0311 -0.0676 -0.1799
  932loPI   GL114901  14.858  14.004   5.662 -0.0523  0.0492 -0.0540
  932loPI   GL214902  14.743  13.690   5.689 -0.1218  0.2391 -0.0397
  932loPI   C1A14903  15.009  14.024   6.120 -0.0059  0.3273  0.0010
  932loPI   C2A14904  15.047  13.977   6.574 -0.0780 -0.2426 -0.0684
  932loPI   C3A14905  14.951  14.007   6.987  0.0325  0.0626 -0.0571
  932loPI   C4A14906  15.025  14.106   7.435 -0.1263  0.0834 -0.0918
  932loPI   C5A14907  14.785  13.911   7.753  0.1415 -0.0033 -0.1183
  932loPI   C6A14908  14.579  13.893   8.144 -0.0537  0.2908  0.1222
  932loPI   C1B14909  14.772  13.573   6.076 -0.3486  0.0176  0.2495
  932loPI   C2B14910  14.704  13.537   6.544 -0.0656  0.4215  0.1602
  932loPI   C3B14911  14.858  13.529   6.958 -0.1849  0.3361  0.1701
  932loPI   C4B14912  14.814  13.675   7.356 -0.3939 -0.0353 -0.3599
  933loPI    C114913   8.669  15.297   5.100  0.0028  0.1540  0.1421
  933loPI    C214914   8.540  15.658   4.986  0.0202  0.1789  0.2006
  933loPI    C314915   8.704  15.411   4.718 -0.0301  0.1980  0.1521
  933loPI   PO414916   8.636  15.412   5.410 -0.0691  0.0441 -0.0907
  933loPI   GL114917   8.618  15.380   5.765  0.2529  0.0917  0.3648
  933loPI   GL214918   8.411  15.666   5.775 -0.0895 -0.2589  0.1784
  933loPI   C1A14919   8.647  15.422   6.264  0.1119 -0.0126  0.2791
  933loPI   C2A14920   8.589  15.426   6.668 -0.3261 -0.0545  0.1977
  933loPI   C3A14921   8.511  15.537   7.122  0.1803 -0.0051 -0.1049
  933loPI   C4A14922   8.339  15.625   7.613 -0.0537  0.1641  0.1277
  933loPI   C5A14923   8.145  15.852   7.940 -0.0887 -0.0782  0.0465
  933loPI   C6A14924   8.358  15.983   8.353 -0.1236  0.0034  0.0324
  933loPI   C1B14925   8.348  15.807   6.236 -0.1888 -0.0813 -0.0938
  933loPI   C2B14926   8.306  15.836   6.694 -0.0445  0.1665  0.0518
  933loPI   C3B14927   8.256  15.956   6.970  0.1059 -0.1429 -0.3800
  933loPI   C4B14928   8.192  16.078   7.427 -0.2600  0.2284  0.0489
  934loPI    C114929   6.345  10.816   5.191  0.0926  0.1063 -0.0180
  934loPI    C214930   6.121  10.667   4.896 -0.1247 -0.0637  0.2287
  934loPI    C314931   6.410  10.931   4.813 -0.2132 -0.0734 -0.1281
  934loPI   PO414932   6.080  10.757   5.392  0.1145  0.0596 -0.0669
  934loPI   GL114933   6.160  10.911   5.813 -0.1215  0.0506 -0.1820
  934loPI   GL214934   5.823  10.957   5.840 -0.0684 -0.0473 -0.0011
  934loPI   C1A14935   6.167  11.065   6.223 -0.3218 -0.1797  0.0398
  934loPI   C2A14936   6.160  10.977   6.684  0.0168 -0.0970  0.0576
  934loPI   C3A14937   6.232  10.867   7.109 -0.1342  0.1130  0.2704
  934loPI   C4A14938   6.573  11.009   7.349 -0.1555 -0.1304  0.2746
  934loPI   C5A14939   6.580  11.161   7.769  0.0559  0.0589  0.1264
  934loPI   C6A14940   6.320  11.118   8.155  0.0125 -0.3548  0.0144
  934loPI   C1B14941   5.626  10.943   6.286 -0.1088 -0.2080  0.0708
  934loPI   C2B14942   5.579  10.888   6.764 -0.1232 -0.0622 -0.1459
  934loPI   C3B14943   5.697  10.967   7.164 -0.2068  0.0367  0.0094
  934loPI   C4B14944   5.500  11.049   7.481 -0.4464  0.1822 -0.0541
  935loPI    C114945   5.556  16.153   4.470  0.0137  0.2746 -0.0004
  935loPI    C214946   5.374  15.868   4.255  0.0205  0.1013  0.2205
  935loPI    C314947   5.549  16.177   4.070  0.0354 -0.0503 -0.0230
  935loPI   PO414948   5.441  16.098   4.700  0.0918  0.1050  0.0422
  935loPI   GL114949   5.381  16.201   5.146 -0.1518  0.1001 -0.2651
  935loPI   GL214950   5.333  15.856   5.135  0.0284 -0.1288 -0.0603
  935loPI   C1A14951   5.312  16.448   5.498 -0.1588 -0.0909  0.2320
  935loPI   C2A14952   5.275  16.528   5.937 -0.2320  0.0987  0.4623
  935loPI   C3A14953   5.187  16.584   6.427 -0.2163  0.4377  0.1075
  935loPI   C4A14954   5.231  16.582   6.867  0.0826 -0.1970  0.1904
  935loPI   C5A14955   5.187  16.479   7.227  0.1386  0.1543 -0.1083
  935loPI   C6A14956   5.055  16.414   7.719  0.1165 -0.1011  0.0239
  935loPI   C1B14957   5.091  16.005   5.441  0.0459  0.3542 -0.2849
  935loPI   C2B14958   5.070  16.059   5.873 -0.0102 -0.0791  0.1231
  935loPI   C3B14959   4.979  16.130   6.386 -0.1304  0.0763  0.0898
  935loPI   C4B14960   4.953  16.076   6.812  0.1229 -0.3040  0.0830
  936loPI    C114961   2.351   6.916   5.430  0.0122  0.0418 -0.0223
  936loPI    C214962   2.611   6.803   5.147  0.0380  0.0768 -0.0127
  936loPI    C314963   2.266   6.978   5.044 -0.0732 -0.1523 -0.0355
  936loPI   PO414964   2.649   6.907   5.629  0.2216 -0.1280 -0.2500
  936loPI   GL114965   2.622   7.139   6.076  0.0276  0.1182  0.0126
  936loPI   GL214966   2.372   6.881   6.037  0.0726 -0.1087  0.3134
  936loPI   C1A14967   2.548   7.408   6.514  0.3891  0.1372  0.0328
  936loPI   C2A14968   2.433   7.440   6.847  0.1471 -0.0374  0.0709
  936loPI   C3A14969   2.496   7.485   7.345 -0.1788  0.2370  0.3157
  936loPI   C4A14970   2.619   7.549   7.659 -0.2236 -0.2107 -0.0891
  936loPI   C5A14971   3.041   7.778   7.830  0.2371  0.0046 -0.1411
  936loPI   C6A14972   3.405   7.802   7.918 -0.2660 -0.1583 -0.0941
  936loPI   C1B14973   2.348   6.937   6.466  0.2696  0.2973 -0.0237
  936loPI   C2B14974   2.186   6.926   6.759  0.0089  0.0474  0.1020
  936loPI   C3B14975   2.280   7.008   7.179  0.0696  0.2191 -0.1551
  936loPI   C4B14976   2.461   7.032   7.647 -0.2582  0.3006  0.0271
  937loPI    C114977   9.264   9.024   4.860  0.0491 -0.1649  0.0256
  937loPI    C214978   9.372   8.919   4.489 -0.0385 -0.1864  0.0060
  937loPI    C314979   9.402   9.300   4.606 -0.0569 -0.1710 -0.0393
  937loPI   PO414980   9.324   8.706   4.983 -0.1156 -0.3896 -0.2696
  937loPI   GL114981   9.306   8.602   5.460 -0.0004 -0.0553  0.1983
  937loPI   GL214982   9.203   8.847   5.408  0.0061 -0.0271 -0.1923
  937loPI   C1A14983   9.403   8.506   5.872  0.2271 -0.1124  0.3147
  937loPI   C2A14984   9.500   8.339   6.264  0.1939 -0.2705  0.1295
  937loPI   C3A14985   9.438   8.342   6.674  0.1903 -0.1175 -0.1379
  937loPI   C4A14986   9.510   8.188   7.113 -0.0942  0.3571  0.1058
  937loPI   C5A14987   9.522   8.342   7.570 -0.0080  0.1763 -0.1082
  937loPI   C6A14988   9.360   8.396   7.859  0.1227  0.0176 -0.2706
  937loPI   C1B14989   9.098   8.946   5.856  0.4039 -0.2646  0.0335
  937loPI   C2B14990   9.097   8.644   6.256 -0.2127 -0.0777 -0.0145
  937loPI   C3B14991   8.942   8.539   6.650  0.2287  0.0988  0.0194
  937loPI   C4B14992   9.079   8.465   7.053  0.0268  0.0865  0.2667
  938loPI    C114993   7.343   1.832   4.960  0.0076 -0.1125  0.1917
  938loPI    C214994   7.529   2.184   4.926 -0.1155 -0.0910 -0.3565
  938loPI    C314995   7.729   1.845   4.854  0.0059 -0.1427  0.1813
  938loPI   PO414996   7.193   1.733   5.108  0.0197  0.1014 -0.1306
  938loPI   GL114997   7.238   1.831   5.560  0.2461  0.2302  0.0158
  938loPI   GL214998   7.128   1.492   5.533 -0.2886 -0.1538  0.0700
  938loPI   C1A14999   7.005   1.849   5.965  0.2061 -0.3127  0.2696
  938loPI   C2A15000   6.957   1.969   6.323 -0.3502  0.0965  0.0913
  938loPI   C3A15001   7.043   2.023   6.767  0.0343  0.0511  0.0881
  938loPI   C4A15002   7.001   2.081   7.188 -0.1702  0.2778  0.2307
  938loPI   C5A15003   7.022   1.898   7.593  0.4890  0.2479  0.0004
  938loPI   C6A15004   6.843   2.144   7.938 -0.1389  0.1784 -0.1356
  938loPI   C1B15005   7.263   1.402   5.986  0.0467  0.3364  0.1218
  938loPI   C2B15006   7.232   1.463   6.417 -0.0547  0.0109  0.1335
  938loPI   C3B15007   7.300   1.550   6.847  0.0535  0.1992 -0.4933
  938loPI   C4B15008   7.311   1.676   7.294  0.0966  0.0666 -0.0694
  939loPI    C115009  13.975   8.779   5.656  0.0045  0.1879  0.1144
  939loPI    C215010  14.361   8.695   5.718 -0.0421 -0.2207 -0.1087
  939loPI    C315011  14.257   9.037   5.539  0.2018 -0.0189  0.1253
  939loPI   PO415012  13.878   8.772   5.969  0.2358  0.0419 -0.0011
  939loPI   GL115013  13.786   8.898   6.324 -0.2907 -0.0846 -0.1407
  939loPI   GL215014  13.561   8.652   6.519 -0.0902 -0.0212  0.0757
  939loPI   C1A15015  13.564   9.098   6.748 -0.0036  0.1665 -0.0911
  939loPI   C2A15016  13.296   9.227   7.059 -0.0101  0.1786  0.3534
  939loPI   C3A15017  13.160   9.447   7.458 -0.0960  0.0363  0.0839
  939loPI   C4A15018  13.270   9.544   7.867  0.1625 -0.0446 -0.1431
  939loPI   C5A15019  13.059   9.789   8.106  0.0201 -0.0443  0.2349
  939loPI   C6A15020  12.885  10.138   8.449 -0.0409 -0.0036  0.0542
  939loPI   C1B15021  13.876   8.608   6.792 -0.0383  0.2132 -0.1837
  939loPI   C2B15022  13.922   8.410   7.229  0.2056 -0.1280  0.0715
  939loPI   C3B15023  13.601   8.136   7.629 -0.0455  0.0113  0.0288
  939loPI   C4B15024  13.586   7.798   7.949 -0.0942 -0.1353 -0.1888
  940loPI    C115025  12.866   2.389   5.342  0.1324  0.0543  0.1316
  940loPI    C215026  12.650   2.448   5.010  0.0921 -0.0887  0.1318
  940loPI    C315027  13.039   2.356   4.983  0.0714 -0.1735  0.1218
  940loPI   PO415028  12.800   2.525   5.536 -0.2686 -0.0675  0.1211
  940loPI   GL115029  12.745   2.467   5.981  0.1300  0.1534  0.2421
  940loPI   GL215030  12.802   2.837   5.937 -0.0518 -0.0100  0.0741
  940loPI   C1A15031  12.678   2.436   6.456  0.0825  0.0867  0.1115
  940loPI   C2A15032  12.662   2.540   6.853  0.0618 -0.2696  0.0329
  940loPI   C3A15033  12.700   2.562   7.268  0.1619  0.0922  0.1035
  940loPI   C4A15034  12.719   2.355   7.726 -0.3287 -0.0820  0.0785
  940loPI   C5A15035  12.808   1.908   7.817 -0.0760 -0.0598 -0.0784
  940loPI   C6A15036  12.906   1.580   8.118 -0.0953  0.1479  0.0509
  940loPI   C1B15037  12.808   2.942   6.457 -0.0671  0.0128  0.3778
  940loPI   C2B15038  12.796   2.989   6.859  0.1691  0.1624  0.0839
  940loPI   C3B15039  12.876   3.018   7.313 -0.2653 -0.4934  0.2861
  940loPI   C4B15040  12.797   2.884   7.686  0.1783  0.2630 -0.0193
  941loPI    C115041   7.315  11.339   5.210 -0.0101 -0.1596 -0.0564
  941loPI    C215042   7.612  11.507   5.001  0.1014 -0.0759  0.1658
  941loPI    C315043   7.295  11.354   4.811  0.1835  0.0310 -0.0609
  941loPI   PO415044   7.398  11.528   5.440 -0.0464  0.3144  0.0798
  941loPI   GL115045   7.446  11.803   5.842 -0.1817 -0.0286 -0.1850
  941loPI   GL215046   7.746  11.621   5.734 -0.2672 -0.0476  0.0452
  941loPI   C1A15047   7.226  11.779   6.242  0.0215  0.0819 -0.0444
  941loPI   C2A15048   7.281  11.799   6.677  0.1378  0.2414  0.2765
  941loPI   C3A15049   7.487  11.930   7.106 -0.1952 -0.2440 -0.2289
  941loPI   C4A15050   7.634  11.869   7.495 -0.3567  0.1300 -0.0847
  941loPI   C5A15051   7.726  12.047   7.894 -0.0603  0.2231  0.0836
  941loPI   C6A15052   7.746  11.897   8.296 -0.1591 -0.0519 -0.1056
  941loPI   C1B15053   7.675  11.580   6.240  0.1802  0.1753 -0.1624
  941loPI   C2B15054   7.623  11.387   6.701 -0.1705 -0.1035  0.0857
  941loPI   C3B15055   7.558  11.420   7.163 -0.2288 -0.1748 -0.0844
  941loPI   C4B15056   7.554  11.438   7.720 -0.3725 -0.1476  0.1267
  942loPI    C115057  10.620  15.140   5.233  0.2103  0.1882  0.2387
  942loPI    C215058  10.663  15.340   4.889  0.3281  0.0587  0.1764
  942loPI    C315059  10.802  14.967   4.921 -0.2361 -0.1635  0.1625
  942loPI   PO415060  10.416  15.310   5.361 -0.0836  0.1726 -0.0215
  942loPI   GL115061  10.485  15.335   5.685  0.1449 -0.0540 -0.0005
  942loPI   GL215062  10.242  15.351   5.837  0.0152 -0.1471 -0.1578
  942loPI   C1A15063  10.666  15.307   6.079 -0.0709 -0.1622  0.4195
  942loPI   C2A15064  10.680  15.391   6.536  0.0911 -0.0876 -0.2017
  942loPI   C3A15065  10.713  15.432   7.007 -0.0310 -0.0284  0.4833
  942loPI   C4A15066  10.556  15.593   7.380 -0.2525 -0.0731  0.1417
  942loPI   C5A15067  10.634  15.440   7.820  0.0707 -0.0440  0.1158
  942loPI   C6A15068  10.712  15.227   8.279  0.0352 -0.2414  0.0131
  942loPI   C1B15069  10.197  15.357   6.183  0.1893  0.5540 -0.0793
  942loPI   C2B15070  10.197  15.402   6.589 -0.0179 -0.0881  0.0395
  942loPI   C3B15071  10.124  15.401   6.921  0.1862  0.4118  0.1748
  942loPI   C4B15072  10.019  15.510   7.305 -0.1673 -0.2692 -0.3393
  943loPI    C115073  10.750   7.792   5.344 -0.1987  0.2609 -0.1231
  943loPI    C215074  10.399   7.770   5.153 -0.3530  0.0353  0.1782
  943loPI    C315075  10.658   7.466   5.132 -0.0384  0.3228 -0.2904
  943loPI   PO415076  10.749   7.845   5.593 -0.0178  0.1220 -0.0645
  943loPI   GL115077  10.786   7.664   5.969 -0.2765 -0.0678 -0.0369
  943loPI   GL215078  10.627   7.456   6.063  0.2488 -0.2013 -0.1899
  943loPI   C1A15079  10.930   7.688   6.383 -0.0360  0.2173 -0.0117
  943loPI   C2A15080  10.887   7.839   6.777 -0.0744 -0.1818 -0.2895
  943loPI   C3A15081  10.918   7.822   7.222  0.2218 -0.0058 -0.2638
  943loPI   C4A15082  11.022   8.116   7.495 -0.1789 -0.2104  0.0262
  943loPI   C5A15083  10.814   8.164   7.888  0.1461  0.2075 -0.0208
  943loPI   C6A15084  10.679   8.705   8.065  0.0448 -0.0408  0.2586
  943loPI   C1B15085  10.535   7.431   6.533 -0.2188 -0.1988 -0.2753
  943loPI   C2B15086  10.535   7.491   7.007  0.2994  0.2429 -0.1772
  943loPI   C3B15087  10.518   7.515   7.424 -0.4754 -0.3583 -0.0306
  943loPI   C4B15088  10.756   7.654   7.779 -0.1389  0.0073 -0.0782
  944loPI    C115089  12.318   3.255   5.085 -0.0610  0.1225 -0.0097
  944loPI    C215090  12.298   3.362   4.700 -0.0001  0.1645 -0.0012
  944loPI    C315091  12.605   3.141   4.831 -0.1645 -0.0876 -0.0349
  944loPI   PO415092  12.333   3.416   5.264 -0.0215  0.1511  0.1393
  944loPI   GL115093  12.156   3.324   5.637 -0.0263 -0.1209 -0.2045
  944loPI   GL215094  12.594   3.300   5.665 -0.1815 -0.0252 -0.1364
  944loPI   C1A15095  11.955   3.224   6.048 -0.0144  0.1269 -0.2786
  944loPI   C2A15096  11.910   3.154   6.479  0.0005  0.2311 -0.2879
  944loPI   C3A15097  11.916   3.221   6.905 -0.1666  0.1030  0.0755
  944loPI   C4A15098  11.917   3.281   7.346 -0.1028 -0.1603 -0.0781
  944loPI   C5A15099  12.210   3.459   7.665  0.0338 -0.1842 -0.1158
  944loPI   C6A15100  12.142   3.577   8.044 -0.1779  0.2084  0.0305
  944loPI   C1B15101  12.497   3.197   6.007  0.0453 -0.0118 -0.1338
  944loPI   C2B15102  12.469   3.342   6.379  0.0271  0.0864 -0.3251
  944loPI   C3B15103  12.469   3.393   6.870  0.1245  0.0752 -0.1720
  944loPI   C4B15104  12.483   3.421   7.252  0.0292  0.2974 -0.0056
  945loPI    C115105   2.567  14.574   5.099 -0.3371  0.1143  0.1580
  945loPI    C215106   2.363  14.233   5.055 -0.0619 -0.0379  0.0352
  945loPI    C315107   2.611  14.356   4.766 -0.2030  0.2983  0.0533
  945loPI   PO415108   2.398  14.710   5.325 -0.0324  0.1756  0.1827
  945loPI   GL115109   2.501  15.099   5.568  0.1196 -0.4839  0.1828
  945loPI   GL215110   2.272  15.226   5.559 -0.2313 -0.4401 -0.3303
  945loPI   C1A15111   2.481  14.958   5.919 -0.1849  0.2262  0.1742
  945loPI   C2A15112   2.505  15.001   6.398 -0.0435 -0.4767 -0.1153
  945loPI   C3A15113   2.492  15.005   6.835  0.3538 -0.0926  0.1439
  945loPI   C4A15114   2.464  15.059   7.263  0.2600 -0.1961  0.2577
  945loPI   C5A15115   2.232  15.232   7.615 -0.1907  0.0108  0.0702
  945loPI   C6A15116   2.184  15.624   7.785 -0.2509  0.3214 -0.0850
  945loPI   C1B15117   2.235  15.410   5.955 -0.1385  0.0900 -0.1056
  945loPI   C2B15118   2.167  15.499   6.260 -0.0011  0.0761 -0.4406
  945loPI   C3B15119   2.138  15.440   6.731  0.0945  0.0313 -0.1022
  945loPI   C4B15120   2.228  15.464   7.191  0.2139 -0.0719  0.0552
  946loPI    C115121  15.940   6.158   5.343  0.1841  0.3901  0.1248
  946loPI    C215122  15.935   6.388   5.016 -0.0095  0.2805  0.0490
  946loPI    C315123  15.852   5.997   4.987 -0.0003  0.2650  0.2252
  946loPI   PO415124  16.197   6.207   5.435  0.0564  0.2009  0.0522
  946loPI   GL115125  16.570   6.192   5.728 -0.2736  0.0941 -0.0545
  946loPI   GL215126  16.445   5.859   5.777  0.0697 -0.0240 -0.0205
  946loPI   C1A15127  16.526   6.192   6.214 -0.0566 -0.0583 -0.1407
  946loPI   C2A15128  16.600   6.203   6.601  0.1175 -0.2727 -0.1019
  946loPI   C3A15129  16.560   6.307   6.957 -0.1792 -0.1296  0.1753
  946loPI   C4A15130  16.748   6.333   7.404 -0.1336  0.1038 -0.3719
  946loPI   C5A15131  16.949   6.024   7.706  0.1244 -0.2028 -0.0109
  946loPI   C6A15132  17.299   5.842   7.654 -0.1691 -0.2660 -0.1383
  946loPI   C1B15133  16.259   5.758   6.168 -0.0647 -0.0556 -0.1521
  946loPI   C2B15134  16.341   5.752   6.591 -0.1932  0.1903  0.3120
  946loPI   C3B15135  16.540   5.785   7.000 -0.2513 -0.1683 -0.1272
  946loPI   C4B15136  16.514   5.828   7.431  0.3278 -0.1706  0.0643
  947loPI    C115137  10.898   1.290   5.108  0.3768 -0.0982  0.0062
  947loPI    C215138  10.665   0.991   4.980  0.2661 -0.2111  0.4538
  947loPI    C315139  11.002   1.080   4.783 -0.0105 -0.2231 -0.0422
  947loPI   PO415140  10.873   1.246   5.423  0.1923  0.2914  0.3496
  947loPI   GL115141  10.868   1.447   5.756 -0.0707 -0.3008 -0.2267
  947loPI   GL215142  10.563   1.596   5.825 -0.2671  0.1113 -0.0098
  947loPI   C1A15143  10.886   1.530   6.255 -0.0174  0.0521  0.0995
  947loPI   C2A15144  10.942   1.696   6.620  0.0173 -0.0510  0.0584
  947loPI   C3A15145  10.927   1.823   7.049 -0.0086 -0.1848 -0.0933
  947loPI   C4A15146  10.810   2.048   7.427 -0.3726  0.0126 -0.1504
  947loPI   C5A15147  10.786   1.880   7.801  0.4284 -0.1202 -0.0991
  947loPI   C6A15148  11.109   1.615   7.925  0.0801 -0.0810 -0.0821
  947loPI   C1B15149  10.428   1.295   6.233  0.1072  0.1794  0.0013
  947loPI   C2B15150  10.187   1.193   6.557  0.3330 -0.1173  0.3523
  947loPI   C3B15151  10.088   1.295   6.960 -0.2463 -0.1884 -0.1730
  947loPI   C4B15152   9.762   1.588   7.152  0.1568  0.1721 -0.1407
  948loPI    C115153   9.985  13.584   5.375 -0.1081  0.0185  0.3087
  948loPI    C215154   9.710  13.673   5.098  0.0467 -0.2996  0.0463
  948loPI    C315155  10.063  13.861   5.098 -0.1485  0.0824  0.3608
  948loPI   PO415156   9.895  13.468   5.541 -0.1938  0.0281 -0.2028
  948loPI   GL115157   9.986  13.323   5.922  0.2615 -0.2474  0.0325
  948loPI   GL215158   9.971  12.984   5.788 -0.0827  0.0691  0.1963
  948loPI   C1A15159  10.258  13.111   6.216 -0.0001 -0.1583 -0.1945
  948loPI   C2A15160  10.526  13.229   6.650 -0.0924  0.1290  0.1226
  948loPI   C3A15161  10.583  13.275   7.113  0.0935  0.1551 -0.2097
  948loPI   C4A15162  10.536  13.292   7.544 -0.1047 -0.0987  0.1677
  948loPI   C5A15163  10.222  13.300   7.875  0.1320 -0.1414 -0.2572
  948loPI   C6A15164  10.129  13.358   8.246 -0.2010 -0.0263  0.0565
  948loPI   C1B15165   9.768  12.999   6.272 -0.0676  0.0311  0.2276
  948loPI   C2B15166   9.976  13.118   6.627 -0.0474  0.1430 -0.1885
  948loPI   C3B15167  10.104  13.311   6.989  0.0431 -0.1561  0.3040
  948loPI   C4B15168   9.761  13.274   7.327  0.0349 -0.0188  0.1231
  949loPI    C115169  12.523  12.174   5.190  0.2349 -0.0654  0.0663
  949loPI    C215170  12.675  12.272   4.833 -0.0912 -0.3037 -0.1435
  949loPI    C315171  12.796  11.938   5.018  0.0472 -0.2017 -0.0480
  949loPI   PO415172  12.632  12.451   5.335  0.1442  0.1601  0.1183
  949loPI   GL115173  12.555  12.572   5.695  0.1481 -0.1523  0.0615
  949loPI   GL215174  12.772  12.815   5.752  0.0261  0.3378  0.1968
  949loPI   C1A15175  12.432  12.545   6.111  0.2666  0.1539  0.0228
  949loPI   C2A15176  12.492  12.654   6.538 -0.1264  0.0042  0.3320
  949loPI   C3A15177  12.235  12.733   6.967 -0.2524 -0.0507  0.0197
  949loPI   C4A15178  12.252  12.712   7.361 -0.0706  0.0325 -0.3570
  949loPI   C5A15179  12.429  13.085   7.597 -0.2077  0.0895  0.3345
  949loPI   C6A15180  12.494  13.258   7.907 -0.2367  0.0110  0.0564
  949loPI   C1B15181  12.993  12.728   6.175  0.0060  0.0496 -0.0342
  949loPI   C2B15182  13.022  12.729   6.678  0.0886  0.1818  0.0187
  949loPI   C3B15183  12.747  12.952   6.900 -0.0333 -0.1140  0.1113
  949loPI   C4B15184  12.800  13.234   7.126 -0.0993 -0.0245 -0.0492
  950loPI    C115185  10.826  17.014   5.219  0.0508  0.0709  0.0293
  950loPI    C215186  11.077  17.318   5.152 -0.0862  0.1678 -0.0486
  950loPI    C315187  11.204  16.994   5.350  0.0750  0.2529 -0.0110
  950loPI   PO415188  10.669  17.114   5.333 -0.1047  0.0023  0.2269
  950loPI   GL115189  10.538  17.040   5.739 -0.0485 -0.0478  0.0530
  950loPI   GL215190  10.839  16.967   5.754 -0.1938  0.1266  0.1802
  950loPI   C1A15191  10.275  17.174   6.081 -0.0985  0.2139 -0.1563
  950loPI   C2A15192  10.118  17.215   6.482  0.0890 -0.1760  0.1249
  950loPI   C3A15193   9.964  17.277   6.851 -0.2178 -0.2347  0.0700
  950loPI   C4A15194   9.871  17.329   7.318 -0.1288  0.2423  0.1213
  950loPI   C5A15195   9.673  17.462   7.624 -0.0488  0.0082 -0.0213
  950loPI   C6A15196   9.514  17.278   7.983 -0.2914  0.0890 -0.0362
  950loPI   C1B15197  11.067  16.913   6.188  0.3892 -0.3502  0.2531
  950loPI   C2B15198  10.910  16.814   6.563  0.0289  0.0335 -0.2440
  950loPI   C3B15199  10.858  16.870   6.892 -0.3936  0.0896 -0.0326
  950loPI   C4B15200  10.676  16.860   7.285 -0.0540 -0.1603  0.1682
  951loPI    C115201   2.075   0.466   5.060  0.1676 -0.1346  0.0969
  951loPI    C215202   1.848   0.600   5.361  0.1128 -0.1527  0.0638
  951loPI    C315203   1.750   0.686   4.983 -0.0071 -0.4099  0.0343
  951loPI   PO415204   2.098   0.196   5.151 -0.0388  0.1311  0.0353
  951loPI   GL115205   2.147   0.025   5.555 -0.1047 -0.3510 -0.1182
  951loPI   GL215206   2.224   0.325   5.606  0.1800 -0.2283  0.1628
  951loPI   C1A15207   1.976  -0.241   5.823  0.0731 -0.0940  0.0298
  951loPI   C2A15208   1.951  -0.228   6.231  0.0806  0.0739 -0.2243
  951loPI   C3A15209   1.986  -0.281   6.680  0.0142 -0.0394  0.1391
  951loPI   C4A15210   1.975  -0.298   7.146  0.0238 -0.1073  0.2237
  951loPI   C5A15211   2.145  -0.230   7.513  0.0663 -0.1189  0.1962
  951loPI   C6A15212   2.042   0.064   7.880 -0.0795 -0.1914 -0.1551
  951loPI   C1B15213   2.312   0.551   5.854 -0.2404 -0.0098  0.0768
  951loPI   C2B15214   2.411   0.540   6.242 -0.0946 -0.1310 -0.0665
  951loPI   C3B15215   2.473   0.622   6.608  0.0366  0.0725 -0.2750
  951loPI   C4B15216   2.450   0.557   7.017  0.0065  0.1158 -0.0811
  952loPI    C115217   6.833   0.155   4.492  0.0910  0.0991 -0.0884
  952loPI    C215218   7.202   0.007   4.454  0.0575 -0.0347  0.0959
  952loPI    C315219   7.149   0.395   4.534  0.1587 -0.0183  0.0845
  952loPI   PO415220   6.708  -0.087   4.653 -0.1174  0.3587 -0.2027
  952loPI   GL115221   6.522  -0.129   5.081  0.2436 -0.0523  0.2029
  952loPI   GL215222   6.277   0.081   5.331 -0.2529  0.1313 -0.1642
  952loPI   C1A15223   6.358  -0.363   5.531  0.2929 -0.1106  0.3046
  952loPI   C2A15224   6.435  -0.381   5.976  0.0778  0.2226  0.1537
  952loPI   C3A15225   6.405  -0.345   6.348 -0.1280 -0.0416 -0.1930
  952loPI   C4A15226   6.469  -0.307   6.825  0.1640  0.1552  0.0565
  952loPI   C5A15227   6.319  -0.320   7.297  0.0865 -0.3716  0.1395
  952loPI   C6A15228   6.329  -0.460   7.722  0.4001 -0.2967  0.0051
  952loPI   C1B15229   6.173  -0.017   5.812  0.3433 -0.2844  0.0122
  952loPI   C2B15230   6.155   0.045   6.246  0.2851  0.1447  0.0092
  952loPI   C3B15231   6.169   0.045   6.637  0.1287  0.0300  0.0166
  952loPI   C4B15232   6.086   0.061   7.017  0.2931  0.0625 -0.1249
  953loPI    C115233  13.162  12.580   5.411  0.1396 -0.2815 -0.0491
  953loPI    C215234  13.081  12.321   5.117 -0.0333 -0.0906 -0.1724
  953loPI    C315235  12.970  12.704   5.083  0.0215 -0.0477  0.1052
  953loPI   PO415236  13.146  12.384   5.626 -0.2097 -0.1271 -0.1341
  953loPI   GL115237  13.312  12.064   5.960  0.0250 -0.1077 -0.3260
  953loPI   GL215238  12.980  12.139   6.032  0.3015 -0.2100 -0.5831
  953loPI   C1A15239  13.499  12.239   6.350 -0.0927 -0.1494  0.0722
  953loPI   C2A15240  13.680  12.172   6.789  0.0796 -0.0418 -0.0539
  953loPI   C3A15241  13.678  12.324   7.289 -0.3945  0.2498 -0.0846
  953loPI   C4A15242  13.883  12.322   7.751  0.1154 -0.2376  0.1487
  953loPI   C5A15243  14.294  12.382   7.918 -0.0589  0.2312  0.2021
  953loPI   C6A15244  14.728  12.362   7.731  0.0225  0.0552 -0.1040
  953loPI   C1B15245  12.820  12.322   6.409  0.0814 -0.5125  0.0538
  953loPI   C2B15246  12.716  12.443   6.927 -0.0851  0.2076 -0.1219
  953loPI   C3B15247  12.730  12.597   7.307  0.0962 -0.2701 -0.0299
  953loPI   C4B15248  12.868  12.887   7.656  0.0840 -0.1818  0.1416
  954loPI    C115249   3.218   9.055   5.258  0.0857  0.1001  0.0769
  954loPI    C215250   2.926   9.102   4.989  0.0346  0.1078  0.1336
  954loPI    C315251   3.296   9.011   4.868 -0.0436 -0.1411  0.0762
  954loPI   PO415252   3.068   8.957   5.523 -0.1136 -0.1386  0.1654
  954loPI   GL115253   2.792   8.752   5.835 -0.0104 -0.0121  0.1496
  954loPI   GL215254   3.184   8.532   5.869  0.1511 -0.0939  0.3026
  954loPI   C1A15255   2.604   8.777   6.318  0.1533  0.1683  0.0072
  954loPI   C2A15256   2.578   8.807   6.787 -0.2203 -0.1816  0.2124
  954loPI   C3A15257   2.529   8.831   7.317  0.3236  0.0759  0.1626
  954loPI   C4A15258   2.649   8.884   7.722 -0.1160 -0.3533  0.1202
  954loPI   C5A15259   2.557   8.836   8.131 -0.1631  0.2146  0.4166
  954loPI   C6A15260   2.352   8.864   8.547 -0.0115  0.0419  0.2647
  954loPI   C1B15261   3.032   8.404   6.313 -0.0247  0.2242  0.1759
  954loPI   C2B15262   2.932   8.379   6.704 -0.2438 -0.4729 -0.3086
  954loPI   C3B15263   2.901   8.332   7.157  0.0014 -0.0591 -0.1732
  954loPI   C4B15264   2.790   8.435   7.567  0.0841 -0.1898  0.1568
  955loPI    C115265   6.203   6.749   4.712 -0.0019 -0.3890 -0.1564
  955loPI    C215266   5.817   6.722   4.608 -0.1112  0.1351  0.0803
  955loPI    C315267   6.086   6.856   4.344 -0.1444  0.0830  0.0195
  955loPI   PO415268   6.263   6.842   5.021  0.0930 -0.2290 -0.2369
  955loPI   GL115269   6.384   6.785   5.552 -0.1155  0.0805 -0.2026
  955loPI   GL215270   6.647   6.867   5.597 -0.2162 -0.1410  0.0290
  955loPI   C1A15271   6.250   6.855   5.954  0.0440  0.3837  0.2439
  955loPI   C2A15272   6.194   6.896   6.429  0.0598 -0.0490 -0.2602
  955loPI   C3A15273   6.208   6.967   6.865 -0.0853  0.3053  0.2165
  955loPI   C4A15274   6.083   6.980   7.246 -0.1187  0.1837 -0.2258
  955loPI   C5A15275   6.089   6.925   7.665  0.2629  0.1527 -0.0324
  955loPI   C6A15276   6.172   6.685   8.064 -0.0589 -0.1575 -0.3236
  955loPI   C1B15277   6.692   7.085   5.982  0.3976  0.0974 -0.2825
  955loPI   C2B15278   6.517   7.254   6.391  0.0943  0.4044  0.0058
  955loPI   C3B15279   6.542   7.383   6.792 -0.0605 -0.3314 -0.1362
  955loPI   C4B15280   6.556   7.386   7.230 -0.1772 -0.1077  0.3327
  956loPI    C115281  15.434  14.980   5.049 -0.2054  0.1742  0.0215
  956loPI    C215282  15.442  15.199   4.714 -0.1890  0.0390 -0.0672
  956loPI    C315283  15.503  14.804   4.696  0.2109  0.0861  0.1417
  956loPI   PO415284  15.176  15.028   5.132 -0.1929  0.1119 -0.2928
  956loPI   GL115285  15.060  15.134   5.446  0.0697 -0.1971  0.0539
  956loPI   GL215286  15.052  15.361   5.728  0.1921  0.0325  0.0376
  956loPI   C1A15287  15.022  14.872   5.864 -0.2930 -0.3041  0.0386
  956loPI   C2A15288  14.884  14.851   6.388  0.1116 -0.0712 -0.0737
  956loPI   C3A15289  14.974  14.893   6.848  0.0565 -0.0357 -0.2271
  956loPI   C4A15290  14.955  14.927   7.283 -0.0350 -0.2653  0.0885
  956loPI   C5A15291  14.905  15.049   7.714  0.1221 -0.2779  0.3280
  956loPI   C6A15292  14.962  14.964   8.055  0.1005 -0.1594  0.3910
  956loPI   C1B15293  15.007  15.285   6.147 -0.0304 -0.1433  0.0857
  956loPI   C2B15294  15.157  15.286   6.586 -0.1912  0.2090 -0.0039
  956loPI   C3B15295  15.143  15.332   7.010  0.1256  0.1280  0.0478
  956loPI   C4B15296  15.104  15.379   7.407  0.1327  0.0945 -0.2581
  957loPI    C115297   2.159  11.405   5.358  0.2519 -0.0761  0.0281
  957loPI    C215298   2.172  11.183   5.025 -0.1201 -0.0235 -0.0269
  957loPI    C315299   2.034  11.558   5.010  0.1255  0.0764  0.1388
  957loPI   PO415300   1.923  11.194   5.501 -0.3505  0.2824  0.0763
  957loPI   GL115301   1.513  11.244   5.676  0.0707 -0.0139  0.1964
  957loPI   GL215302   1.205  11.008   5.714  0.0948 -0.0196 -0.4576
  957loPI   C1A15303   1.679  11.353   6.087  0.0306  0.2404  0.3357
  957loPI   C2A15304   1.706  11.333   6.565  0.2650  0.0540  0.0715
  957loPI   C3A15305   1.671  11.433   6.927  0.0538  0.2984 -0.0509
  957loPI   C4A15306   1.757  11.430   7.294  0.1477 -0.0359 -0.1422
  957loPI   C5A15307   1.760  11.374   7.725  0.0337 -0.2603 -0.2365
  957loPI   C6A15308   1.588  11.396   8.044  0.1801 -0.2752 -0.3373
  957loPI   C1B15309   1.172  11.310   6.022  0.2929  0.0552 -0.0164
  957loPI   C2B15310   1.217  11.245   6.408  0.1727  0.0187  0.0840
  957loPI   C3B15311   1.220  11.346   6.786  0.2103  0.0394 -0.2116
  957loPI   C4B15312   1.234  11.314   7.193  0.0664 -0.3277  0.0182
  958loPI    C115313  14.428  13.079   5.277  0.2416  0.0033 -0.2551
  958loPI    C215314  14.499  13.472   5.307  0.1944 -0.0092  0.0526
  958loPI    C315315  14.163  13.317   5.460  0.2631 -0.1852  0.0282
  958loPI   PO415316  14.570  12.977   5.390 -0.1688  0.0573 -0.1254
  958loPI   GL115317  14.486  12.802   5.805 -0.0631  0.0867 -0.3190
  958loPI   GL215318  14.510  13.196   5.838  0.0026  0.0150  0.0514
  958loPI   C1A15319  14.416  12.677   6.277 -0.2330 -0.0362  0.2274
  958loPI   C2A15320  14.314  12.649   6.626 -0.0391  0.0504  0.0618
  958loPI   C3A15321  14.107  12.643   6.956 -0.2483 -0.0265  0.1540
  958loPI   C4A15322  13.776  12.801   7.209  0.1678  0.1362  0.0713
  958loPI   C5A15323  13.697  13.158   7.464 -0.2721  0.1780  0.3158
  958loPI   C6A15324  13.876  13.390   7.676  0.0041  0.1348  0.0989
  958loPI   C1B15325  14.447  13.275   6.252  0.0885  0.0502  0.0514
  958loPI   C2B15326  14.480  13.137   6.759 -0.0069  0.1948  0.0224
  958loPI   C3B15327  14.683  13.168   7.229 -0.0609  0.1937  0.1288
  958loPI   C4B15328  14.888  12.774   7.434  0.0047 -0.1752 -0.0263
  959loPI    C115329   8.306   1.577   5.476 -0.1536  0.0472 -0.1484
  959loPI    C215330   8.548   1.781   5.721 -0.1006 -0.1055 -0.0724
  959loPI    C315331   8.703   1.554   5.431 -0.1575 -0.0857 -0.1184
  959loPI   PO415332   8.097   1.781   5.390  0.0674  0.0470  0.1070
  959loPI   GL115333   7.829   1.887   5.815 -0.0257 -0.1192  0.0995
  959loPI   GL215334   8.094   1.863   5.853  0.0473  0.0414 -0.2143
  959loPI   C1A15335   7.612   1.794   6.165  0.1029 -0.3702 -0.2508
  959loPI   C2A15336   7.501   2.052   6.532  0.0598  0.1946 -0.0439
  959loPI   C3A15337   7.510   2.005   6.986  0.1894 -0.1912  0.1320
  959loPI   C4A15338   7.561   2.107   7.534 -0.3016  0.0698  0.2070
  959loPI   C5A15339   7.358   2.192   7.908 -0.0500  0.2867  0.0547
  959loPI   C6A15340   7.399   2.161   8.380  0.0298 -0.1078  0.1712
  959loPI   C1B15341   8.048   2.013   6.339  0.0469  0.1159 -0.0435
  959loPI   C2B15342   7.938   2.100   6.751  0.0345  0.1201  0.0857
  959loPI   C3B15343   8.075   2.146   7.148  0.2004  0.0821  0.0240
  959loPI   C4B15344   8.149   2.169   7.538 -0.0021 -0.1993  0.1368
  960loPI    C115345  14.382   1.087   5.067  0.0413  0.2876 -0.1683
  960loPI    C215346  14.092   1.015   4.802 -0.1856  0.3807  0.0509
  960loPI    C315347  14.473   1.028   4.682 -0.2596  0.1496 -0.2209
  960loPI   PO415348  14.358   0.968   5.263 -0.0508  0.0839 -0.0524
  960loPI   GL115349  14.419   1.080   5.628 -0.5015  0.2326 -0.2079
  960loPI   GL215350  14.144   1.049   5.758  0.2516 -0.0575  0.0812
  960loPI   C1A15351  14.492   0.951   6.037  0.0477 -0.0929 -0.2287
  960loPI   C2A15352  14.511   0.874   6.434 -0.2708  0.2827  0.2922
  960loPI   C3A15353  14.455   0.984   6.787 -0.0496  0.1363  0.0356
  960loPI   C4A15354  14.419   0.939   7.247  0.0355 -0.0776  0.1059
  960loPI   C5A15355  14.213   1.016   7.687  0.3436  0.1589  0.1600
  960loPI   C6A15356  13.808   0.951   7.962  0.3407  0.0222  0.0995
  960loPI   C1B15357  13.985   0.915   6.125 -0.1321 -0.0024  0.0416
  960loPI   C2B15358  13.930   0.887   6.578  0.2931  0.1854  0.1517
  960loPI   C3B15359  13.926   0.838   7.008  0.3167  0.0240  0.1143
  960loPI   C4B15360  13.892   0.818   7.358  0.1186 -0.1178 -0.2904
  961loPI    C115361   4.567  15.963   4.477  0.0504 -0.2273 -0.0038
  961loPI    C215362   4.341  15.721   4.252 -0.1509  0.1061 -0.1665
  961loPI    C315363   4.489  16.059   4.097  0.4690 -0.1068 -0.0641
  961loPI   PO415364   4.536  15.935   4.656  0.0474 -0.1128 -0.1356
  961loPI   GL115365   4.329  16.060   5.071  0.1300  0.1230  0.0208
  961loPI   GL215366   4.014  15.865   5.127 -0.1357 -0.0780 -0.0784
  961loPI   C1A15367   4.477  16.003   5.404  0.3303 -0.0571 -0.0143
  961loPI   C2A15368   4.559  15.931   5.768  0.1840  0.0141  0.0061
  961loPI   C3A15369   4.527  16.068   6.230  0.2574  0.0986 -0.3575
  961loPI   C4A15370   4.503  16.090   6.612  0.0068  0.1206  0.2841
  961loPI   C5A15371   4.454  15.980   7.053  0.0327 -0.1861  0.2212
  961loPI   C6A15372   4.316  15.948   7.425  0.1110 -0.0434  0.1360
  961loPI   C1B15373   3.984  15.987   5.618  0.0239 -0.2095 -0.2246
  961loPI   C2B15374   3.972  16.044   6.044 -0.0958  0.0105  0.2394
  961loPI   C3B15375   3.921  16.001   6.436  0.0172 -0.1934 -0.2035
  961loPI   C4B15376   4.031  16.088   6.900 -0.1178 -0.0856 -0.1244
  962loPI    C115377  13.811  11.174   5.854 -0.1461  0.0231  0.0553
  962loPI    C215378  13.525  11.154   5.575 -0.1882 -0.1115  0.1073
  962loPI    C315379  13.786  11.457   5.573 -0.0634 -0.2174 -0.1986
  962loPI   PO415380  13.883  10.893   5.894  0.2380  0.2850 -0.3850
  962loPI   GL115381  13.890  10.697   6.233  0.1673  0.5806  0.1973
  962loPI   GL215382  14.125  10.496   6.302 -0.0325  0.1610 -0.0414
  962loPI   C1A15383  13.940  10.762   6.705 -0.1757 -0.0354 -0.0147
  962loPI   C2A15384  14.083  10.701   7.148 -0.1294 -0.1594 -0.0017
  962loPI   C3A15385  14.267  10.547   7.500 -0.0530  0.3335  0.0911
  962loPI   C4A15386  14.429  10.278   7.793 -0.0109  0.1877 -0.2595
  962loPI   C5A15387  14.601  10.491   8.200 -0.0071 -0.1788 -0.0632
  962loPI   C6A15388  14.642  10.606   8.587 -0.1868  0.0118  0.0097
  962loPI   C1B15389  14.387  10.760   6.492 -0.0847 -0.0097  0.0313
  962loPI   C2B15390  14.459  10.873   6.849 -0.1167 -0.2527  0.0186
  962loPI   C3B15391  14.472  10.948   7.337  0.1748  0.2069 -0.1296
  962loPI   C4B15392  14.594  10.800   7.774 -0.0148  0.0008  0.2765
  963loPI    C115393   8.851   2.424   5.162  0.0274 -0.1342  0.1162
  963loPI    C215394   8.495   2.485   4.990  0.0380  0.1966  0.2031
  963loPI    C315395   8.716   2.167   4.888 -0.1155  0.1909 -0.1257
  963loPI   PO415396   8.932   2.361   5.375 -0.0356  0.2411  0.1537
  963loPI   GL115397   8.763   2.324   5.829 -0.1194  0.0578  0.1923
  963loPI   GL215398   8.469   2.282   5.929 -0.1228  0.0914  0.2135
  963loPI   C1A15399   9.018   2.036   6.170 -0.2113  0.2118 -0.0256
  963loPI   C2A15400   9.182   2.117   6.547 -0.0852 -0.0871 -0.1266
  963loPI   C3A15401   9.174   2.363   6.957  0.2697  0.0880 -0.1450
  963loPI   C4A15402   9.163   2.435   7.365 -0.0443  0.1988 -0.2638
  963loPI   C5A15403   9.027   2.366   7.739  0.0178 -0.0780  0.1862
  963loPI   C6A15404   8.764   2.553   8.103  0.1092  0.1674  0.1470
  963loPI   C1B15405   8.553   2.289   6.411 -0.1257  0.0933 -0.0125
  963loPI   C2B15406   8.565   2.167   6.866  0.3546  0.2997 -0.0912
  963loPI   C3B15407   8.626   2.185   7.270  0.2743  0.2472 -0.1782
  963loPI   C4B15408   8.640   2.061   7.653  0.0228 -0.1419  0.2121
  964loPI    C115409   9.647   4.739   4.967  0.0702 -0.2012  0.1076
  964loPI    C215410   9.511   4.915   4.634 -0.1703 -0.2309  0.1883
  964loPI    C315411   9.781   4.621   4.609 -0.1617 -0.2095  0.0219
  964loPI   PO415412   9.475   4.664   5.145  0.2325 -0.1899 -0.0864
  964loPI   GL115413   9.539   4.633   5.617 -0.2507  0.0703  0.2981
  964loPI   GL215414   9.153   4.625   5.759 -0.0175 -0.2528 -0.1046
  964loPI   C1A15415   9.691   4.737   6.077  0.1191 -0.1110  0.1123
  964loPI   C2A15416   9.738   4.916   6.480  0.2663 -0.0708 -0.1225
  964loPI   C3A15417   9.820   4.996   6.923 -0.0876 -0.0394  0.0490
  964loPI   C4A15418   9.906   5.076   7.383 -0.0704 -0.0304  0.0802
  964loPI   C5A15419  10.079   5.272   7.767  0.2699 -0.2925 -0.3453
  964loPI   C6A15420   9.941   5.306   8.188 -0.4288  0.1062 -0.1774
  964loPI   C1B15421   9.280   4.548   6.270 -0.3412  0.2256 -0.2470
  964loPI   C2B15422   9.398   4.586   6.732  0.3303  0.2539  0.0890
  964loPI   C3B15423   9.281   4.595   7.180 -0.3042  0.0719 -0.0390
  964loPI   C4B15424   9.577   4.534   7.506 -0.4814 -0.1366  0.0147
  965loPI    C115425   1.226  10.618   4.860 -0.0406 -0.0271 -0.0049
  965loPI    C215426   1.549  10.434   4.714  0.0250  0.0751  0.0103
  965loPI    C315427   1.322  10.659   4.473 -0.0252  0.0174  0.0036
  965loPI   PO415428   1.223  10.500   5.106 -0.1061  0.4971  0.1284
  965loPI   GL115429   1.090  10.555   5.491  0.1806 -0.1578 -0.0627
  965loPI   GL215430   0.820  10.738   5.718 -0.2909 -0.0625  0.2536
  965loPI   C1A15431   1.298  10.471   5.875 -0.0608  0.2294 -0.0637
  965loPI   C2A15432   1.314  10.389   6.262 -0.3283  0.1651 -0.2376
  965loPI   C3A15433   1.416  10.404   6.751 -0.0760  0.1849 -0.1365
  965loPI   C4A15434   1.303  10.374   7.219 -0.0240  0.1079 -0.2794
  965loPI   C5A15435   1.188  10.248   7.617 -0.1335  0.2367  0.1363
  965loPI   C6A15436   0.767  10.384   7.777 -0.1437 -0.2415 -0.2773
  965loPI   C1B15437   0.969  10.787   6.097 -0.0892 -0.1287  0.1222
  965loPI   C2B15438   0.999  10.826   6.509 -0.0587 -0.2626  0.0935
  965loPI   C3B15439   1.063  10.921   6.853 -0.2758  0.0649 -0.0862
  965loPI   C4B15440   1.043  10.849   7.311  0.0859 -0.0938 -0.2473
  966loPI    C115441   3.435  16.496   4.826  0.0080 -0.1696  0.0993
  966loPI    C215442   3.065  16.560   4.688  0.0690 -0.0189  0.0021
  966loPI    C315443   3.377  16.738   4.513  0.1800 -0.0811  0.1343
  966loPI   PO415444   3.423  16.520   5.135 -0.0326 -0.1100  0.0280
  966loPI   GL115445   3.650  16.432   5.425  0.0975 -0.0324  0.2905
  966loPI   GL215446   3.824  16.801   5.465 -0.0683 -0.0169 -0.0977
  966loPI   C1A15447   3.743  16.465   5.864 -0.0776 -0.1606  0.2223
  966loPI   C2A15448   3.661  16.408   6.214 -0.3435  0.0130 -0.0002
  966loPI   C3A15449   3.612  16.439   6.554 -0.0573 -0.0088 -0.1366
  966loPI   C4A15450   3.639  16.414   7.000 -0.1878  0.2958  0.0128
  966loPI   C5A15451   3.788  16.381   7.436 -0.0255  0.1720  0.0602
  966loPI   C6A15452   3.698  16.548   7.827  0.0188  0.1027  0.2007
  966loPI   C1B15453   3.957  16.907   5.845  0.1572  0.0227 -0.0885
  966loPI   C2B15454   3.878  16.872   6.205 -0.0868 -0.5291  0.2066
  966loPI   C3B15455   3.839  16.917   6.629 -0.1935  0.1438 -0.2353
  966loPI   C4B15456   3.889  16.834   7.058 -0.0865  0.2045 -0.2950
  967loPI    C115457   3.529   6.907   5.184  0.2478  0.1662 -0.0190
  967loPI    C215458   3.790   6.622   5.080  0.1270  0.0593 -0.0315
  967loPI    C315459   3.549   6.783   4.804  0.0875  0.0632  0.0052
  967loPI   PO415460   3.453   6.852   5.424 -0.1642  0.2826  0.2557
  967loPI   GL115461   3.621   6.862   5.840 -0.4286 -0.0237 -0.0070
  967loPI   GL215462   4.019   6.825   5.998 -0.0056  0.2707 -0.3054
  967loPI   C1A15463   3.627   6.757   6.308 -0.5625  0.0743 -0.0975
  967loPI   C2A15464   3.726   6.679   6.709  0.0566  0.3298  0.1234
  967loPI   C3A15465   3.672   6.705   7.128  0.2672 -0.1239  0.1298
  967loPI   C4A15466   3.645   6.590   7.586 -0.0934 -0.0107 -0.0175
  967loPI   C5A15467   3.423   6.578   7.971 -0.0475 -0.2730 -0.2594
  967loPI   C6A15468   3.257   6.340   8.264  0.1056 -0.0184  0.1714
  967loPI   C1B15469   4.134   6.674   6.430  0.0029  0.2083  0.1757
  967loPI   C2B15470   4.179   6.740   6.875  0.1729  0.0509  0.0493
  967loPI   C3B15471   4.219   6.752   7.296 -0.3217  0.1491 -0.1068
  967loPI   C4B15472   4.327   6.757   7.717  0.2664 -0.1159 -0.2590
  968loPI    C115473  16.624  10.991   5.246 -0.2631 -0.1816  0.1047
  968loPI    C215474  16.807  11.345   5.275 -0.1208 -0.2475  0.0213
  968loPI    C315475  16.480  11.308   5.048 -0.0708 -0.1948 -0.0604
  968loPI   PO415476  16.700  10.852   5.506  0.1861 -0.0039 -0.0642
  968loPI   GL115477  16.433  10.832   5.893  0.0199  0.0470  0.3271
  968loPI   GL215478  16.614  10.486   5.901  0.0257  0.0456 -0.2222
  968loPI   C1A15479  16.580  11.041   6.269  0.2743  0.2216 -0.0668
  968loPI   C2A15480  16.525  11.001   6.653 -0.0249 -0.0060  0.3613
  968loPI   C3A15481  16.526  11.019   7.059 -0.0031  0.1478  0.2098
  968loPI   C4A15482  16.556  10.973   7.511  0.1056  0.0220  0.1072
  968loPI   C5A15483  16.482  11.095   8.006  0.2309 -0.1611 -0.0803
  968loPI   C6A15484  16.586  11.092   8.342  0.1696 -0.0795 -0.2941
  968loPI   C1B15485  16.828  10.578   6.335 -0.0753  0.0759  0.0181
  968loPI   C2B15486  16.777  10.536   6.724 -0.4090 -0.2148 -0.0165
  968loPI   C3B15487  16.769  10.574   7.164  0.2444  0.0916  0.1812
  968loPI   C4B15488  16.836  10.517   7.632  0.4425  0.0054  0.0373
  969loPI    C115489   2.593  11.450   4.845 -0.2753 -0.2089  0.1538
  969loPI    C215490   2.954  11.285   4.796 -0.0461  0.2854  0.1061
  969loPI    C315491   2.744  11.405   4.477 -0.3035 -0.0893  0.1271
  969loPI   PO415492   2.546  11.600   5.017 -0.0229 -0.0414  0.1811
  969loPI   GL115493   2.618  11.572   5.524 -0.1266 -0.0540  0.3272
  969loPI   GL215494   2.626  11.867   5.732 -0.2037 -0.0348  0.0200
  969loPI   C1A15495   2.738  11.417   5.932 -0.0393 -0.0225  0.4842
  969loPI   C2A15496   2.719  11.444   6.429 -0.0011  0.0298 -0.2224
  969loPI   C3A15497   2.773  11.554   6.851  0.1033  0.3981  0.1577
  969loPI   C4A15498   2.780  11.509   7.284 -0.1773 -0.0901  0.1922
  969loPI   C5A15499   2.803  11.383   7.771 -0.2702  0.1580  0.2273
  969loPI   C6A15500   3.161  11.488   8.076 -0.0506 -0.1948 -0.0288
  969loPI   C1B15501   2.481  11.791   6.163  0.0090  0.2327 -0.1111
  969loPI   C2B15502   2.388  11.854   6.592  0.1940  0.1388 -0.0109
  969loPI   C3B15503   2.475  11.881   6.991 -0.1407  0.0467 -0.1334
  969loPI   C4B15504   2.355  11.941   7.456 -0.0342 -0.1538  0.3195
  970loPI    C115505   0.713   3.171   5.464  0.0721  0.0232  0.2335
  970loPI    C215506   0.544   3.271   5.813  0.0224 -0.1763  0.2676
  970loPI    C315507   0.810   2.972   5.798  0.0621 -0.1353  0.1427
  970loPI   PO415508   0.793   3.400   5.314 -0.0146 -0.0382  0.1817
  970loPI   GL115509   1.017   3.544   5.706  0.2690 -0.2881  0.2850
  970loPI   GL215510   1.172   3.287   5.763 -0.0606 -0.2203  0.2811
  970loPI   C1A15511   1.256   3.655   6.093 -0.0115  0.1114 -0.0842
  970loPI   C2A15512   1.348   3.656   6.494  0.0243 -0.1861  0.0224
  970loPI   C3A15513   1.398   3.617   6.926  0.3523 -0.1311 -0.2088
  970loPI   C4A15514   1.337   3.728   7.313  0.0096 -0.2039  0.2567
  970loPI   C5A15515   1.206   3.449   7.628 -0.1852 -0.0285 -0.0646
  970loPI   C6A15516   0.871   3.577   7.889 -0.0487 -0.0435  0.1841
  970loPI   C1B15517   1.019   3.187   6.189 -0.1408  0.1911  0.3325
  970loPI   C2B15518   1.100   3.240   6.560  0.1194 -0.1472  0.3359
  970loPI   C3B15519   0.920   3.358   7.031  0.0498  0.4469 -0.1046
  970loPI   C4B15520   0.775   3.294   7.450 -0.1458 -0.0247 -0.2188
  971loPI    C115521  15.673  13.117   5.162 -0.2242 -0.1386  0.0373
  971loPI    C215522  15.296  13.183   5.045 -0.1826 -0.0364 -0.0409
  971loPI    C315523  15.574  13.082   4.776 -0.0206  0.4952 -0.0846
  971loPI   PO415524  15.696  13.284   5.341 -0.2094 -0.0985  0.1689
  971loPI   GL115525  15.480  13.537   5.658  0.1298 -0.2635 -0.0291
  971loPI   GL215526  15.223  13.635   5.803  0.1100 -0.0254 -0.1366
  971loPI   C1A15527  15.652  13.654   6.044  0.0787  0.1371 -0.0085
  971loPI   C2A15528  15.513  14.038   6.421  0.2438 -0.0599  0.2541
  971loPI   C3A15529  15.459  14.124   6.860 -0.3172 -0.0933  0.0370
  971loPI   C4A15530  15.531  14.210   7.253  0.0156 -0.0232 -0.3040
  971loPI   C5A15531  15.465  14.211   7.650  0.2133  0.0369 -0.3245
  971loPI   C6A15532  15.118  14.132   8.035 -0.0690 -0.1371  0.1806
  971loPI   C1B15533  15.236  13.605   6.295 -0.1610  0.0659  0.1410
  971loPI   C2B15534  15.301  13.560   6.761 -0.0975  0.2313  0.3867
  971loPI   C3B15535  15.309  13.696   7.175 -0.1169 -0.2031 -0.1785
  971loPI   C4B15536  15.316  13.740   7.568  0.1456  0.3468 -0.2733
  972loPI    C115537  16.191  10.099   5.413  0.1538  0.1127 -0.0240
  972loPI    C215538  16.447  10.030   5.114 -0.0713  0.0824 -0.2130
  972loPI    C315539  16.084   9.864   5.108 -0.1622  0.2703 -0.0386
  972loPI   PO415540  16.306  10.144   5.685 -0.1107 -0.1907  0.0764
  972loPI   GL115541  16.393  10.049   6.111 -0.2103  0.0042 -0.0808
  972loPI   GL215542  16.339   9.878   6.157 -0.1141  0.2747 -0.1633
  972loPI   C1A15543  16.563  10.135   6.542 -0.4951 -0.0953  0.2990
  972loPI   C2A15544  16.584  10.158   6.983 -0.1558 -0.1164  0.1312
  972loPI   C3A15545  16.580  10.157   7.410  0.2098  0.0235  0.0533
  972loPI   C4A15546  16.637  10.077   7.855 -0.1295 -0.0150 -0.1866
  972loPI   C5A15547  16.862  10.279   8.183  0.0595  0.1236  0.0799
  972loPI   C6A15548  17.049  10.479   8.585 -0.0534  0.1756 -0.0674
  972loPI   C1B15549  16.268   9.752   6.617 -0.0929  0.1541  0.2746
  972loPI   C2B15550  16.307   9.749   7.073 -0.3891  0.0909 -0.1083
  972loPI   C3B15551  16.350   9.602   7.466 -0.0069  0.3359  0.3039
  972loPI   C4B15552  16.399   9.629   7.933 -0.1097  0.0352  0.1072
  973loPI    C115553  11.935  12.628   5.282  0.0565  0.0814 -0.1552
  973loPI    C215554  11.672  12.742   5.561  0.0478 -0.0463 -0.1104
  973loPI    C315555  11.598  12.815   5.175 -0.0241 -0.0268 -0.0931
  973loPI   PO415556  12.210  12.744   5.327 -0.3099  0.0598 -0.0514
  973loPI   GL115557  12.277  12.948   5.844 -0.3958  0.0867  0.0271
  973loPI   GL215558  12.035  12.951   5.802 -0.0383 -0.1667  0.3531
  973loPI   C1A15559  12.545  13.045   6.231 -0.1723  0.0578 -0.0256
  973loPI   C2A15560  12.322  13.192   6.641 -0.1919 -0.2668  0.3907
  973loPI   C3A15561  12.281  13.226   7.014  0.1487  0.3734  0.1227
  973loPI   C4A15562  12.394  13.482   7.264 -0.0428  0.2480 -0.0125
  973loPI   C5A15563  12.600  13.607   7.562 -0.0930  0.1260 -0.0273
  973loPI   C6A15564  12.798  13.726   7.923 -0.0417 -0.0753  0.0050
  973loPI   C1B15565  12.008  13.031   6.252  0.1144  0.0099  0.2051
  973loPI   C2B15566  11.855  12.954   6.638  0.1261 -0.1681 -0.1480
  973loPI   C3B15567  11.806  12.999   7.035 -0.2863 -0.0229 -0.1177
  973loPI   C4B15568  11.988  13.235   7.420 -0.4586  0.2926  0.1191
  974loPI    C115569  18.031  14.582   5.177  0.3848  0.0694  0.1371
  974loPI    C215570  18.197  14.916   5.035  0.0746  0.1290 -0.0960
  974loPI    C315571  18.204  14.581   4.817  0.0023  0.0990 -0.0524
  974loPI   PO415572  17.952  14.672   5.404  0.1365 -0.1049  0.1071
  974loPI   GL115573  17.995  14.944   5.812  0.2077 -0.3836 -0.0539
  974loPI   GL215574  17.835  14.565   5.859 -0.1325 -0.2039  0.1926
  974loPI   C1A15575  18.025  15.092   6.164  0.0384  0.2833  0.1419
  974loPI   C2A15576  17.951  15.228   6.555  0.0399  0.1631 -0.2675
  974loPI   C3A15577  17.979  15.221   6.987 -0.1467  0.1870  0.1689
  974loPI   C4A15578  17.930  15.301   7.420  0.1937  0.0702  0.4503
  974loPI   C5A15579  17.890  15.690   7.626  0.0909 -0.0510 -0.2259
  974loPI   C6A15580  17.849  16.020   7.807  0.1085 -0.0070  0.3807
  974loPI   C1B15581  17.881  14.634   6.277 -0.1687 -0.1916  0.0746
  974loPI   C2B15582  17.804  14.767   6.709 -0.0885  0.2348 -0.0128
  974loPI   C3B15583  17.714  14.764   7.120  0.1324  0.1486 -0.0810
  974loPI   C4B15584  17.730  14.657   7.548  0.0029 -0.1209 -0.2523
  975loPI    C115585   7.148   6.255   5.120 -0.0562  0.2206 -0.1431
  975loPI    C215586   7.281   5.987   4.855 -0.1385  0.1445 -0.1080
  975loPI    C315587   7.258   6.373   4.755  0.0240  0.1458 -0.1435
  975loPI   PO415588   7.327   6.163   5.321  0.0261 -0.0336  0.1025
  975loPI   GL115589   7.464   6.161   5.699 -0.1151  0.2333  0.0665
  975loPI   GL215590   7.713   6.323   5.541  0.0149 -0.3518 -0.0967
  975loPI   C1A15591   7.499   6.097   6.073  0.1319 -0.0949  0.0335
  975loPI   C2A15592   7.742   6.129   6.436  0.3663 -0.1942  0.2189
  975loPI   C3A15593   7.613   5.995   6.679  0.0341  0.0277 -0.1222
  975loPI   C4A15594   7.360   5.731   6.882  0.1006 -0.1171 -0.0284
  975loPI   C5A15595   7.078   5.781   7.273  0.0364 -0.0291  0.2533
  975loPI   C6A15596   6.900   5.435   7.443 -0.0695 -0.0812  0.0509
  975loPI   C1B15597   7.957   6.168   5.831  0.0336 -0.2348  0.1891
  975loPI   C2B15598   8.219   6.025   6.253  0.1965 -0.0712  0.2728
  975loPI   C3B15599   8.189   5.849   6.687 -0.0390 -0.4356 -0.0320
  975loPI   C4B15600   8.080   5.850   7.205  0.0169 -0.2959  0.3736
  976loPI    C115601  16.849   8.656   5.736  0.0787 -0.1273 -0.0332
  976loPI    C215602  17.085   8.639   5.414  0.0066  0.0671 -0.0981
  976loPI    C315603  16.717   8.793   5.385 -0.0416 -0.0161  0.0542
  976loPI   PO415604  16.998   8.849   5.866  0.1349 -0.0364  0.0718
  976loPI   GL115605  17.191   8.837   6.266 -0.0140  0.2752  0.2206
  976loPI   GL215606  17.478   8.882   6.392  0.0859 -0.2813 -0.3207
  976loPI   C1A15607  16.990   8.854   6.600  0.1094 -0.2051 -0.0443
  976loPI   C2A15608  17.004   8.865   7.021 -0.1443 -0.1484  0.0243
  976loPI   C3A15609  17.003   8.822   7.499 -0.0548 -0.1197 -0.0865
  976loPI   C4A15610  17.017   8.787   8.000 -0.1959  0.2586  0.2153
  976loPI   C5A15611  16.835   8.972   8.305  0.0586 -0.0979  0.1144
  976loPI   C6A15612  16.475   9.294   8.339  0.2015 -0.0216 -0.1914
  976loPI   C1B15613  17.487   8.929   6.811 -0.2941  0.3050  0.2953
  976loPI   C2B15614  17.500   8.813   7.208  0.1520  0.2758  0.0738
  976loPI   C3B15615  17.496   8.827   7.623 -0.0185  0.0203 -0.2478
  976loPI   C4B15616  17.597   8.824   8.108  0.0262  0.0370 -0.1586
  977loPI    C115617  18.171   3.906   5.327  0.0236 -0.3241 -0.0465
  977loPI    C215618  18.063   4.017   4.957 -0.2025  0.0768  0.1322
  977loPI    C315619  18.427   4.109   5.096 -0.0647 -0.1996 -0.0364
  977loPI   PO415620  18.146   3.638   5.436 -0.0624 -0.1814  0.0589
  977loPI   GL115621  17.971   3.420   5.948  0.1939  0.1067 -0.0141
  977loPI   GL215622  18.076   3.765   5.907 -0.0515 -0.2160 -0.1014
  977loPI   C1A15623  18.305   3.337   6.218 -0.0015  0.0629  0.1225
  977loPI   C2A15624  18.365   3.347   6.604  0.1270  0.0687  0.0729
  977loPI   C3A15625  18.566   3.398   7.018  0.2401 -0.1509  0.2832
  977loPI   C4A15626  18.692   3.591   7.424  0.1208  0.1803  0.0489
  977loPI   C5A15627  18.777   3.914   7.813  0.1553  0.1702  0.0866
  977loPI   C6A15628  18.428   4.062   8.086 -0.0313  0.1287 -0.1141
  977loPI   C1B15629  18.163   3.802   6.373 -0.0789  0.4022  0.0513
  977loPI   C2B15630  18.065   3.710   6.683  0.2923 -0.2162  0.3325
  977loPI   C3B15631  17.642   3.602   6.781 -0.0945 -0.3648 -0.0818
  977loPI   C4B15632  17.520   3.635   7.242 -0.1602 -0.2297 -0.0358
  978loPI    C115633   2.812  13.960   5.131  0.0955  0.0218 -0.0621
  978loPI    C215634   2.999  14.024   4.783 -0.0221 -0.1733 -0.1631
  978loPI    C315635   2.631  13.866   4.787 -0.1110  0.0322  0.0422
  978loPI   PO415636   2.784  14.171   5.278  0.0967 -0.1981 -0.0563
  978loPI   GL115637   2.588  14.260   5.619 -0.2575 -0.1578  0.1710
  978loPI   GL215638   2.682  14.505   5.709 -0.3572  0.1260 -0.1594
  978loPI   C1A15639   2.514  14.095   6.015 -0.2004  0.1350 -0.2432
  978loPI   C2A15640   2.586  14.135   6.470  0.1143 -0.1479  0.2495
  978loPI   C3A15641   2.514  14.131   6.935  0.1634  0.0777 -0.1529
  978loPI   C4A15642   2.558  14.141   7.320  0.1443 -0.0776 -0.1865
  978loPI   C5A15643   2.507  14.185   7.747  0.2324 -0.0302 -0.0473
  978loPI   C6A15644   2.259  14.426   8.084  0.2284 -0.0646  0.2543
  978loPI   C1B15645   2.739  14.576   6.140 -0.1841 -0.0355 -0.0613
  978loPI   C2B15646   2.837  14.641   6.579 -0.0251  0.3542 -0.2074
  978loPI   C3B15647   2.714  14.609   7.059  0.2441 -0.0282  0.2402
  978loPI   C4B15648   2.819  14.640   7.463 -0.0099  0.2324 -0.0194
  979loPI    C115649   2.250   1.229   5.097 -0.0145  0.2728 -0.0416
  979loPI    C215650   2.147   1.005   4.782  0.0038  0.0138  0.1334
  979loPI    C315651   1.968   1.358   4.844  0.0796  0.1201 -0.2266
  979loPI   PO415652   2.234   1.045   5.319 -0.1888 -0.0816  0.2190
  979loPI   GL115653   2.087   0.962   5.625 -0.0155  0.1235  0.1106
  979loPI   GL215654   1.825   0.850   5.884  0.1731  0.0508 -0.0065
  979loPI   C1A15655   2.212   1.060   6.001 -0.0631 -0.1948  0.2358
  979loPI   C2A15656   2.198   0.958   6.431 -0.1811 -0.1125 -0.1948
  979loPI   C3A15657   2.231   1.064   6.855 -0.1345 -0.2425  0.1144
  979loPI   C4A15658   2.250   0.997   7.290 -0.0678  0.1715  0.2003
  979loPI   C5A15659   2.076   1.138   7.652 -0.0022 -0.0405 -0.1151
  979loPI   C6A15660   1.738   1.245   7.856 -0.3054 -0.2398  0.0792
  979loPI   C1B15661   1.877   0.613   6.291 -0.1814 -0.2754  0.0472
  979loPI   C2B15662   1.972   0.587   6.756 -0.1275  0.1379  0.2691
  979loPI   C3B15663   1.953   0.515   7.145  0.2351 -0.0807 -0.0026
  979loPI   C4B15664   1.782   0.235   7.443  0.0565 -0.0954  0.0274
  980loPI    C115665  13.687  17.075   5.005 -0.1289  0.1892 -0.2106
  980loPI    C215666  13.481  16.765   4.859  0.1283 -0.0076 -0.1621
  980loPI    C315667  13.796  16.908   4.658 -0.0298  0.2686 -0.2184
  980loPI   PO415668  13.717  17.061   5.240 -0.2173  0.4184  0.0668
  980loPI   GL115669  14.007  17.062   5.592  0.0245  0.2638 -0.2308
  980loPI   GL215670  13.835  16.772   5.692 -0.3060 -0.0444 -0.3708
  980loPI   C1A15671  14.065  17.013   6.046  0.0690  0.1958 -0.0129
  980loPI   C2A15672  14.007  17.077   6.440 -0.0897  0.0317  0.0978
  980loPI   C3A15673  13.963  17.021   6.836 -0.1620  0.0290  0.2836
  980loPI   C4A15674  13.937  17.006   7.272  0.3209  0.0113 -0.0064
  980loPI   C5A15675  13.980  16.928   7.763 -0.2599 -0.1277 -0.1272
  980loPI   C6A15676  14.360  16.690   8.007  0.1015  0.0797 -0.0171
  980loPI   C1B15677  13.714  16.635   6.142 -0.3081  0.2560 -0.3700
  980loPI   C2B15678  13.743  16.567   6.605  0.1233  0.0669  0.2061
  980loPI   C3B15679  13.720  16.583   7.014 -0.0017  0.0720 -0.1640
  980loPI   C4B15680  13.703  16.582   7.449 -0.1309  0.1586  0.1386
  981loPI    C115681  17.342  17.810   5.365  0.2697 -0.0341 -0.1029
  981loPI    C215682  17.048  17.616   5.175  0.2936 -0.1099 -0.0628
  981loPI    C315683  17.266  17.888   4.979  0.2941 -0.1605 -0.1336
  981loPI   PO415684  17.457  17.674   5.532 -0.2026 -0.0456  0.1949
  981loPI   GL115685  17.460  17.604   5.854  0.0920  0.1416  0.3142
  981loPI   GL215686  17.155  17.460   5.856 -0.1427 -0.2837  0.0950
  981loPI   C1A15687  17.546  17.479   6.308 -0.0044 -0.4125  0.2876
  981loPI   C2A15688  17.585  17.407   6.722 -0.2081  0.3035  0.1092
  981loPI   C3A15689  17.495  17.442   7.134  0.0553 -0.0632  0.1365
  981loPI   C4A15690  17.393  17.324   7.569  0.0948 -0.0331 -0.2428
  981loPI   C5A15691  17.080  17.432   7.977 -0.0569 -0.0816 -0.1137
  981loPI   C6A15692  16.660  17.354   8.198 -0.2604  0.0685  0.0873
  981loPI   C1B15693  17.097  17.435   6.310  0.2267 -0.1581 -0.1696
  981loPI   C2B15694  17.034  17.430   6.768  0.0143  0.0856  0.1602
  981loPI   C3B15695  17.023  17.415   7.179  0.2666 -0.0714  0.1253
  981loPI   C4B15696  16.861  17.385   7.524 -0.0904  0.2756  0.0687
  982loPI    C115697  15.397   5.802   5.328  0.2616 -0.0114 -0.0432
  982loPI    C215698  15.441   5.724   4.938 -0.0842  0.2173 -0.1320
  982loPI    C315699  15.079   5.700   5.108  0.0844 -0.0071  0.2068
  982loPI   PO415700  15.617   5.773   5.441  0.1134 -0.3949  0.2343
  982loPI   GL115701  15.740   5.792   5.846  0.0349  0.0912 -0.2388
  982loPI   GL215702  15.894   6.044   5.831  0.0222 -0.2841 -0.0356
  982loPI   C1A15703  15.750   5.642   6.184  0.2964  0.0948  0.0192
  982loPI   C2A15704  15.826   5.759   6.588  0.1715 -0.1116  0.3824
  982loPI   C3A15705  15.863   5.700   7.000 -0.1521 -0.0680  0.1912
  982loPI   C4A15706  15.929   5.692   7.392  0.0874 -0.0493  0.2735
  982loPI   C5A15707  15.856   5.564   7.859  0.0288 -0.3754  0.2021
  982loPI   C6A15708  15.972   5.363   8.166 -0.0277 -0.0137 -0.2749
  982loPI   C1B15709  15.950   6.151   6.290  0.1616 -0.1291  0.0004
  982loPI   C2B15710  16.044   6.182   6.747  0.2474  0.1898  0.0314
  982loPI   C3B15711  16.018   6.168   7.143 -0.0240  0.0143 -0.0232
  982loPI   C4B15712  16.007   6.064   7.666 -0.1570  0.0048 -0.3102
  983loPI    C115713  10.683   6.773   5.383 -0.1238 -0.0882 -0.2632
  983loPI    C215714  10.937   6.975   5.148 -0.0202 -0.2194 -0.2652
  983loPI    C315715  10.983   6.581   5.201  0.1568 -0.1388  0.2342
  983loPI   PO415716  10.408   6.927   5.378  0.0384 -0.3429 -0.1966
  983loPI   GL115717  10.033   7.101   5.766 -0.1843  0.2038  0.0657
  983loPI   GL215718   9.852   7.126   5.683 -0.0027  0.5458  0.0933
  983loPI   C1A15719  10.101   7.140   6.197  0.0485  0.2244 -0.1316
  983loPI   C2A15720  10.154   7.149   6.665 -0.2368 -0.1497 -0.0588
  983loPI   C3A15721  10.167   7.140   7.101  0.1840 -0.1327 -0.0423
  983loPI   C4A15722  10.078   7.052   7.549 -0.2818  0.0937 -0.2284
  983loPI   C5A15723  10.123   7.185   7.963  0.0792  0.1428 -0.0367
  983loPI   C6A15724  10.346   7.466   8.094  0.0777  0.1321  0.2081
  983loPI   C1B15725   9.847   6.740   5.944  0.0566  0.0139  0.0723
  983loPI   C2B15726   9.842   6.778   6.429 -0.1677 -0.1673 -0.1533
  983loPI   C3B15727   9.792   6.857   6.765  0.1201  0.1132 -0.0940
  983loPI   C4B15728   9.783   6.820   7.232  0.1182  0.3902  0.2626
  984loPI    C115729   5.952  14.969   4.973 -0.1464  0.0292  0.0107
  984loPI    C215730   5.648  14.919   4.719  0.0652  0.0000 -0.2413
  984loPI    C315731   5.857  15.260   4.715 -0.0597  0.0831  0.0391
  984loPI   PO415732   5.845  14.818   5.266  0.0795  0.1890  0.1915
  984loPI   GL115733   5.693  15.037   5.623 -0.0843 -0.5261  0.0377
  984loPI   GL215734   6.038  15.214   5.623  0.0094 -0.0447 -0.1136
  984loPI   C1A15735   5.599  15.174   6.104 -0.0738 -0.1652  0.0556
  984loPI   C2A15736   5.557  15.339   6.461 -0.0432  0.2276  0.0783
  984loPI   C3A15737   5.448  15.297   6.887  0.2686 -0.2830 -0.0059
  984loPI   C4A15738   5.438  15.430   7.380  0.0097 -0.0979 -0.0069
  984loPI   C5A15739   5.634  15.361   7.695 -0.1392  0.0002  0.2309
  984loPI   C6A15740   5.765  15.313   8.173  0.1380 -0.0743  0.0479
  984loPI   C1B15741   6.105  15.165   5.940 -0.2063 -0.2632 -0.4086
  984loPI   C2B15742   6.077  15.276   6.316 -0.0795  0.1090  0.2592
  984loPI   C3B15743   5.973  15.322   6.707 -0.0308  0.0851  0.3200
  984loPI   C4B15744   6.037  15.311   7.175 -0.3415  0.2454  0.1636
  985loPI    C115745  12.398  17.523   4.885 -0.0378  0.1500 -0.0577
  985loPI    C215746  12.011  17.422   4.905  0.0602 -0.1995  0.1572
  985loPI    C315747  12.267  17.193   4.700  0.1673 -0.0046  0.0700
  985loPI   PO415748  12.416  17.623   5.144  0.0927 -0.1309 -0.3296
  985loPI   GL115749  12.461  17.716   5.601  0.1953  0.0787  0.0715
  985loPI   GL215750  12.281  17.774   5.749 -0.0179  0.3106  0.0953
  985loPI   C1A15751  12.732  17.667   6.071 -0.0963  0.1985  0.1404
  985loPI   C2A15752  12.853  17.682   6.440  0.0211 -0.1003  0.1029
  985loPI   C3A15753  12.921  17.792   6.848 -0.1160  0.0021 -0.2353
  985loPI   C4A15754  12.865  17.707   7.284 -0.1674  0.2602  0.2104
  985loPI   C5A15755  12.889  17.646   7.694  0.0874  0.1460 -0.1723
  985loPI   C6A15756  12.845  17.555   8.117 -0.3903  0.2606  0.2707
  985loPI   C1B15757  12.006  17.927   6.165 -0.1144 -0.1335 -0.2673
  985loPI   C2B15758  11.756  17.724   6.456  0.0393 -0.0810 -0.0177
  985loPI   C3B15759  11.434  17.807   6.687 -0.1227  0.1367  0.1488
  985loPI   C4B15760  11.248  17.730   7.129 -0.2322 -0.0047  0.2307
  986loPI    C115761   9.573  18.264   5.478  0.1184 -0.0041  0.1548
  986loPI    C215762   9.809  18.302   5.157  0.0285 -0.0489  0.0830
  986loPI    C315763   9.943  18.113   5.483  0.1696  0.1190  0.1235
  986loPI   PO415764   9.432  18.444   5.436  0.2946  0.2173 -0.1578
  986loPI   GL115765   9.160  18.436   5.709  0.2091  0.1144 -0.0279
  986loPI   GL215766   8.907  18.429   5.532 -0.0408 -0.1040  0.0220
  986loPI   C1A15767   9.238  18.571   6.120  0.1988 -0.1714 -0.2598
  986loPI   C2A15768   9.239  18.575   6.481 -0.2594  0.0537 -0.2869
  986loPI   C3A15769   9.091  18.647   6.826  0.0013 -0.0928 -0.0310
  986loPI   C4A15770   9.141  18.773   7.318 -0.0245 -0.1520  0.1767
  986loPI   C5A15771   8.914  19.032   7.618  0.0083  0.1056 -0.1876
  986loPI   C6A15772   8.766  19.326   7.983 -0.0725  0.3201 -0.0368
  986loPI   C1B15773   8.769  18.435   6.005  0.2882 -0.1084 -0.2999
  986loPI   C2B15774   8.742  18.484   6.437 -0.0200  0.3920  0.1136
  986loPI   C3B15775   8.627  18.643   6.772  0.0572 -0.0444  0.1197
  986loPI   C4B15776   8.624  18.739   7.262  0.2686  0.0235  0.1675
  987loPI    C115777  10.578   3.930   5.145  0.3596 -0.0141  0.1071
  987loPI    C215778  10.536   4.093   4.782  0.1652  0.0310  0.1486
  987loPI    C315779  10.615   3.702   4.818  0.1188  0.0131  0.0587
  987loPI   PO415780  10.596   4.202   5.257 -0.0593 -0.0199  0.3078
  987loPI   GL115781  10.387   4.289   5.633  0.2585  0.1556  0.0478
  987loPI   GL215782  10.153   4.254   5.812 -0.0709 -0.1697  0.1041
  987loPI   C1A15783  10.598   4.284   6.017 -0.1431  0.0078  0.1283
  987loPI   C2A15784  10.344   4.153   6.344  0.3478  0.1159 -0.2052
  987loPI   C3A15785  10.364   4.309   6.737 -0.0055 -0.1865  0.2130
  987loPI   C4A15786  10.358   4.310   7.115  0.2975 -0.0488 -0.1812
  987loPI   C5A15787  10.275   4.270   7.506  0.0560 -0.0722 -0.1409
  987loPI   C6A15788   9.844   4.132   7.714  0.0682  0.0173 -0.1980
  987loPI   C1B15789   9.929   4.261   6.113  0.3018  0.0276  0.1521
  987loPI   C2B15790   9.902   4.379   6.517  0.0269 -0.0972 -0.0303
  987loPI   C3B15791   9.855   4.498   6.909  0.4206 -0.2102 -0.2387
  987loPI   C4B15792   9.975   4.585   7.249  0.0583 -0.2007 -0.1733
  988loPI    C115793  10.053   4.993   5.057  0.1288 -0.1168  0.1574
  988loPI    C215794  10.128   5.369   4.945 -0.0630 -0.0746  0.1680
  988loPI    C315795   9.972   5.110   4.683  0.1930 -0.1850  0.1217
  988loPI   PO415796   9.930   5.036   5.267 -0.0565  0.1705  0.0250
  988loPI   GL115797   9.946   4.946   5.606 -0.2313  0.1477 -0.2762
  988loPI   GL215798  10.041   4.716   5.717 -0.1281 -0.0837 -0.1101
  988loPI   C1A15799  10.069   5.117   6.125  0.0557  0.1831  0.1511
  988loPI   C2A15800  10.161   5.278   6.592  0.1924 -0.1146 -0.3340
  988loPI   C3A15801  10.200   5.286   7.048 -0.1039 -0.1731  0.1158
  988loPI   C4A15802  10.408   5.170   7.441  0.1850  0.1986  0.0210
  988loPI   C5A15803  10.752   4.891   7.759  0.0653  0.2374 -0.1260
  988loPI   C6A15804  10.883   4.713   8.054 -0.1301 -0.0685 -0.0695
  988loPI   C1B15805  10.246   4.693   6.105  0.0862 -0.0654  0.1406
  988loPI   C2B15806  10.272   4.802   6.601  0.2634  0.2765  0.2606
  988loPI   C3B15807  10.329   4.788   6.959 -0.2265 -0.0780 -0.1080
  988loPI   C4B15808  10.623   4.664   7.335  0.2186  0.3333 -0.3831
  989loPI    C115809  15.504  11.320   5.430  0.0460 -0.1877  0.0959
  989loPI    C215810  15.194  11.422   5.661  0.1449  0.1996  0.0646
  989loPI    C315811  15.132  11.230   5.316 -0.0572  0.2432  0.0758
  989loPI   PO415812  15.670  11.217   5.593 -0.0635 -0.5553  0.0103
  989loPI   GL115813  15.474  11.181   6.003 -0.1929  0.2741 -0.0033
  989loPI   GL215814  15.515  11.641   5.941  0.2022 -0.2393  0.0064
  989loPI   C1A15815  15.421  10.989   6.329  0.0341 -0.2215  0.1503
  989loPI   C2A15816  15.560  10.979   6.708 -0.1076  0.1274 -0.0531
  989loPI   C3A15817  15.478  10.949   7.192 -0.2026 -0.1220 -0.1338
  989loPI   C4A15818  15.526  10.912   7.584 -0.1014 -0.5045  0.0901
  989loPI   C5A15819  15.549  10.993   8.075 -0.4075 -0.2066  0.0501
  989loPI   C6A15820  15.705  11.123   8.529  0.0561 -0.0448  0.1066
  989loPI   C1B15821  15.359  11.727   6.302 -0.1036  0.1013  0.0476
  989loPI   C2B15822  15.442  11.844   6.734  0.0077  0.1335  0.1534
  989loPI   C3B15823  15.487  11.910   7.168 -0.0256  0.1013 -0.2419
  989loPI   C4B15824  15.583  11.813   7.575  0.0234  0.1037 -0.0490
  990loPI    C115825   8.694   0.735   5.229 -0.2256 -0.1619  0.0658
  990loPI    C215826   8.891   1.051   5.375 -0.1750 -0.2197  0.1235
  990loPI    C315827   8.994   0.898   5.020 -0.1707 -0.1986  0.1157
  990loPI   PO415828   8.804   0.542   5.485  0.2704 -0.5314  0.2467
  990loPI   GL115829   9.072   0.589   5.735 -0.0864  0.3214 -0.0426
  990loPI   GL215830   9.392   0.582   5.790 -0.0228  0.0466 -0.1306
  990loPI   C1A15831   8.834   0.583   6.154  0.2444  0.4615 -0.0246
  990loPI   C2A15832   8.891   0.687   6.527 -0.0414  0.1893 -0.1515
  990loPI   C3A15833   8.845   0.877   6.932  0.4398  0.2969  0.1388
  990loPI   C4A15834   9.162   0.995   7.215  0.0438 -0.2535  0.0618
  990loPI   C5A15835   9.309   1.075   7.598  0.0719 -0.1448  0.2181
  990loPI   C6A15836   9.182   1.353   7.923  0.0197 -0.0415  0.1537
  990loPI   C1B15837   9.574   0.633   6.152  0.1928 -0.0054  0.2114
  990loPI   C2B15838   9.441   0.758   6.553  0.0892 -0.0165  0.0801
  990loPI   C3B15839   9.460   0.593   6.979 -0.0105 -0.0712 -0.1048
  990loPI   C4B15840   9.591   0.716   7.386  0.1754  0.1006 -0.1727
  991loPI    C115841   3.513  11.273   5.192 -0.1804  0.1803  0.0261
  991loPI    C215842   3.249  10.978   5.139 -0.0782  0.0521  0.2191
  991loPI    C315843   3.440  11.133   4.824 -0.0361 -0.1778  0.1296
  991loPI   PO415844   3.479  11.327   5.462  0.0445 -0.3956 -0.3041
  991loPI   GL115845   3.432  11.712   5.638 -0.2191 -0.1476 -0.2159
  991loPI   GL215846   3.134  11.596   5.739  0.2913 -0.1589  0.1920
  991loPI   C1A15847   3.572  11.785   6.034 -0.2584 -0.0301  0.0544
  991loPI   C2A15848   3.533  11.957   6.402  0.0223  0.0089 -0.1730
  991loPI   C3A15849   3.536  11.989   6.787 -0.0690 -0.1637  0.0014
  991loPI   C4A15850   3.429  12.037   7.190  0.0929 -0.0996  0.1476
  991loPI   C5A15851   3.436  12.116   7.583  0.0289 -0.2368  0.1828
  991loPI   C6A15852   3.505  12.452   7.902  0.0469 -0.1647  0.1263
  991loPI   C1B15853   3.024  11.747   6.216  0.0377  0.1919 -0.2564
  991loPI   C2B15854   2.963  11.982   6.582  0.2972  0.0590  0.1000
  991loPI   C3B15855   2.973  12.006   7.103  0.0692  0.0584  0.0188
  991loPI   C4B15856   2.989  11.947   7.504  0.3114  0.0821 -0.0515
  992loPI    C115857  17.097  16.510   4.970 -0.0175 -0.3405  0.2079
  992loPI    C215858  17.169  16.389   4.596  0.3615 -0.0400  0.1778
  992loPI    C315859  16.914  16.690   4.663  0.2439 -0.1369  0.1682
  992loPI   PO415860  17.123  16.265   5.143  0.1850 -0.2252  0.0737
  992loPI   GL115861  16.978  16.407   5.567 -0.1791 -0.0728 -0.1688
  992loPI   GL215862  17.283  16.247   5.628  0.2663  0.0905  0.1003
  992loPI   C1A15863  17.118  16.576   5.925 -0.1741 -0.0603  0.3207
  992loPI   C2A15864  17.101  16.594   6.286  0.0194 -0.1143 -0.4137
  992loPI   C3A15865  17.170  16.507   6.631 -0.2449  0.1330 -0.0847
  992loPI   C4A15866  17.060  16.451   7.084 -0.1171  0.0668  0.1432
  992loPI   C5A15867  17.138  16.521   7.531 -0.2202 -0.2981  0.1976
  992loPI   C6A15868  17.006  16.559   7.926  0.0066  0.3391  0.1311
  992loPI   C1B15869  17.390  16.229   6.092  0.0214 -0.3239 -0.2102
  992loPI   C2B15870  17.393  16.056   6.477  0.2333 -0.0218  0.0027
  992loPI   C3B15871  17.428  16.051   6.920  0.1183 -0.1631  0.2558
  992loPI   C4B15872  17.424  16.049   7.460  0.0739 -0.0101  0.4333
  993loPI    C115873  17.263  11.553   5.240  0.0101  0.1474 -0.0044
  993loPI    C215874  17.388  11.823   4.972 -0.0162  0.0318 -0.1341
  993loPI    C315875  17.417  11.432   4.891 -0.1002 -0.0025 -0.0019
  993loPI   PO415876  17.384  11.569   5.424 -0.1744 -0.0166 -0.1540
  993loPI   GL115877  17.462  11.739   5.797 -0.0300  0.1116  0.3026
  993loPI   GL215878  17.660  11.635   5.944 -0.0753  0.1001 -0.1601
  993loPI   C1A15879  17.366  11.952   6.238  0.2652  0.4682 -0.0675
  993loPI   C2A15880  17.452  11.977   6.660 -0.1967 -0.0812 -0.1799
  993loPI   C3A15881  17.527  11.922   7.025  0.0067 -0.0371 -0.1805
  993loPI   C4A15882  17.589  11.970   7.446 -0.1824 -0.1832 -0.0351
  993loPI   C5A15883  17.580  11.879   7.841  0.0607  0.1924 -0.0828
  993loPI   C6A15884  17.360  11.824   8.255  0.0707 -0.1986  0.0991
  993loPI   C1B15885  17.703  11.564   6.404 -0.1753 -0.1878 -0.2009
  993loPI   C2B15886  17.753  11.537   6.760  0.0427  0.0090  0.2158
  993loPI   C3B15887  17.773  11.498   7.248 -0.0498  0.1354 -0.0638
  993loPI   C4B15888  17.757  11.421   7.696  0.2584 -0.2135  0.3428
  994loPI    C115889   3.376   2.903   4.845  0.0489  0.0465  0.1711
  994loPI    C215890   3.388   2.585   4.602 -0.1457  0.0448  0.1623
  994loPI    C315891   3.300   2.947   4.455  0.2327  0.1340  0.1439
  994loPI   PO415892   3.646   2.840   5.018  0.1451 -0.0471 -0.5489
  994loPI   GL115893   3.810   3.000   5.466  0.1092 -0.0008 -0.1226
  994loPI   GL215894   3.546   3.261   5.437  0.1458 -0.1884 -0.0129
  994loPI   C1A15895   3.866   2.738   5.808  0.0607  0.0591  0.0220
  994loPI   C2A15896   3.873   2.631   6.265 -0.4170 -0.1381  0.3879
  994loPI   C3A15897   3.924   2.622   6.707  0.0242 -0.2183 -0.0507
  994loPI   C4A15898   3.856   2.644   7.122 -0.0240  0.2002  0.2516
  994loPI   C5A15899   3.584   2.849   7.455 -0.2534  0.0416 -0.2502
  994loPI   C6A15900   3.419   2.963   7.975  0.0435  0.0114  0.0009
  994loPI   C1B15901   3.239   3.337   5.765 -0.1207  0.0555  0.0843
  994loPI   C2B15902   3.227   3.488   6.186  0.0684 -0.1297  0.1453
  994loPI   C3B15903   3.211   3.490   6.584  0.1195  0.1256 -0.1596
  994loPI   C4B15904   3.210   3.521   6.990 -0.4076  0.1405 -0.1216
  995loPI    C115905   4.235   2.031   5.002  0.1091 -0.1385  0.1569
  995loPI    C215906   4.206   2.299   4.707  0.0608 -0.1371  0.1629
  995loPI    C315907   4.064   1.929   4.656 -0.0338 -0.1087  0.2183
  995loPI   PO415908   4.125   2.191   5.231 -0.2929  0.3077 -0.0915
  995loPI   GL115909   4.045   2.091   5.623  0.2225 -0.4140 -0.1728
  995loPI   GL215910   3.939   1.715   5.580  0.1809 -0.0175 -0.1699
  995loPI   C1A15911   4.054   2.243   6.011 -0.1417  0.1090  0.0791
  995loPI   C2A15912   4.130   2.154   6.452 -0.2609  0.3422 -0.3200
  995loPI   C3A15913   4.199   2.210   6.883  0.0805  0.0636  0.1405
  995loPI   C4A15914   4.128   2.241   7.235 -0.0988  0.4229 -0.2799
  995loPI   C5A15915   4.068   2.516   7.607  0.0730  0.0054 -0.1777
  995loPI   C6A15916   3.925   2.815   7.824  0.2255  0.0156 -0.1448
  995loPI   C1B15917   3.918   1.757   5.974 -0.3103 -0.0298 -0.0712
  995loPI   C2B15918   3.957   1.692   6.436  0.3673 -0.2928  0.2409
  995loPI   C3B15919   3.886   1.779   6.872 -0.0751  0.0985  0.0892
  995loPI   C4B15920   3.989   1.711   7.281 -0.0794 -0.0832 -0.0827
  996loPI    C115921  12.686  11.361   5.154 -0.0358  0.1864 -0.0280
  996loPI    C215922  12.997  11.471   4.928  0.0156 -0.0306 -0.0648
  996loPI    C315923  12.659  11.344   4.755  0.0097 -0.0737 -0.0218
  996loPI   PO415924  12.682  11.551   5.329 -0.2844  0.0459  0.3355
  996loPI   GL115925  12.664  11.547   5.782  0.2267 -0.3491  0.0142
  996loPI   GL215926  12.791  11.705   5.987 -0.0900  0.3927 -0.3430
  996loPI   C1A15927  12.293  11.559   6.106 -0.0985  0.1051 -0.2883
  996loPI   C2A15928  12.237  11.612   6.530  0.1581  0.0555  0.3723
  996loPI   C3A15929  12.320  11.615   6.945  0.0099 -0.0850 -0.1550
  996loPI   C4A15930  12.473  11.711   7.362  0.1950 -0.2195  0.0859
  996loPI   C5A15931  12.682  11.771   7.747  0.0879  0.3774  0.0549
  996loPI   C6A15932  12.967  12.006   7.842 -0.0680 -0.1264  0.0579
  996loPI   C1B15933  12.844  11.688   6.463 -0.0188  0.0070  0.1788
  996loPI   C2B15934  12.675  11.923   6.907  0.0550 -0.2433 -0.0073
  996loPI   C3B15935  12.864  12.102   7.311 -0.2800  0.0444 -0.2915
  996loPI   C4B15936  13.114  12.372   7.576  0.0723  0.2222  0.2737
  997loPI    C115937   3.461   1.519   4.889  0.0760 -0.0394 -0.2290
  997loPI    C215938   3.729   1.491   4.593  0.1222 -0.1319 -0.1787
  997loPI    C315939   3.568   1.845   4.683  0.1775 -0.0875 -0.2532
  997loPI   PO415940   3.521   1.462   5.105 -0.0083 -0.2590 -0.3081
  997loPI   GL115941   3.729   1.332   5.406 -0.1148 -0.1406  0.2645
  997loPI   GL215942   3.444   1.632   5.572 -0.0062 -0.3398  0.3509
  997loPI   C1A15943   3.679   1.247   5.826  0.1221  0.1228  0.2180
  997loPI   C2A15944   3.743   1.269   6.263  0.1938  0.1450 -0.1848
  997loPI   C3A15945   3.742   1.327   6.697  0.1206 -0.0326  0.1327
  997loPI   C4A15946   3.734   1.270   7.098  0.1292  0.1484  0.0690
  997loPI   C5A15947   3.865   1.360   7.568  0.0408 -0.0300 -0.1166
  997loPI   C6A15948   3.840   1.691   7.927 -0.0700  0.0408 -0.2717
  997loPI   C1B15949   3.359   1.597   5.988 -0.1258 -0.1543 -0.0863
  997loPI   C2B15950   3.390   1.627   6.426  0.1950 -0.1704  0.1548
  997loPI   C3B15951   3.358   1.695   6.846  0.3211  0.0571 -0.0221
  997loPI   C4B15952   3.375   1.631   7.273  0.0174  0.0348 -0.1432
  998loPI    C115953   7.984  12.046   5.607  0.0567  0.0816  0.0778
  998loPI    C215954   7.903  12.311   5.318  0.0859  0.0207  0.0134
  998loPI    C315955   7.810  11.925   5.267 -0.0400  0.0333  0.1441
  998loPI   PO415956   7.886  12.108   5.762 -0.3568 -0.1796 -0.2193
  998loPI   GL115957   7.981  12.372   6.116 -0.2544 -0.1667 -0.2128
  998loPI   GL215958   8.083  12.151   6.267 -0.0827  0.0506 -0.2625
  998loPI   C1A15959   7.931  12.584   6.467  0.1424  0.0378  0.2160
  998loPI   C2A15960   8.139  12.619   6.912 -0.0452 -0.0329  0.0150
  998loPI   C3A15961   8.160  12.623   7.289  0.1019  0.1014  0.2669
  998loPI   C4A15962   7.867  12.563   7.533  0.1072 -0.0094  0.0299
  998loPI   C5A15963   7.593  12.388   7.464  0.3011  0.1214  0.0013
  998loPI   C6A15964   7.224  12.179   7.664  0.0288  0.1626 -0.0829
  998loPI   C1B15965   8.212  12.164   6.713 -0.0047 -0.1485 -0.2779
  998loPI   C2B15966   8.395  12.229   7.134  0.0184 -0.2471 -0.1476
  998loPI   C3B15967   8.616  12.356   7.525 -0.1611  0.0381 -0.1041
  998loPI   C4B15968   8.774  12.256   7.973 -0.1736  0.0410  0.0359
  999loPI    C115969   3.049  17.184   4.525  0.0837  0.0312 -0.1588
  999loPI    C215970   3.083  16.966   4.191  0.1418  0.1055 -0.2019
  999loPI    C315971   2.749  17.175   4.260 -0.0130 -0.1857 -0.0449
  999loPI   PO415972   3.258  17.233   4.675 -0.2857 -0.1256  0.1505
  999loPI   GL115973   3.355  17.469   5.037  0.0978 -0.0901 -0.0918
  999loPI   GL215974   3.202  17.805   5.150  0.0550  0.0113  0.2534
  999loPI   C1A15975   3.475  17.353   5.466  0.0084 -0.0114  0.1217
  999loPI   C2A15976   3.619  17.345   5.836  0.1658  0.1070 -0.0001
  999loPI   C3A15977   3.635  17.316   6.285 -0.1631 -0.1579 -0.0477
  999loPI   C4A15978   3.566  17.352   6.680  0.0550  0.2030 -0.0954
  999loPI   C5A15979   3.676  17.352   7.082  0.0026 -0.1630 -0.1217
  999loPI   C6A15980   4.032  17.306   7.380 -0.2404 -0.0128  0.0050
  999loPI   C1B15981   3.276  17.739   5.625 -0.1839  0.2104 -0.0637
  999loPI   C2B15982   3.307  17.669   6.018 -0.0794 -0.2989  0.0545
  999loPI   C3B15983   3.276  17.684   6.436  0.2180 -0.0080  0.1328
  999loPI   C4B15984   3.342  17.753   6.912 -0.1633  0.1412  0.1742
 1000loPI    C115985   9.087  12.770   5.367 -0.1166 -0.1069  0.1231
 1000loPI    C215986   9.085  12.514   5.060  0.0730  0.0400 -0.0028
 1000loPI    C315987   9.185  12.897   5.001  0.0458  0.0848  0.2307
 1000loPI   PO415988   9.196  12.681   5.538  0.0049 -0.0255  0.0108
 1000loPI   GL115989   9.047  12.540   5.896  0.0016 -0.3248 -0.0412
 1000loPI   GL215990   8.947  12.185   5.987 -0.2361 -0.0345 -0.0119
 1000loPI   C1A15991   8.793  12.845   6.160  0.1625 -0.0635 -0.1031
 1000loPI   C2A15992   8.663  13.215   6.346  0.0764 -0.3763 -0.0082
 1000loPI   C3A15993   8.470  13.441   6.662 -0.1164 -0.3144 -0.0330
 1000loPI   C4A15994   8.303  13.621   6.999  0.1699 -0.0820  0.1135
 1000loPI   C5A15995   8.272  13.662   7.399  0.2621 -0.0846  0.1066
 1000loPI   C6A15996   8.436  13.753   7.772  0.1680  0.0186 -0.0474
 1000loPI   C1B15997   9.016  12.411   6.314  0.0641  0.2143 -0.4633
 1000loPI   C2B15998   9.172  12.447   6.685  0.0404  0.1379  0.0086
 1000loPI   C3B15999   9.191  12.704   7.020  0.0178 -0.3495  0.1072
 1000loPI   C4B16000   9.179  13.163   7.229 -0.0960 -0.3027 -0.0174
 1001loPI    C116001  16.435   9.538   5.275  0.0534 -0.0255  0.1218
 1001loPI    C216002  16.817   9.536   5.157 -0.0361  0.1638 -0.1816
 1001loPI    C316003  16.587   9.214   5.096  0.1027  0.0065  0.1058
 1001loPI   PO416004  16.399   9.610   5.547  0.0866  0.0790  0.1544
 1001loPI   GL116005  16.417   9.409   5.982 -0.1703 -0.2076  0.0031
 1001loPI   GL216006  16.697   9.602   5.955 -0.0502 -0.0396  0.1357
 1001loPI   C1A16007  16.175   9.328   6.399 -0.1391  0.1180  0.1346
 1001loPI   C2A16008  16.113   9.300   6.746  0.1377 -0.1969  0.0280
 1001loPI   C3A16009  16.177   9.248   7.180  0.2039  0.0279  0.2422
 1001loPI   C4A16010  16.168   9.182   7.640 -0.0014  0.1750  0.1238
 1001loPI   C5A16011  16.188   9.080   8.047 -0.0827  0.0296 -0.0379
 1001loPI   C6A16012  16.010   9.188   8.485  0.1185 -0.1490  0.0008
 1001loPI   C1B16013  16.804   9.766   6.341 -0.2653  0.2971  0.4033
 1001loPI   C2B16014  16.828   9.777   6.787  0.0124 -0.1990  0.1407
 1001loPI   C3B16015  16.860   9.691   7.149  0.3224  0.1785  0.1449
 1001loPI   C4B16016  16.861   9.654   7.674 -0.1346 -0.2042 -0.0209
 1002loPI    C116017  10.725  12.400   5.350 -0.2280  0.1070 -0.1233
 1002loPI    C216018  10.944  12.066   5.371 -0.1712  0.1545  0.0515
 1002loPI    C316019  10.674  12.109   5.079 -0.1317 -0.0152 -0.0116
 1002loPI   PO416020  10.625  12.413   5.538 -0.2511 -0.3389  0.2869
 1002loPI   GL116021  10.311  12.302   5.825 -0.1387 -0.0588  0.0501
 1002loPI   GL216022  10.107  12.484   5.833  0.0264  0.0802 -0.0556
 1002loPI   C1A16023  10.596  12.156   6.234 -0.0384 -0.2693  0.1818
 1002loPI   C2A16024  10.522  12.259   6.634 -0.0305 -0.1491  0.0039
 1002loPI   C3A16025  10.300  12.372   7.072 -0.3243 -0.0960 -0.0995
 1002loPI   C4A16026  10.439  12.262   7.474  0.0368 -0.0833 -0.1018
 1002loPI   C5A16027  10.498  11.783   7.690 -0.1963 -0.0901  0.1622
 1002loPI   C6A16028  10.804  11.631   8.017  0.1071 -0.1066 -0.0120
 1002loPI   C1B16029  10.079  12.536   6.207 -0.3278  0.3412  0.0808
 1002loPI   C2B16030  10.060  12.619   6.648  0.0250  0.0535 -0.2555
 1002loPI   C3B16031  10.096  12.814   7.097  0.0322 -0.0036  0.1299
 1002loPI   C4B16032  10.132  12.953   7.492 -0.0534  0.0693  0.3253
 1003loPI    C116033   8.822  11.343   5.350  0.1059 -0.0882 -0.0993
 1003loPI    C216034   8.901  10.951   5.342 -0.0722 -0.1214 -0.3742
 1003loPI    C316035   9.047  11.190   5.057  0.1370  0.0348 -0.1402
 1003loPI   PO416036   8.772  11.347   5.648 -0.1229 -0.0285 -0.1372
 1003loPI   GL116037   8.904  11.052   5.934  0.2783 -0.0459  0.0913
 1003loPI   GL216038   9.007  10.665   5.864 -0.1681 -0.0688  0.1255
 1003loPI   C1A16039   8.968  11.136   6.361  0.2045  0.0399  0.0441
 1003loPI   C2A16040   8.782  10.959   6.687 -0.0466 -0.1815 -0.1306
 1003loPI   C3A16041   8.728  11.000   7.165 -0.1739 -0.1665 -0.1241
 1003loPI   C4A16042   8.706  10.948   7.543  0.1251 -0.1930 -0.0214
 1003loPI   C5A16043   8.567  10.603   7.832  0.1020  0.0918 -0.0231
 1003loPI   C6A16044   8.277  10.401   8.053  0.0221  0.0155  0.2852
 1003loPI   C1B16045   9.092  10.638   6.252 -0.3961  0.2107 -0.0211
 1003loPI   C2B16046   9.171  10.579   6.743 -0.2098 -0.0341  0.1112
 1003loPI   C3B16047   9.059  10.482   7.048 -0.3777 -0.1821 -0.1052
 1003loPI   C4B16048   8.904  10.376   7.456 -0.0228 -0.2715 -0.3724
 1004loPI    C116049  12.811  10.298   5.647  0.1444 -0.0903  0.0557
 1004loPI    C216050  13.138  10.392   5.436  0.1014  0.1234  0.0815
 1004loPI    C316051  12.778  10.503   5.305  0.0438 -0.0519  0.0883
 1004loPI   PO416052  12.973  10.287   5.910  0.3188  0.0792  0.2215
 1004loPI   GL116053  12.998  10.196   6.316  0.0771 -0.0602  0.0095
 1004loPI   GL216054  12.823  10.323   6.490 -0.1264 -0.1845  0.0079
 1004loPI   C1A16055  13.293  10.061   6.653  0.0856 -0.0239 -0.0111
 1004loPI   C2A16056  13.585  10.099   6.948  0.0357 -0.1687 -0.0777
 1004loPI   C3A16057  13.778  10.258   7.230  0.0493 -0.0006  0.2391
 1004loPI   C4A16058  13.921  10.230   7.712 -0.0307 -0.1509 -0.0407
 1004loPI   C5A16059  13.935  10.143   8.138  0.2239 -0.1857 -0.1276
 1004loPI   C6A16060  14.283  10.106   8.312 -0.1443  0.0022 -0.1274
 1004loPI   C1B16061  12.791  10.018   6.806  0.3084 -0.2234 -0.3138
 1004loPI   C2B16062  13.177   9.855   7.093 -0.1548  0.0173 -0.1740
 1004loPI   C3B16063  13.543   9.821   7.397 -0.0238  0.2080 -0.0911
 1004loPI   C4B16064  13.844   9.691   7.720 -0.0177 -0.3723 -0.1691
 1005loPI    C116065   6.676   6.559   5.174 -0.0141  0.0786  0.0323
 1005loPI    C216066   7.012   6.764   5.248  0.0589 -0.0312  0.0079
 1005loPI    C316067   6.910   6.677   4.871  0.0673 -0.1045  0.0224
 1005loPI   PO416068   6.701   6.392   5.396 -0.1039 -0.3159  0.2437
 1005loPI   GL116069   6.450   6.267   5.641  0.0794 -0.1888  0.0754
 1005loPI   GL216070   6.120   6.134   5.776  0.0365 -0.0744 -0.2834
 1005loPI   C1A16071   6.603   6.426   5.998  0.3302  0.0859 -0.1290
 1005loPI   C2A16072   6.599   6.590   6.421  0.0593  0.1307 -0.1570
 1005loPI   C3A16073   6.632   6.857   6.628  0.1415 -0.1317  0.0632
 1005loPI   C4A16074   6.672   6.982   7.028  0.0177 -0.1309 -0.0633
 1005loPI   C5A16075   6.820   6.953   7.472  0.1823  0.0683  0.0092
 1005loPI   C6A16076   7.127   7.025   7.735  0.0523 -0.0042  0.1009
 1005loPI   C1B16077   5.907   6.018   6.195 -0.0972 -0.1067 -0.1983
 1005loPI   C2B16078   5.825   5.935   6.599  0.0297  0.0191  0.2912
 1005loPI   C3B16079   5.799   6.042   7.015 -0.3718  0.0823 -0.1085
 1005loPI   C4B16080   5.813   6.075   7.451  0.0375  0.1220 -0.1574
 1006loPI    C116081  15.487   4.358   4.866 -0.1910 -0.0040 -0.1505
 1006loPI    C216082  15.807   4.353   5.106 -0.2711 -0.0794 -0.0440
 1006loPI    C316083  15.832   4.202   4.737 -0.1049  0.1753 -0.1402
 1006loPI   PO416084  15.295   4.251   4.997 -0.0452  0.0104 -0.0067
 1006loPI   GL116085  15.345   4.211   5.438 -0.0362 -0.0627 -0.1473
 1006loPI   GL216086  15.461   4.463   5.668  0.1504 -0.2412  0.0551
 1006loPI   C1A16087  15.123   4.177   5.898 -0.0815  0.0135  0.1397
 1006loPI   C2A16088  15.244   4.177   6.263 -0.1342  0.0451 -0.0320
 1006loPI   C3A16089  15.294   4.153   6.628 -0.0931  0.1488 -0.1571
 1006loPI   C4A16090  15.378   4.269   7.042  0.1684  0.3329  0.0393
 1006loPI   C5A16091  15.603   4.132   7.444  0.1840 -0.1409  0.0560
 1006loPI   C6A16092  15.548   4.362   7.883 -0.1730 -0.0866  0.2521
 1006loPI   C1B16093  15.460   4.637   5.958  0.0587  0.1118  0.0782
 1006loPI   C2B16094  15.473   4.626   6.429 -0.0350 -0.0534  0.0976
 1006loPI   C3B16095  15.561   4.802   6.914  0.3362 -0.0619 -0.0646
 1006loPI   C4B16096  15.570   4.605   7.382  0.1707 -0.0283  0.2069
 1007loPI    C116097   4.729   2.593   4.784 -0.2444  0.1300  0.0416
 1007loPI    C216098   4.419   2.774   4.606 -0.0995  0.1568 -0.1879
 1007loPI    C316099   4.791   2.907   4.544  0.0106 -0.2159 -0.3587
 1007loPI   PO416100   4.533   2.487   5.038 -0.1027  0.3253  0.1619
 1007loPI   GL116101   4.493   2.432   5.381  0.0044 -0.1261 -0.4096
 1007loPI   GL216102   4.216   2.556   5.499  0.1634 -0.0669 -0.2858
 1007loPI   C1A16103   4.512   2.194   5.756 -0.0756  0.1455 -0.0442
 1007loPI   C2A16104   4.664   2.136   6.166 -0.1903 -0.0029 -0.1407
 1007loPI   C3A16105   4.657   2.232   6.573 -0.1793 -0.2269 -0.3759
 1007loPI   C4A16106   4.694   2.241   7.003 -0.2446 -0.2501  0.0649
 1007loPI   C5A16107   4.575   2.335   7.450 -0.3459  0.1204 -0.3146
 1007loPI   C6A16108   4.708   2.340   7.869 -0.0234  0.0388  0.1214
 1007loPI   C1B16109   4.350   2.666   5.886 -0.3103  0.0788  0.2476
 1007loPI   C2B16110   4.337   2.660   6.333 -0.0735  0.1316 -0.0054
 1007loPI   C3B16111   4.380   2.649   6.789 -0.1879  0.0880  0.0537
 1007loPI   C4B16112   4.328   2.698   7.238  0.2979 -0.3718  0.1473
 1008loPI    C116113   1.155   3.138   5.164 -0.1659  0.1107  0.1872
 1008loPI    C216114   1.239   2.862   4.886  0.2661  0.1683  0.2538
 1008loPI    C316115   1.121   3.229   4.775  0.1866  0.1134  0.1545
 1008loPI   PO416116   1.334   3.091   5.307 -0.0596 -0.0964 -0.1432
 1008loPI   GL116117   1.691   3.125   5.713 -0.1107  0.1324  0.2524
 1008loPI   GL216118   1.528   2.889   5.720 -0.0491 -0.1802  0.1435
 1008loPI   C1A16119   1.614   3.338   6.021 -0.0485  0.1173 -0.2013
 1008loPI   C2A16120   1.623   3.247   6.420 -0.0685  0.0098  0.1921
 1008loPI   C3A16121   1.607   3.194   6.814 -0.1597 -0.0209  0.2359
 1008loPI   C4A16122   1.774   3.267   7.117  0.0472  0.0593 -0.1906
 1008loPI   C5A16123   1.861   3.298   7.535 -0.2817  0.1683  0.1520
 1008loPI   C6A16124   2.051   3.310   7.908 -0.0040  0.0845  0.0549
 1008loPI   C1B16125   1.447   2.801   6.180  0.0427  0.1327 -0.0879
 1008loPI   C2B16126   1.525   2.703   6.632 -0.0002 -0.2552 -0.0407
 1008loPI   C3B16127   1.459   2.852   7.093  0.1111  0.0694  0.2584
 1008loPI   C4B16128   1.310   3.173   7.271 -0.0598  0.0999 -0.0648
 1009loPI    C116129  16.403   0.873   4.755  0.1124  0.0561 -0.1703
 1009loPI    C216130  16.223   0.539   4.629 -0.1263  0.0801  0.0956
 1009loPI    C316131  16.245   0.858   4.388 -0.1424 -0.0345 -0.0593
 1009loPI   PO416132  16.445   0.832   5.020 -0.0839  0.1464 -0.1266
 1009loPI   GL116133  16.237   1.017   5.403 -0.2290 -0.1314  0.0732
 1009loPI   GL216134  16.461   1.186   5.575  0.1582  0.0862  0.1849
 1009loPI   C1A16135  16.008   0.787   5.755  0.0539  0.3129  0.1645
 1009loPI   C2A16136  15.805   0.632   6.025  0.0857 -0.0613 -0.1667
 1009loPI   C3A16137  15.872   0.741   6.383 -0.1948  0.0737 -0.0957
 1009loPI   C4A16138  15.866   0.682   6.790  0.1049 -0.1629 -0.2234
 1009loPI   C5A16139  15.791   0.748   7.181  0.2086 -0.0360  0.2352
 1009loPI   C6A16140  15.732   0.764   7.618  0.1593  0.0311  0.0644
 1009loPI   C1B16141  16.082   1.290   5.910 -0.2062 -0.2254  0.0484
 1009loPI   C2B16142  16.018   1.199   6.375  0.0264  0.1210  0.1057
 1009loPI   C3B16143  16.023   1.117   6.868  0.1488 -0.2624 -0.1244
 1009loPI   C4B16144  15.982   1.185   7.271  0.0372 -0.2270 -0.3717
 1010loPI    C116145   1.476   0.962   5.443  0.2777 -0.0646  0.3139
 1010loPI    C216146   1.684   1.271   5.590  0.3642 -0.0719  0.2080
 1010loPI    C316147   1.775   1.121   5.230  0.0669  0.0326  0.0856
 1010loPI   PO416148   1.247   0.972   5.582  0.2535  0.0381 -0.0645
 1010loPI   GL116149   1.074   1.070   5.949 -0.1166 -0.1833  0.3432
 1010loPI   GL216150   1.435   1.052   6.071  0.1727  0.0132 -0.0142
 1010loPI   C1A16151   0.936   0.672   6.122  0.1602  0.0601  0.0235
 1010loPI   C2A16152   0.940   0.686   6.544 -0.2120  0.0140 -0.0856
 1010loPI   C3A16153   0.831   0.662   7.040 -0.0151  0.0261  0.0118
 1010loPI   C4A16154   0.800   0.525   7.494 -0.1201 -0.1976 -0.0471
 1010loPI   C5A16155   0.571   0.234   7.786 -0.2341  0.1752  0.2476
 1010loPI   C6A16156   0.661  -0.195   7.909  0.0314 -0.0745 -0.2556
 1010loPI   C1B16157   1.736   1.103   6.374  0.0447 -0.2407  0.1699
 1010loPI   C2B16158   1.696   1.065   6.777 -0.1131  0.3224  0.1467
 1010loPI   C3B16159   1.747   0.986   7.201  0.0026 -0.3124 -0.0784
 1010loPI   C4B16160   1.636   0.742   7.584 -0.1414  0.2809  0.2229
 1011loPI    C116161   0.685  17.318   5.416 -0.1427  0.0753  0.0899
 1011loPI    C216162   0.538  17.432   5.062 -0.0597  0.0263  0.0395
 1011loPI    C316163   0.449  17.070   5.208 -0.1984  0.0957  0.1285
 1011loPI   PO416164   0.648  17.465   5.521  0.1470  0.2532 -0.2168
 1011loPI   GL116165   0.724  17.671   5.786  0.0875  0.0035 -0.0699
 1011loPI   GL216166   0.891  17.942   5.717  0.2019 -0.0437  0.1770
 1011loPI   C1A16167   0.717  17.686   6.243 -0.1156  0.0354  0.1694
 1011loPI   C2A16168   0.665  17.571   6.602 -0.2434  0.0583 -0.1573
 1011loPI   C3A16169   0.584  17.564   7.071 -0.0118 -0.2845 -0.1973
 1011loPI   C4A16170   0.621  17.810   7.363  0.1833  0.0341  0.1960
 1011loPI   C5A16171   0.379  18.195   7.451 -0.3554  0.0605 -0.0594
 1011loPI   C6A16172   0.148  18.596   7.417 -0.3323 -0.0016 -0.0993
 1011loPI   C1B16173   1.052  18.051   6.100 -0.1148  0.0652 -0.2403
 1011loPI   C2B16174   0.892  18.041   6.536 -0.2287 -0.0430 -0.1397
 1011loPI   C3B16175   0.803  17.947   6.913  0.2904 -0.0244  0.1898
 1011loPI   C4B16176   1.051  18.045   7.148  0.1473 -0.1208  0.0892
 1012loPI    C116177   3.997  11.079   4.796 -0.1051  0.0231 -0.1440
 1012loPI    C216178   3.994  11.454   4.933 -0.1256  0.0142 -0.1203
 1012loPI    C316179   3.849  11.373   4.569  0.0368  0.0559 -0.1952
 1012loPI   PO416180   3.894  10.961   5.011  0.1695 -0.2160  0.1762
 1012loPI   GL116181   3.716  10.795   5.386 -0.0013 -0.0514  0.1726
 1012loPI   GL216182   3.703  10.491   5.530 -0.0585  0.3080 -0.0369
 1012loPI   C1A16183   3.718  10.864   5.880 -0.0066  0.1083  0.2843
 1012loPI   C2A16184   3.687  11.078   6.228 -0.0744  0.1027 -0.0748
 1012loPI   C3A16185   3.582  11.133   6.687 -0.1478  0.1606  0.1100
 1012loPI   C4A16186   3.522  11.168   7.111 -0.2389  0.1191  0.1676
 1012loPI   C5A16187   3.698  10.968   7.478  0.1273  0.2382  0.0581
 1012loPI   C6A16188   3.515  10.586   7.733 -0.0180 -0.0076  0.1674
 1012loPI   C1B16189   3.524  10.444   5.946  0.2572 -0.0470  0.2205
 1012loPI   C2B16190   3.424  10.671   6.351  0.0575  0.1506  0.0682
 1012loPI   C3B16191   3.313  10.723   6.740  0.3693  0.3594  0.1480
 1012loPI   C4B16192   3.377  10.667   7.169 -0.2076  0.2890  0.1007
 1013loPI    C116193  17.117   1.570   5.023 -0.0945 -0.1048 -0.1357
 1013loPI    C216194  17.090   1.965   5.075 -0.2503 -0.1276 -0.0340
 1013loPI    C316195  17.339   1.816   4.800 -0.1095  0.0360  0.0032
 1013loPI   PO416196  17.183   1.530   5.267 -0.1625  0.1637 -0.1552
 1013loPI   GL116197  17.081   1.311   5.637  0.0824  0.0829  0.0722
 1013loPI   GL216198  17.293   1.605   5.734  0.0524 -0.0321 -0.0732
 1013loPI   C1A16199  16.851   1.045   5.970 -0.1485 -0.0979  0.0608
 1013loPI   C2A16200  16.834   0.912   6.363 -0.1882 -0.0538  0.0158
 1013loPI   C3A16201  16.861   0.852   6.785  0.1891  0.1381  0.0715
 1013loPI   C4A16202  16.864   0.815   7.161  0.0751  0.1633 -0.0549
 1013loPI   C5A16203  16.861   0.873   7.591 -0.0477  0.2440 -0.1087
 1013loPI   C6A16204  17.095   0.591   8.018 -0.0090  0.0861  0.2159
 1013loPI   C1B16205  17.171   1.437   6.099  0.2534 -0.1740  0.0520
 1013loPI   C2B16206  17.064   1.300   6.493  0.0058  0.1326 -0.6181
 1013loPI   C3B16207  17.116   1.345   6.909  0.0193  0.1962 -0.1945
 1013loPI   C4B16208  17.092   1.240   7.283  0.0299 -0.0389  0.1180
 1014loPI    C116209   2.631   1.006   4.883  0.0861 -0.0026 -0.0660
 1014loPI    C216210   2.511   0.640   4.772  0.5509 -0.2052  0.0775
 1014loPI    C316211   2.834   0.805   4.604  0.3696  0.1253  0.0451
 1014loPI   PO416212   2.742   1.032   5.113  0.0248  0.1677  0.0119
 1014loPI   GL116213   2.648   1.152   5.526 -0.0362  0.1383  0.0095
 1014loPI   GL216214   2.573   0.949   5.730  0.2278  0.1442  0.0468
 1014loPI   C1A16215   2.857   1.387   5.870  0.0109  0.4327  0.3114
 1014loPI   C2A16216   2.929   1.454   6.248 -0.0968  0.2541  0.2211
 1014loPI   C3A16217   2.886   1.603   6.590 -0.0205 -0.0669 -0.1293
 1014loPI   C4A16218   2.888   1.636   7.022 -0.1086 -0.0561  0.1180
 1014loPI   C5A16219   2.982   1.528   7.468  0.2498 -0.0579  0.1390
 1014loPI   C6A16220   3.372   1.380   7.738 -0.2117 -0.2571  0.0205
 1014loPI   C1B16221   2.715   1.000   6.148 -0.0516  0.0102 -0.1618
 1014loPI   C2B16222   2.745   1.069   6.603  0.0387 -0.0864  0.1723
 1014loPI   C3B16223   2.697   1.130   7.032 -0.0248 -0.4133  0.0068
 1014loPI   C4B16224   2.767   1.082   7.488  0.1101  0.1087  0.1197
 1015loPI    C116225  10.536   2.718   5.056  0.0397 -0.0441  0.1001
 1015loPI    C216226  10.159   2.586   5.035  0.0551 -0.0938  0.1350
 1015loPI    C316227  10.233   2.963   5.148  0.0144 -0.0745  0.0978
 1015loPI   PO416228  10.716   2.600   5.272 -0.0108 -0.0038  0.1389
 1015loPI   GL116229  10.676   2.715   5.642 -0.3690 -0.1098 -0.0888
 1015loPI   GL216230  10.927   2.854   5.758  0.1060  0.0594 -0.4853
 1015loPI   C1A16231  10.441   2.907   6.007  0.0198 -0.0321 -0.0794
 1015loPI   C2A16232  10.334   2.912   6.419 -0.0938 -0.0879  0.0344
 1015loPI   C3A16233  10.487   3.056   6.754  0.0019 -0.0708 -0.0636
 1015loPI   C4A16234  10.578   3.254   7.089  0.1583 -0.1256 -0.0788
 1015loPI   C5A16235  10.693   3.455   7.530 -0.2176 -0.0607  0.1564
 1015loPI   C6A16236  10.571   3.699   7.858 -0.3068 -0.0952  0.1466
 1015loPI   C1B16237  10.950   2.944   6.172  0.2433  0.0669 -0.4094
 1015loPI   C2B16238  10.933   3.014   6.535  0.1091 -0.3480 -0.0478
 1015loPI   C3B16239  10.965   3.000   6.931  0.1332 -0.0837 -0.2323
 1015loPI   C4B16240  10.845   3.034   7.409  0.1345  0.2090  0.0520
 1016loPI    C116241   7.823   9.512   5.309 -0.1441 -0.0888  0.0696
 1016loPI    C216242   7.868   9.863   5.495 -0.3232 -0.0636  0.0670
 1016loPI    C316243   7.588   9.820   5.213 -0.2278 -0.1773 -0.0116
 1016loPI   PO416244   7.854   9.337   5.598  0.0357  0.1166 -0.0139
 1016loPI   GL116245   7.907   9.507   5.956 -0.0696 -0.2847 -0.2451
 1016loPI   GL216246   7.596   9.459   6.155  0.2049 -0.1611 -0.0511
 1016loPI   C1A16247   8.050   9.306   6.324 -0.4370  0.0525 -0.0533
 1016loPI   C2A16248   8.141   8.994   6.564  0.0182 -0.0212 -0.0379
 1016loPI   C3A16249   8.126   8.905   6.937 -0.1282  0.3131  0.2214
 1016loPI   C4A16250   8.112   8.961   7.424 -0.1656 -0.3296  0.1606
 1016loPI   C5A16251   7.847   9.065   7.751  0.1111 -0.0398  0.0060
 1016loPI   C6A16252   7.538   9.133   8.121 -0.0216  0.1270  0.1418
 1016loPI   C1B16253   7.508   9.600   6.589 -0.1767  0.1657 -0.1731
 1016loPI   C2B16254   7.469   9.567   6.970 -0.1395  0.1618  0.1278
 1016loPI   C3B16255   7.401   9.441   7.337  0.0548 -0.1921 -0.0174
 1016loPI   C4B16256   7.321   9.143   7.719 -0.1382 -0.3169 -0.1820
 1017loPI    C116257   2.295  12.132   5.295  0.0257 -0.0810 -0.1122
 1017loPI    C216258   2.098  12.070   4.952 -0.0799  0.1441 -0.0940
 1017loPI    C316259   2.189  12.442   5.066  0.3793  0.0437 -0.1133
 1017loPI   PO416260   2.220  11.886   5.376  0.2364 -0.1556 -0.2794
 1017loPI   GL116261   2.149  11.839   5.684 -0.0823  0.2757 -0.1144
 1017loPI   GL216262   2.133  11.509   5.854 -0.4656  0.0059  0.3204
 1017loPI   C1A16263   1.920  11.775   6.211 -0.3637 -0.1675 -0.1083
 1017loPI   C2A16264   1.901  11.866   6.629  0.1182  0.0502  0.1675
 1017loPI   C3A16265   1.955  11.833   7.108 -0.0752  0.1013  0.2950
 1017loPI   C4A16266   1.890  11.867   7.509 -0.0271 -0.1824 -0.0840
 1017loPI   C5A16267   1.657  11.878   7.854 -0.0463 -0.1514  0.1337
 1017loPI   C6A16268   1.354  11.903   8.153 -0.2249  0.0088 -0.0348
 1017loPI   C1B16269   2.172  11.384   6.342  0.0218  0.0101  0.0742
 1017loPI   C2B16270   2.191  11.398   6.823  0.0935  0.0054 -0.0135
 1017loPI   C3B16271   2.272  11.409   7.237  0.0709  0.0242  0.0123
 1017loPI   C4B16272   2.260  11.453   7.650  0.0862 -0.0205 -0.0345
 1018loPI    C116273   0.253  10.894   5.366  0.2736 -0.0347 -0.0624
 1018loPI    C216274   0.436  11.243   5.300  0.0815  0.0757 -0.0187
 1018loPI    C316275   0.371  10.991   4.997  0.0073  0.1840 -0.0937
 1018loPI   PO416276   0.356  10.835   5.602 -0.1715  0.0100  0.0058
 1018loPI   GL116277   0.472  10.791   6.035  0.0393  0.1873  0.0966
 1018loPI   GL216278   0.604  11.098   6.051 -0.1649 -0.1588 -0.2856
 1018loPI   C1A16279   0.497  10.701   6.542 -0.1230 -0.1269 -0.0546
 1018loPI   C2A16280   0.538  10.707   7.040 -0.1486 -0.0770 -0.0669
 1018loPI   C3A16281   0.519  10.716   7.540  0.0384 -0.1033 -0.1215
 1018loPI   C4A16282   0.461  10.771   8.028  0.0343 -0.2578  0.0688
 1018loPI   C5A16283   0.922  10.646   8.243 -0.2188 -0.0542 -0.1700
 1018loPI   C6A16284   1.243  10.417   8.059 -0.2296 -0.3516 -0.1195
 1018loPI   C1B16285   0.727  11.216   6.524  0.1312 -0.0284  0.1497
 1018loPI   C2B16286   0.706  11.290   6.983 -0.1109 -0.1922 -0.0229
 1018loPI   C3B16287   0.688  11.199   7.420  0.2353 -0.0321 -0.1512
 1018loPI   C4B16288   0.604  11.211   7.871  0.1941  0.0372 -0.0801
 1019loPI    C116289  14.080   6.004   5.206 -0.1346  0.0211 -0.2724
 1019loPI    C216290  14.251   6.354   5.299 -0.0879 -0.0848  0.0541
 1019loPI    C316291  14.126   6.285   4.925 -0.0135  0.2437 -0.0344
 1019loPI   PO416292  13.979   5.890   5.557  0.2865  0.0899 -0.0045
 1019loPI   GL116293  13.764   5.701   5.952  0.1550 -0.4252 -0.0576
 1019loPI   GL216294  13.423   5.672   6.030  0.0427 -0.0955  0.0059
 1019loPI   C1A16295  13.940   5.701   6.380  0.0386  0.1506 -0.0598
 1019loPI   C2A16296  13.981   5.727   6.768 -0.3521  0.3039  0.0269
 1019loPI   C3A16297  13.870   5.821   7.137 -0.2732  0.1506 -0.3212
 1019loPI   C4A16298  14.045   5.737   7.590 -0.2019 -0.1629 -0.2875
 1019loPI   C5A16299  14.088   5.643   8.012 -0.3057  0.1682 -0.2176
 1019loPI   C6A16300  14.023   5.307   8.319 -0.1044 -0.0543 -0.4651
 1019loPI   C1B16301  13.433   5.608   6.434 -0.2148  0.2895 -0.1159
 1019loPI   C2B16302  13.451   5.519   6.909  0.0110  0.1133  0.1144
 1019loPI   C3B16303  13.484   5.587   7.311  0.1808 -0.1270 -0.0913
 1019loPI   C4B16304  13.569   5.702   7.712  0.2516 -0.2305 -0.0368
 1020loPI    C116305   4.834  17.252   4.437 -0.0059  0.1730 -0.2767
 1020loPI    C216306   4.697  16.923   4.618 -0.1157  0.2721 -0.1779
 1020loPI    C316307   4.906  16.892   4.278 -0.0610  0.0964 -0.1292
 1020loPI   PO416308   4.944  17.396   4.610 -0.2820 -0.0217  0.1467
 1020loPI   GL116309   4.978  17.302   5.087  0.2165  0.1773  0.3550
 1020loPI   GL216310   5.070  17.699   5.207  0.0048  0.0875  0.0047
 1020loPI   C1A16311   5.154  17.322   5.576  0.0211 -0.0766  0.2046
 1020loPI   C2A16312   5.095  17.453   6.019  0.0685  0.0760  0.0339
 1020loPI   C3A16313   5.096  17.492   6.441  0.0168  0.0217  0.1086
 1020loPI   C4A16314   5.136  17.357   6.922  0.1046 -0.0317  0.2649
 1020loPI   C5A16315   5.317  17.152   7.239 -0.0123 -0.2475 -0.0201
 1020loPI   C6A16316   5.553  16.933   7.564 -0.1341 -0.0153 -0.0762
 1020loPI   C1B16317   5.328  17.779   5.622  0.1709 -0.4043 -0.2753
 1020loPI   C2B16318   5.363  17.865   5.931 -0.1566  0.3571  0.2009
 1020loPI   C3B16319   5.343  17.952   6.333  0.1444  0.3844 -0.0572
 1020loPI   C4B16320   5.331  17.920   6.733 -0.1196 -0.2495  0.0863
 1021loPI    C116321  17.557   8.442   5.716  0.0478  0.0190 -0.0202
 1021loPI    C216322  17.480   8.145   5.459 -0.1089 -0.0326  0.0853
 1021loPI    C316323  17.569   8.510   5.322  0.0257 -0.1131 -0.0440
 1021loPI   PO416324  17.301   8.459   5.857 -0.0493  0.3000 -0.1932
 1021loPI   GL116325  17.028   8.338   6.139  0.2364  0.1205  0.0040
 1021loPI   GL216326  16.757   8.516   6.326  0.4168 -0.0472 -0.2593
 1021loPI   C1A16327  17.143   8.176   6.465  0.1436  0.1046 -0.0387
 1021loPI   C2A16328  17.202   8.395   6.937 -0.0885  0.1999  0.2257
 1021loPI   C3A16329  17.245   8.401   7.406  0.0422  0.2723 -0.0337
 1021loPI   C4A16330  17.291   8.349   7.867 -0.1339  0.1024  0.3059
 1021loPI   C5A16331  17.112   8.099   8.222 -0.0931 -0.2298 -0.1968
 1021loPI   C6A16332  16.800   8.008   8.493 -0.1826 -0.2539  0.1030
 1021loPI   C1B16333  16.519   8.883   6.502  0.1876  0.1824  0.0474
 1021loPI   C2B16334  16.516   8.843   7.000  0.3131 -0.0751  0.0697
 1021loPI   C3B16335  16.509   8.754   7.503 -0.2315  0.1173  0.1082
 1021loPI   C4B16336  16.510   8.701   7.987  0.1260  0.1240  0.3187
 1022loPI    C116337  14.816   7.848   5.395  0.0555  0.1616  0.0161
 1022loPI    C216338  14.706   8.222   5.310  0.0715  0.1883  0.1116
 1022loPI    C316339  14.966   8.032   5.074  0.0688  0.2397  0.0671
 1022loPI   PO416340  14.898   7.913   5.702  0.2006  0.1999 -0.1554
 1022loPI   GL116341  15.158   8.038   5.891 -0.1059  0.0020 -0.1408
 1022loPI   GL216342  15.163   8.275   6.041 -0.2886  0.1567  0.1871
 1022loPI   C1A16343  15.053   7.847   6.271 -0.0928 -0.1618  0.0392
 1022loPI   C2A16344  15.049   7.809   6.744 -0.1000 -0.1155  0.0625
 1022loPI   C3A16345  15.034   7.796   7.137 -0.3916  0.0823  0.0191
 1022loPI   C4A16346  15.033   7.701   7.585  0.1948  0.2733 -0.0282
 1022loPI   C5A16347  14.890   7.445   8.007  0.0092 -0.3586 -0.1957
 1022loPI   C6A16348  14.537   7.376   8.166 -0.3382 -0.0659 -0.1570
 1022loPI   C1B16349  15.248   8.222   6.466  0.0240 -0.2528  0.0105
 1022loPI   C2B16350  15.167   8.232   6.947  0.1817 -0.0738  0.0287
 1022loPI   C3B16351  15.277   8.219   7.307  0.0969  0.2082  0.1042
 1022loPI   C4B16352  15.229   8.104   7.722 -0.3755 -0.1961 -0.0522
 1023loPI    C116353   1.941   5.686   5.110  0.0548 -0.0413 -0.1671
 1023loPI    C216354   2.028   5.627   4.724 -0.0366 -0.0165 -0.1917
 1023loPI    C316355   1.803   5.361   4.921  0.1261 -0.1003 -0.1179
 1023loPI   PO416356   2.241   5.711   5.218  0.1045  0.0301 -0.0102
 1023loPI   GL116357   2.435   5.938   5.586  0.0106  0.0956 -0.2810
 1023loPI   GL216358   2.723   5.734   5.586 -0.0165 -0.2303 -0.1523
 1023loPI   C1A16359   2.468   5.965   6.051  0.0922 -0.1027  0.0740
 1023loPI   C2A16360   2.521   6.032   6.476  0.0841  0.1991  0.0408
 1023loPI   C3A16361   2.381   6.023   6.944 -0.0571 -0.0381 -0.1834
 1023loPI   C4A16362   2.347   6.160   7.383 -0.0186 -0.1394  0.2557
 1023loPI   C5A16363   2.703   5.987   7.682 -0.1628  0.0009  0.0108
 1023loPI   C6A16364   2.623   5.520   7.867  0.0019 -0.0606 -0.1065
 1023loPI   C1B16365   2.806   5.669   5.939 -0.0240 -0.3109 -0.0377
 1023loPI   C2B16366   2.791   5.542   6.338  0.4764  0.1672 -0.0248
 1023loPI   C3B16367   2.824   5.656   6.810  0.2415  0.0287  0.0141
 1023loPI   C4B16368   2.701   5.735   7.232  0.0354 -0.1955  0.1571
 1024loPI    C116369  11.159   6.182   5.403 -0.1177 -0.2383 -0.0429
 1024loPI    C216370  11.495   6.056   5.225 -0.0218  0.1005 -0.1092
 1024loPI    C316371  11.173   6.145   5.005 -0.0794  0.0016 -0.0655
 1024loPI   PO416372  11.290   6.315   5.592 -0.2238  0.2538 -0.0467
 1024loPI   GL116373  11.466   6.487   5.891  0.0057  0.1872  0.0388
 1024loPI   GL216374  11.263   6.205   6.049 -0.0591 -0.0692  0.1908
 1024loPI   C1A16375  11.640   6.672   6.331  0.0148 -0.1674 -0.0568
 1024loPI   C2A16376  11.757   6.566   6.717 -0.0953 -0.2921  0.0449
 1024loPI   C3A16377  11.840   6.497   7.179 -0.1198  0.0996  0.1551
 1024loPI   C4A16378  11.640   6.454   7.564  0.1515  0.0421 -0.0124
 1024loPI   C5A16379  11.364   6.390   7.861  0.2688 -0.0276  0.4199
 1024loPI   C6A16380  11.215   6.297   8.260 -0.0776 -0.0891 -0.0011
 1024loPI   C1B16381  11.172   6.252   6.512 -0.3936 -0.1272 -0.0120
 1024loPI   C2B16382  11.359   6.324   6.937  0.1238 -0.0720  0.2946
 1024loPI   C3B16383  11.272   6.211   7.301 -0.0357  0.0227 -0.1110
 1024loPI   C4B16384  11.288   5.943   7.675 -0.1334 -0.1496  0.3595
 1025loPI    C116385   6.232   1.540   4.968  0.0867 -0.1537 -0.1566
 1025loPI    C216386   6.258   1.719   4.611  0.1116 -0.0379 -0.0973
 1025loPI    C316387   6.364   1.335   4.651 -0.0853 -0.1109 -0.2575
 1025loPI   PO416388   6.352   1.693   5.211 -0.1976  0.0784  0.1812
 1025loPI   GL116389   6.416   1.726   5.642 -0.2572  0.1660 -0.3173
 1025loPI   GL216390   6.235   1.485   5.700  0.1737  0.0992  0.2349
 1025loPI   C1A16391   6.483   1.884   6.017  0.1889 -0.2009  0.1961
 1025loPI   C2A16392   6.428   1.986   6.480  0.0798 -0.0056  0.1279
 1025loPI   C3A16393   6.533   2.085   6.979  0.0866 -0.0470 -0.2658
 1025loPI   C4A16394   6.454   1.930   7.332 -0.0522  0.0355  0.2037
 1025loPI   C5A16395   6.545   1.743   7.751  0.0530  0.1327  0.0545
 1025loPI   C6A16396   6.474   1.908   8.197  0.0364  0.1428  0.2984
 1025loPI   C1B16397   6.223   1.452   6.182 -0.0257 -0.2064 -0.0691
 1025loPI   C2B16398   6.307   1.520   6.614  0.0298  0.0836 -0.3247
 1025loPI   C3B16399   6.252   1.386   7.111  0.1387  0.1447 -0.0721
 1025loPI   C4B16400   6.200   1.395   7.516  0.0590  0.2313 -0.1799
 1026loPI    C116401  16.383   6.648   5.285 -0.3463  0.0357  0.0970
 1026loPI    C216402  16.479   7.016   5.159  0.0257 -0.1400 -0.1518
 1026loPI    C316403  16.289   6.764   4.914 -0.1640 -0.1408 -0.0064
 1026loPI   PO416404  16.486   6.615   5.463 -0.0510 -0.1419 -0.1108
 1026loPI   GL116405  16.588   6.770   5.813 -0.0087 -0.2568  0.0092
 1026loPI   GL216406  16.817   6.980   5.921 -0.1764  0.0235  0.1345
 1026loPI   C1A16407  16.563   6.715   6.218  0.0016  0.1888  0.1252
 1026loPI   C2A16408  16.682   6.806   6.697  0.2633 -0.1253  0.0050
 1026loPI   C3A16409  16.601   6.834   7.081  0.1733 -0.2051 -0.1645
 1026loPI   C4A16410  16.641   6.879   7.563  0.0726  0.0565  0.3434
 1026loPI   C5A16411  16.619   7.111   7.783 -0.1930 -0.2389  0.4448
 1026loPI   C6A16412  16.452   7.474   8.039  0.1521  0.5284  0.0775
 1026loPI   C1B16413  16.824   7.167   6.414  0.2118 -0.2969  0.5145
 1026loPI   C2B16414  16.699   7.260   6.824  0.1039 -0.0743  0.1031
 1026loPI   C3B16415  16.811   7.301   7.255 -0.0575  0.0816  0.1502
 1026loPI   C4B16416  16.908   7.532   7.613 -0.0570 -0.0999 -0.2869
 1027loPI    C116417   6.444  13.198   5.154 -0.0573 -0.2823  0.2495
 1027loPI    C216418   6.268  12.904   4.947  0.1800 -0.1269 -0.1874
 1027loPI    C316419   6.660  12.970   4.905  0.2233 -0.0535  0.2785
 1027loPI   PO416420   6.365  13.141   5.441  0.0489  0.2438  0.1523
 1027loPI   GL116421   6.390  13.217   5.806  0.2544  0.1226  0.0504
 1027loPI   GL216422   6.367  13.465   5.964 -0.1644  0.2399  0.3022
 1027loPI   C1A16423   6.315  12.962   6.160 -0.1996 -0.2208  0.1094
 1027loPI   C2A16424   6.016  12.765   6.439 -0.2488 -0.0126  0.1336
 1027loPI   C3A16425   5.995  12.511   6.680 -0.0098  0.0616 -0.2963
 1027loPI   C4A16426   6.022  12.464   7.072 -0.2714  0.1280  0.0059
 1027loPI   C5A16427   6.175  12.371   7.463  0.4086 -0.1157 -0.1070
 1027loPI   C6A16428   6.333  12.180   7.783 -0.3363 -0.2039  0.2346
 1027loPI   C1B16429   6.417  13.395   6.369 -0.0814 -0.1261 -0.3437
 1027loPI   C2B16430   6.424  13.556   6.877  0.0358  0.1033 -0.2061
 1027loPI   C3B16431   6.633  13.626   7.275  0.2321  0.0163 -0.3018
 1027loPI   C4B16432   6.509  13.629   7.734 -0.0853 -0.2407  0.0015
 1028loPI    C116433   0.952   7.990   4.984 -0.1106  0.0128  0.0514
 1028loPI    C216434   1.155   8.141   4.675 -0.1420  0.1358  0.0903
 1028loPI    C316435   0.812   7.945   4.612 -0.1582  0.1774  0.0489
 1028loPI   PO416436   0.955   8.209   5.246  0.0931  0.0926 -0.0579
 1028loPI   GL116437   0.938   8.292   5.629 -0.1023  0.1841  0.1503
 1028loPI   GL216438   0.700   8.479   5.714 -0.0729 -0.0434  0.0660
 1028loPI   C1A16439   0.875   7.963   5.962  0.2702  0.0985  0.0357
 1028loPI   C2A16440   0.769   8.020   6.308  0.5364 -0.4857  0.3966
 1028loPI   C3A16441   0.672   8.091   6.765  0.0872 -0.1461  0.0650
 1028loPI   C4A16442   0.841   8.115   7.206  0.0559 -0.0082 -0.0854
 1028loPI   C5A16443   0.889   8.231   7.674  0.1880  0.1689  0.0528
 1028loPI   C6A16444   1.091   8.447   8.039  0.1186 -0.1857  0.2102
 1028loPI   C1B16445   0.669   8.438   6.114 -0.3119 -0.2832 -0.0526
 1028loPI   C2B16446   0.767   8.518   6.531 -0.1344 -0.0972 -0.2151
 1028loPI   C3B16447   0.979   8.553   6.822  0.2979  0.1840  0.1510
 1028loPI   C4B16448   1.089   8.572   7.350  0.3322  0.4573  0.0048
 1029loPI    C116449   3.424   9.511   5.171  0.0559 -0.1783 -0.0077
 1029loPI    C216450   3.196   9.547   4.844 -0.2560  0.2847  0.2482
 1029loPI    C316451   3.550   9.733   4.863  0.0310 -0.2078 -0.0394
 1029loPI   PO416452   3.324   9.666   5.422  0.1473 -0.1916 -0.0109
 1029loPI   GL116453   3.037   9.702   5.816  0.2979  0.1624  0.0031
 1029loPI   GL216454   3.040   9.366   5.798  0.1850 -0.2440 -0.0949
 1029loPI   C1A16455   3.025   9.769   6.236 -0.1826 -0.0763 -0.0521
 1029loPI   C2A16456   2.934   9.755   6.655 -0.4898  0.1469 -0.0139
 1029loPI   C3A16457   2.971   9.701   7.043  0.3063 -0.2868 -0.2368
 1029loPI   C4A16458   2.965   9.840   7.447 -0.0236  0.0236  0.2041
 1029loPI   C5A16459   3.040   9.709   7.857  0.2103  0.0079  0.0502
 1029loPI   C6A16460   2.867   9.664   8.152 -0.0287  0.2495 -0.0875
 1029loPI   C1B16461   3.341   9.403   6.132  0.0074 -0.0841  0.2582
 1029loPI   C2B16462   3.389   9.273   6.566 -0.0287  0.0725 -0.0057
 1029loPI   C3B16463   3.324   9.338   7.019  0.0472 -0.3690  0.1160
 1029loPI   C4B16464   3.179   9.395   7.459 -0.2730 -0.1638 -0.1780
 1030loPI    C116465   4.940   9.032   5.237  0.0677 -0.2162 -0.2099
 1030loPI    C216466   4.586   9.177   5.121  0.0074 -0.2659 -0.0890
 1030loPI    C316467   4.773   8.903   4.897  0.0214 -0.1594 -0.2089
 1030loPI   PO416468   4.984   9.229   5.498 -0.2676 -0.0862  0.0134
 1030loPI   GL116469   4.798   9.507   5.863 -0.3027 -0.2034 -0.1649
 1030loPI   GL216470   5.091   9.525   5.931 -0.0151 -0.1352 -0.0301
 1030loPI   C1A16471   4.424   9.419   6.057  0.1574  0.0534 -0.0854
 1030loPI   C2A16472   4.353   9.455   6.551  0.0270 -0.1953 -0.0274
 1030loPI   C3A16473   4.333   9.648   6.974  0.2158 -0.2516  0.3209
 1030loPI   C4A16474   4.234   9.580   7.316 -0.2760  0.2122 -0.1300
 1030loPI   C5A16475   4.007   9.776   7.557  0.0199  0.2823 -0.0899
 1030loPI   C6A16476   4.094   9.954   7.964 -0.1537 -0.0681  0.0121
 1030loPI   C1B16477   4.825   9.387   6.364 -0.2270 -0.3110  0.1046
 1030loPI   C2B16478   4.752   9.494   6.792  0.1086 -0.0532  0.2936
 1030loPI   C3B16479   4.649   9.252   7.114 -0.0632  0.1829  0.0557
 1030loPI   C4B16480   4.422   9.110   7.419 -0.1461 -0.0706  0.4103
 1031loPI    C116481   4.605  17.741   4.473  0.0035  0.2730  0.2304
 1031loPI    C216482   4.565  17.833   4.086 -0.0910  0.0297  0.1798
 1031loPI    C316483   4.921  17.722   4.230 -0.0566  0.1168  0.1627
 1031loPI   PO416484   4.495  17.965   4.621 -0.0639  0.1176 -0.0835
 1031loPI   GL116485   4.582  18.176   4.958 -0.3996  0.0418  0.0312
 1031loPI   GL216486   4.603  18.483   5.172 -0.1888 -0.4078 -0.2829
 1031loPI   C1A16487   4.735  18.057   5.326 -0.3129  0.2398  0.2602
 1031loPI   C2A16488   4.848  17.888   5.730 -0.0177 -0.3631  0.0637
 1031loPI   C3A16489   4.808  17.832   6.168 -0.0940 -0.2919  0.0435
 1031loPI   C4A16490   4.805  17.978   6.514  0.0551  0.2012 -0.1238
 1031loPI   C5A16491   4.879  17.765   6.886  0.3604  0.3761  0.0751
 1031loPI   C6A16492   5.067  17.662   7.318  0.0008  0.0347  0.2682
 1031loPI   C1B16493   4.552  18.284   5.688 -0.1199  0.0550 -0.0679
 1031loPI   C2B16494   4.484  18.225   6.142 -0.0040  0.2573  0.2105
 1031loPI   C3B16495   4.518  18.402   6.543 -0.0706  0.1606 -0.0020
 1031loPI   C4B16496   4.600  18.357   6.937  0.1943  0.1730 -0.1019
 1032loPI    C116497  16.375  13.955   4.938 -0.1080  0.0322 -0.2147
 1032loPI    C216498  16.368  13.611   4.734 -0.0136 -0.0287 -0.1169
 1032loPI    C316499  16.374  13.960   4.538 -0.0492 -0.0834 -0.2167
 1032loPI   PO416500  16.575  13.928   5.124  0.2051 -0.0426  0.0966
 1032loPI   GL116501  16.699  13.832   5.607 -0.2083 -0.0147 -0.0770
 1032loPI   GL216502  16.405  13.925   5.621 -0.0598  0.0489  0.2408
 1032loPI   C1A16503  16.789  13.676   6.033  0.0652  0.2785  0.0937
 1032loPI   C2A16504  16.876  13.616   6.474  0.0332  0.0321 -0.2527
 1032loPI   C3A16505  16.863  13.735   6.867  0.1838  0.2922  0.1335
 1032loPI   C4A16506  16.722  13.670   7.268  0.0475 -0.1424  0.2403
 1032loPI   C5A16507  16.841  13.541   7.713 -0.1158  0.0263 -0.1708
 1032loPI   C6A16508  16.714  13.599   8.087 -0.5414  0.2423 -0.2170
 1032loPI   C1B16509  16.471  14.099   6.080 -0.1124  0.0437  0.0275
 1032loPI   C2B16510  16.552  14.092   6.557 -0.2151 -0.0033  0.0181
 1032loPI   C3B16511  16.574  14.126   7.022 -0.1880  0.0291  0.0327
 1032loPI   C4B16512  16.447  14.106   7.357 -0.0124  0.1805 -0.1581
 1033loPI    C116513  12.547  13.418   5.729 -0.0081  0.0483 -0.1495
 1033loPI    C216514  12.766  13.507   5.406 -0.2725  0.3712 -0.2451
 1033loPI    C316515  12.824  13.705   5.749 -0.0529  0.0893 -0.1156
 1033loPI   PO416516  12.304  13.403   5.624  0.1384 -0.1547 -0.2262
 1033loPI   GL116517  12.055  13.414   5.947 -0.2107  0.0528  0.0818
 1033loPI   GL216518  11.750  13.570   5.995 -0.0165  0.2131 -0.0420
 1033loPI   C1A16519  12.001  13.524   6.395  0.1004  0.0639 -0.1593
 1033loPI   C2A16520  11.871  13.427   6.795  0.2301 -0.0570 -0.1223
 1033loPI   C3A16521  11.937  13.605   7.097 -0.1755  0.0787 -0.1883
 1033loPI   C4A16522  11.801  13.952   7.305 -0.1483  0.1093  0.0619
 1033loPI   C5A16523  12.214  14.059   7.455 -0.0503  0.1574 -0.1148
 1033loPI   C6A16524  12.290  14.060   7.896 -0.2592 -0.2194  0.0788
 1033loPI   C1B16525  11.496  13.682   6.496  0.1702  0.1900 -0.0039
 1033loPI   C2B16526  11.478  13.801   6.925  0.0546  0.0172  0.2354
 1033loPI   C3B16527  11.221  14.050   7.172  0.2224 -0.3819  0.0477
 1033loPI   C4B16528  11.145  14.100   7.562 -0.0211 -0.1603 -0.0872
 1034loPI    C116529  17.743  16.913   4.976 -0.0154  0.0894  0.0630
 1034loPI    C216530  17.363  16.917   4.853 -0.0825  0.0997  0.2670
 1034loPI    C316531  17.638  17.132   4.658 -0.1495 -0.0328  0.0223
 1034loPI   PO416532  17.735  16.965   5.266 -0.0875  0.0837  0.0294
 1034loPI   GL116533  17.925  16.799   5.465 -0.0958 -0.1421  0.0627
 1034loPI   GL216534  17.777  16.502   5.487  0.0676  0.0079 -0.2249
 1034loPI   C1A16535  17.892  17.129   5.869  0.1019 -0.1489  0.4163
 1034loPI   C2A16536  17.822  17.089   6.363  0.0474 -0.1142 -0.1410
 1034loPI   C3A16537  17.840  16.954   6.719 -0.1131 -0.3902  0.1005
 1034loPI   C4A16538  17.814  17.059   7.134 -0.1287 -0.2006 -0.4752
 1034loPI   C5A16539  17.728  16.830   7.516 -0.0362  0.0337 -0.1836
 1034loPI   C6A16540  17.597  16.527   7.765  0.3576  0.0070 -0.0858
 1034loPI   C1B16541  17.658  16.610   5.958  0.2366 -0.0019  0.0043
 1034loPI   C2B16542  17.614  16.612   6.417  0.2746  0.0290 -0.0055
 1034loPI   C3B16543  17.633  16.506   6.836  0.0503  0.1737 -0.0850
 1034loPI   C4B16544  17.570  16.508   7.245 -0.1403  0.0501 -0.3129
 1035loPI    C116545  15.017  15.527   5.136  0.0856 -0.1780  0.0774
 1035loPI    C216546  14.671  15.369   5.012  0.0742 -0.1227  0.0385
 1035loPI    C316547  14.963  15.443   4.749  0.1302 -0.2049  0.0770
 1035loPI   PO416548  14.931  15.706   5.292 -0.0104 -0.0999 -0.2148
 1035loPI   GL116549  14.630  15.642   5.577 -0.0938  0.0180  0.1289
 1035loPI   GL216550  14.509  15.347   5.464 -0.1588  0.1842 -0.0455
 1035loPI   C1A16551  14.692  15.700   5.976 -0.2195  0.3952 -0.0417
 1035loPI   C2A16552  14.802  15.683   6.404 -0.1042 -0.1902  0.1728
 1035loPI   C3A16553  14.888  15.791   6.854 -0.0476  0.1189 -0.0382
 1035loPI   C4A16554  14.898  15.830   7.291  0.1918  0.1649 -0.0441
 1035loPI   C5A16555  14.878  15.756   7.801 -0.1989 -0.0111 -0.0178
 1035loPI   C6A16556  14.645  15.744   8.153 -0.2617  0.1016  0.0545
 1035loPI   C1B16557  14.593  15.084   5.910 -0.1643 -0.0956 -0.0465
 1035loPI   C2B16558  14.511  15.306   6.272 -0.1203 -0.1553  0.6056
 1035loPI   C3B16559  14.605  15.353   6.726 -0.0372 -0.1130  0.1715
 1035loPI   C4B16560  14.634  15.322   7.243  0.1100  0.0189  0.1325
 1036loPI    C116561  13.394   3.178   5.017 -0.0565  0.0908  0.0425
 1036loPI    C216562  13.245   3.548   5.043 -0.2222  0.0356 -0.1032
 1036loPI    C316563  13.093   3.289   4.779 -0.1862 -0.1748  0.0792
 1036loPI   PO416564  13.450   3.120   5.233 -0.2455  0.2156 -0.0509
 1036loPI   GL116565  13.581   2.993   5.669  0.4039  0.0302 -0.1061
 1036loPI   GL216566  13.525   3.393   5.663  0.1706  0.1186 -0.0358
 1036loPI   C1A16567  13.474   3.044   6.068 -0.0663 -0.1943  0.1368
 1036loPI   C2A16568  13.381   3.130   6.534 -0.1633  0.1392  0.0108
 1036loPI   C3A16569  13.324   3.049   6.955 -0.1564  0.1987 -0.0517
 1036loPI   C4A16570  13.422   3.094   7.385 -0.1782  0.2981  0.0821
 1036loPI   C5A16571  13.597   3.207   7.770 -0.0056  0.3018 -0.0331
 1036loPI   C6A16572  13.920   3.166   8.025 -0.0825  0.0666  0.0736
 1036loPI   C1B16573  13.657   3.551   6.108  0.2674  0.2391  0.0768
 1036loPI   C2B16574  13.784   3.827   6.475  0.0803 -0.0797  0.1243
 1036loPI   C3B16575  13.854   3.923   7.014  0.3282  0.2544 -0.1762
 1036loPI   C4B16576  14.005   3.860   7.465  0.1369  0.1877 -0.0155
 1037loPI    C116577  11.823  18.133   5.070  0.1095 -0.0596  0.0593
 1037loPI    C216578  11.851  17.924   4.730 -0.0645  0.0124 -0.0006
 1037loPI    C316579  11.946  18.312   4.734  0.4265 -0.1018  0.1497
 1037loPI   PO416580  11.730  17.908   5.232 -0.0796 -0.0974  0.1439
 1037loPI   GL116581  11.818  17.883   5.732  0.0769 -0.2207  0.1039
 1037loPI   GL216582  11.477  17.826   5.751  0.3268  0.2362  0.2465
 1037loPI   C1A16583  11.783  17.497   6.003  0.2840 -0.0661  0.0048
 1037loPI   C2A16584  11.869  17.064   6.146 -0.2816  0.1046 -0.1902
 1037loPI   C3A16585  11.914  16.878   6.553  0.1248 -0.0583 -0.2501
 1037loPI   C4A16586  11.837  16.840   6.978 -0.0066 -0.0199 -0.1550
 1037loPI   C5A16587  11.832  16.925   7.454 -0.0396 -0.2041  0.1994
 1037loPI   C6A16588  12.128  17.220   7.561 -0.0304 -0.0826  0.2227
 1037loPI   C1B16589  11.364  17.850   6.191  0.1173 -0.0318 -0.1335
 1037loPI   C2B16590  11.224  17.481   6.364  0.0793  0.0613  0.3411
 1037loPI   C3B16591  11.209  17.374   6.807 -0.2917 -0.0795  0.1249
 1037loPI   C4B16592  11.029  17.318   7.151 -0.2167 -0.0094 -0.1330
 1038loPI    C116593  12.440   4.650   5.235 -0.1131  0.1155  0.2000
 1038loPI    C216594  12.816   4.765   5.309 -0.1559  0.1592  0.3525
 1038loPI    C316595  12.727   4.586   4.964  0.0020  0.1629  0.3088
 1038loPI   PO416596  12.368   4.555   5.524  0.1391  0.1633 -0.1528
 1038loPI   GL116597  12.164   4.574   5.870 -0.1894 -0.3623  0.3865
 1038loPI   GL216598  12.454   4.648   6.039 -0.0160 -0.0120  0.2959
 1038loPI   C1A16599  12.053   4.425   6.236  0.0461 -0.2348 -0.0659
 1038loPI   C2A16600  11.933   4.495   6.691  0.0389  0.1069  0.0902
 1038loPI   C3A16601  11.928   4.650   7.134  0.1081  0.0528 -0.2692
 1038loPI   C4A16602  11.981   4.728   7.617 -0.2026  0.1297 -0.2102
 1038loPI   C5A16603  11.704   5.100   7.758 -0.3197  0.0176 -0.0423
 1038loPI   C6A16604  11.408   5.462   7.787  0.0790 -0.0574  0.1196
 1038loPI   C1B16605  12.558   4.520   6.445  0.0753  0.0811 -0.1775
 1038loPI   C2B16606  12.755   4.239   6.690  0.2193 -0.2223  0.1958
 1038loPI   C3B16607  13.030   3.995   6.737 -0.0540  0.1208  0.1115
 1038loPI   C4B16608  13.202   3.871   7.135  0.1286 -0.1258  0.1679
 1039loPI    C116609   4.106   1.007   4.612 -0.0683  0.0065 -0.0009
 1039loPI    C216610   4.154   0.636   4.473  0.0538  0.0808 -0.1605
 1039loPI    C316611   4.254   0.949   4.245 -0.2107  0.2169 -0.0938
 1039loPI   PO416612   4.242   1.002   4.818  0.0642 -0.2367 -0.3303
 1039loPI   GL116613   4.145   1.019   5.262 -0.0837 -0.3409 -0.2511
 1039loPI   GL216614   4.222   1.213   5.418  0.0127 -0.2648  0.0652
 1039loPI   C1A16615   3.981   0.828   5.614 -0.0310 -0.2629  0.3340
 1039loPI   C2A16616   3.912   0.836   6.104 -0.3130  0.3013 -0.0900
 1039loPI   C3A16617   3.915   0.811   6.530  0.0571 -0.3096 -0.1274
 1039loPI   C4A16618   3.935   0.818   7.008 -0.2418 -0.0906 -0.1082
 1039loPI   C5A16619   3.626   0.919   7.436 -0.0251 -0.0084 -0.0727
 1039loPI   C6A16620   3.258   0.845   7.680  0.1812  0.2894 -0.0588
 1039loPI   C1B16621   4.183   1.264   5.859 -0.1406 -0.1073 -0.0554
 1039loPI   C2B16622   4.254   1.343   6.226  0.2699 -0.0536 -0.1214
 1039loPI   C3B16623   4.228   1.275   6.719  0.0235 -0.0112 -0.0519
 1039loPI   C4B16624   4.238   1.189   7.174 -0.0022  0.1449 -0.0592
 1040loPI    C116625   4.076   3.784   5.189 -0.0223 -0.0542 -0.1303
 1040loPI    C216626   4.001   4.169   5.268  0.0009 -0.0669 -0.0452
 1040loPI    C316627   4.356   4.010   5.364 -0.0331 -0.1269 -0.0177
 1040loPI   PO416628   3.899   3.676   5.261 -0.2077  0.0946 -0.0892
 1040loPI   GL116629   3.937   3.564   5.618  0.2254  0.1574  0.1774
 1040loPI   GL216630   3.951   3.855   5.694  0.0022  0.0413 -0.2687
 1040loPI   C1A16631   3.722   3.463   5.930 -0.0520  0.1853  0.2396
 1040loPI   C2A16632   3.797   3.468   6.372  0.0337 -0.3146 -0.1472
 1040loPI   C3A16633   3.800   3.516   6.783 -0.2617 -0.1956 -0.0871
 1040loPI   C4A16634   3.675   3.510   7.261  0.1734 -0.0436 -0.2415
 1040loPI   C5A16635   3.766   3.359   7.679 -0.2911 -0.2355  0.5152
 1040loPI   C6A16636   3.820   3.309   8.156  0.0337  0.0110 -0.2378
 1040loPI   C1B16637   3.923   3.951   6.169 -0.2250  0.1705 -0.1108
 1040loPI   C2B16638   3.948   3.950   6.581  0.0157  0.2823 -0.2141
 1040loPI   C3B16639   3.980   3.952   7.025 -0.1563 -0.0227 -0.0678
 1040loPI   C4B16640   3.854   3.935   7.506 -0.0438 -0.2077 -0.0252
 1041loPI    C116641   2.021  14.611   5.015 -0.1844 -0.0021 -0.2280
 1041loPI    C216642   2.086  14.423   4.668 -0.0154 -0.1156 -0.1357
 1041loPI    C316643   2.265  14.773   4.742  0.1759 -0.2295 -0.0491
 1041loPI   PO416644   1.900  14.434   5.227  0.0817  0.3075  0.0732
 1041loPI   GL116645   2.106  14.263   5.500 -0.2895 -0.0417 -0.2528
 1041loPI   GL216646   1.754  14.155   5.662  0.0933  0.2894  0.1675
 1041loPI   C1A16647   2.191  14.504   5.872  0.0792 -0.2880 -0.0567
 1041loPI   C2A16648   2.297  14.599   6.319 -0.0558 -0.1390 -0.2636
 1041loPI   C3A16649   2.223  14.531   6.806  0.1793  0.3975  0.4206
 1041loPI   C4A16650   2.215  14.534   7.352 -0.2905 -0.0961  0.0414
 1041loPI   C5A16651   2.229  14.668   7.663 -0.1250 -0.0359  0.1424
 1041loPI   C6A16652   1.927  14.804   8.014 -0.0319  0.2767  0.1628
 1041loPI   C1B16653   1.598  13.897   5.951  0.2821 -0.4252 -0.1866
 1041loPI   C2B16654   1.553  14.009   6.364  0.1740 -0.0938 -0.1441
 1041loPI   C3B16655   1.517  14.036   6.797 -0.0776 -0.2099  0.1592
 1041loPI   C4B16656   1.502  14.050   7.196  0.0985 -0.1767 -0.1619
 1042loPI    C116657   7.423  17.754   5.178 -0.2241 -0.0490 -0.0859
 1042loPI    C216658   7.222  17.541   4.906  0.1150 -0.3285 -0.1250
 1042loPI    C316659   7.588  17.678   4.822 -0.0966  0.2803 -0.1005
 1042loPI   PO416660   7.421  17.565   5.386  0.2654  0.0366 -0.1131
 1042loPI   GL116661   7.102  17.427   5.604 -0.0971  0.1427 -0.1069
 1042loPI   GL216662   6.954  17.119   5.652 -0.0468  0.2175 -0.4827
 1042loPI   C1A16663   7.199  17.591   6.087 -0.2394  0.2473  0.1462
 1042loPI   C2A16664   7.112  17.517   6.486 -0.3530  0.2342 -0.1147
 1042loPI   C3A16665   7.094  17.582   7.001  0.1424  0.0088 -0.1241
 1042loPI   C4A16666   7.106  17.657   7.429 -0.0951 -0.0987 -0.0617
 1042loPI   C5A16667   7.252  17.930   7.767 -0.0335 -0.2201  0.0130
 1042loPI   C6A16668   7.228  17.978   8.146  0.2797 -0.1072  0.1141
 1042loPI   C1B16669   7.007  17.062   6.121  0.2136 -0.0125  0.3668
 1042loPI   C2B16670   6.934  17.042   6.568  0.1979 -0.1328 -0.1353
 1042loPI   C3B16671   6.862  17.117   6.969  0.1300  0.2218 -0.0121
 1042loPI   C4B16672   6.812  17.117   7.391  0.2797 -0.1301 -0.1971
 1043loPI    C116673  17.595  -0.074   5.184 -0.0109 -0.0129 -0.0730
 1043loPI    C216674  17.397  -0.005   4.843 -0.1574 -0.0180  0.0101
 1043loPI    C316675  17.692   0.241   4.957  0.0684 -0.1638 -0.2505
 1043loPI   PO416676  17.499  -0.064   5.335  0.1418 -0.0646  0.1940
 1043loPI   GL116677  17.387   0.057   5.680 -0.1099 -0.1280  0.2003
 1043loPI   GL216678  17.319  -0.237   5.795 -0.2369  0.2771  0.1042
 1043loPI   C1A16679  17.447   0.085   6.145  0.0425  0.0301 -0.0209
 1043loPI   C2A16680  17.457  -0.003   6.538 -0.1142 -0.3528  0.0244
 1043loPI   C3A16681  17.599  -0.027   6.935 -0.1979  0.0001 -0.0145
 1043loPI   C4A16682  17.465  -0.042   7.340 -0.0609  0.1440 -0.0833
 1043loPI   C5A16683  17.677   0.121   7.671 -0.1066  0.1375 -0.0015
 1043loPI   C6A16684  17.983   0.233   8.012  0.1495 -0.1324  0.0865
 1043loPI   C1B16685  17.218  -0.387   6.181 -0.0620  0.1375 -0.2961
 1043loPI   C2B16686  17.213  -0.514   6.594 -0.0037 -0.2921 -0.3216
 1043loPI   C3B16687  17.232  -0.435   7.051  0.1002 -0.1624 -0.1157
 1043loPI   C4B16688  17.157  -0.573   7.450  0.5427  0.0930 -0.2001
 1044loPI    C116689   8.826  17.567   5.129 -0.1861  0.1797 -0.2380
 1044loPI    C216690   8.602  17.510   5.456  0.0998  0.0105 -0.0676
 1044loPI    C316691   8.491  17.349   5.107 -0.1796  0.1479 -0.0447
 1044loPI   PO416692   8.916  17.819   5.183  0.2518 -0.2135  0.0380
 1044loPI   GL116693   8.831  17.932   5.625 -0.2556  0.3193 -0.0182
 1044loPI   GL216694   9.187  17.969   5.585 -0.0284  0.0873 -0.1585
 1044loPI   C1A16695   8.651  17.885   5.988 -0.1027  0.1161  0.0788
 1044loPI   C2A16696   8.529  18.029   6.401 -0.3165  0.0783 -0.1629
 1044loPI   C3A16697   8.361  18.116   6.768 -0.0732 -0.0736 -0.2849
 1044loPI   C4A16698   8.322  18.265   7.113  0.1724  0.2535 -0.0048
 1044loPI   C5A16699   8.368  18.222   7.568 -0.0571  0.1524  0.0778
 1044loPI   C6A16700   8.116  18.197   7.973  0.2667 -0.1520  0.0010
 1044loPI   C1B16701   9.133  18.069   6.055 -0.0575 -0.3807 -0.0484
 1044loPI   C2B16702   8.987  18.066   6.461  0.0346 -0.1379  0.2038
 1044loPI   C3B16703   8.827  18.188   6.913 -0.2837  0.0052  0.1049
 1044loPI   C4B16704   8.856  18.311   7.256 -0.1373  0.0539 -0.0102
 1045loPI    C116705  11.155   3.853   5.014  0.0061 -0.0236  0.0487
 1045loPI    C216706  11.017   3.954   4.653 -0.0615  0.1516  0.1224
 1045loPI    C316707  11.045   4.230   4.941 -0.1940 -0.0282  0.3109
 1045loPI   PO416708  11.007   3.689   5.129 -0.3687  0.1158 -0.1486
 1045loPI   GL116709  11.076   3.796   5.597  0.0276  0.1923 -0.2257
 1045loPI   GL216710  10.893   4.112   5.674 -0.2367  0.1499  0.0128
 1045loPI   C1A16711  11.280   3.761   5.960 -0.0392  0.1127 -0.0427
 1045loPI   C2A16712  11.292   3.908   6.472 -0.1139 -0.1100  0.2263
 1045loPI   C3A16713  11.200   4.062   6.809 -0.0519 -0.2204  0.0039
 1045loPI   C4A16714  11.004   4.300   7.176  0.0036  0.2947  0.2106
 1045loPI   C5A16715  11.055   4.591   7.570  0.1737  0.1323 -0.0737
 1045loPI   C6A16716  11.209   4.948   7.622 -0.0698 -0.0017 -0.2471
 1045loPI   C1B16717  11.051   4.270   6.155  0.1917  0.1980  0.0780
 1045loPI   C2B16718  10.745   4.458   6.459 -0.1151  0.1638  0.3165
 1045loPI   C3B16719  10.806   4.685   6.773 -0.2626 -0.0154  0.1769
 1045loPI   C4B16720  11.059   4.813   7.098  0.1151 -0.2742 -0.0627
 1046loPI    C116721   5.021   1.180   4.785 -0.0013 -0.0314  0.0809
 1046loPI    C216722   5.174   1.001   4.462  0.0212  0.0264  0.0594
 1046loPI    C316723   5.081   1.390   4.450 -0.1633 -0.0168  0.0600
 1046loPI   PO416724   5.131   1.004   5.062  0.0584  0.0427  0.2149
 1046loPI   GL116725   4.899   0.936   5.462 -0.3630 -0.1926  0.1855
 1046loPI   GL216726   5.167   1.139   5.531 -0.0063 -0.2514 -0.0398
 1046loPI   C1A16727   4.941   0.807   5.902  0.3318  0.1020 -0.1909
 1046loPI   C2A16728   5.042   0.914   6.355 -0.0744 -0.0475  0.0449
 1046loPI   C3A16729   5.104   0.937   6.712 -0.2063 -0.0383  0.0663
 1046loPI   C4A16730   4.983   0.932   7.187  0.0488 -0.1188 -0.0254
 1046loPI   C5A16731   5.185   0.970   7.540  0.2075  0.1394 -0.0462
 1046loPI   C6A16732   5.133   1.155   7.868  0.4572 -0.2556 -0.2157
 1046loPI   C1B16733   5.229   1.266   5.991  0.0400  0.2727 -0.1578
 1046loPI   C2B16734   5.315   1.398   6.508 -0.0383  0.0957  0.0117
 1046loPI   C3B16735   5.280   1.433   6.918  0.1061  0.0508  0.0040
 1046loPI   C4B16736   5.138   1.402   7.321 -0.1477 -0.1880 -0.1312
 1047loPI    C116737  12.100   5.522   5.318  0.1305  0.1717 -0.1484
 1047loPI    C216738  11.997   5.905   5.371 -0.1620  0.0975 -0.1617
 1047loPI    C316739  11.915   5.721   5.025 -0.1294 -0.0114 -0.1121
 1047loPI   PO416740  12.058   5.479   5.612 -0.1770 -0.0445 -0.2517
 1047loPI   GL116741  11.828   5.631   5.862  0.0086  0.0507  0.2100
 1047loPI   GL216742  11.592   5.912   5.732  0.0777 -0.2549  0.0557
 1047loPI   C1A16743  11.942   5.605   6.240  0.1708  0.0281 -0.0443
 1047loPI   C2A16744  11.982   5.423   6.599 -0.1387 -0.1593 -0.0055
 1047loPI   C3A16745  12.100   5.128   6.949 -0.0461 -0.1295 -0.0550
 1047loPI   C4A16746  12.021   5.219   7.340 -0.0030  0.3200 -0.1122
 1047loPI   C5A16747  12.156   5.536   7.698 -0.0766  0.2200  0.0403
 1047loPI   C6A16748  11.806   5.704   7.821  0.1761 -0.2457  0.0328
 1047loPI   C1B16749  11.768   6.105   6.107  0.2035 -0.1039 -0.0778
 1047loPI   C2B16750  11.845   6.121   6.468  0.0040  0.0291 -0.0651
 1047loPI   C3B16751  11.774   5.980   6.853  0.0810 -0.0561 -0.2434
 1047loPI   C4B16752  11.749   5.975   7.352 -0.1626  0.1638  0.1873
 1048loPI    C116753  13.398   8.895   5.839  0.2260 -0.0002  0.0652
 1048loPI    C216754  13.498   8.738   5.485 -0.2542 -0.0787 -0.0427
 1048loPI    C316755  13.349   9.109   5.504  0.1515  0.0811  0.1272
 1048loPI   PO416756  13.387   8.697   6.037  0.3383 -0.0374 -0.2393
 1048loPI   GL116757  12.980   8.539   6.240 -0.0071  0.0901 -0.1469
 1048loPI   GL216758  12.685   8.750   6.301  0.0504  0.1152  0.1179
 1048loPI   C1A16759  13.109   8.419   6.696 -0.0634 -0.1792 -0.0874
 1048loPI   C2A16760  12.919   8.204   7.034  0.1235 -0.1193  0.0114
 1048loPI   C3A16761  12.622   8.104   7.322 -0.1349 -0.0645 -0.0434
 1048loPI   C4A16762  12.296   8.212   7.540  0.1166  0.2545 -0.2891
 1048loPI   C5A16763  12.127   8.628   7.663  0.2169  0.1295  0.1918
 1048loPI   C6A16764  11.672   8.733   7.709  0.2907  0.0235 -0.1257
 1048loPI   C1B16765  12.504   8.584   6.765 -0.1824  0.1967 -0.0558
 1048loPI   C2B16766  12.215   8.150   6.986 -0.2068  0.0394  0.1806
 1048loPI   C3B16767  12.237   7.743   7.148 -0.1015 -0.0492  0.0906
 1048loPI   C4B16768  12.244   7.433   7.563 -0.0780 -0.2037  0.1699
 1049loPI    C116769  15.838   4.915   5.068  0.0384  0.1799 -0.0157
 1049loPI    C216770  15.983   4.689   4.771  0.0380  0.1709 -0.0091
 1049loPI    C316771  15.604   4.815   4.759  0.0301  0.1484  0.0007
 1049loPI   PO416772  16.028   4.791   5.271  0.2737  0.0509  0.3251
 1049loPI   GL116773  15.922   4.553   5.541  0.0886 -0.2128 -0.0522
 1049loPI   GL216774  15.881   4.132   5.557  0.1795  0.0621  0.0369
 1049loPI   C1A16775  15.949   4.829   5.975 -0.2070  0.2253  0.1638
 1049loPI   C2A16776  15.998   4.770   6.484  0.1249  0.0772  0.0706
 1049loPI   C3A16777  16.073   4.796   6.928  0.3431  0.0601 -0.0922
 1049loPI   C4A16778  16.045   4.862   7.392  0.1890 -0.1909 -0.0827
 1049loPI   C5A16779  15.966   4.499   7.643  0.0555 -0.2668 -0.3080
 1049loPI   C6A16780  15.956   4.077   7.787  0.0300 -0.1612  0.0457
 1049loPI   C1B16781  15.862   4.321   6.024 -0.2383  0.0932  0.1933
 1049loPI   C2B16782  15.795   4.229   6.427 -0.1230  0.0525 -0.0746
 1049loPI   C3B16783  15.833   4.336   6.804  0.0612  0.1499 -0.0685
 1049loPI   C4B16784  15.995   4.269   7.169 -0.0694  0.4038 -0.3005
 1050loPI    C116785   2.846  12.002   5.093  0.1179  0.1216 -0.0951
 1050loPI    C216786   3.219  12.057   4.958  0.1268  0.0545 -0.0981
 1050loPI    C316787   2.971  11.809   4.766  0.1320 -0.0240 -0.0048
 1050loPI   PO416788   2.885  12.022   5.361 -0.3880  0.0341 -0.1009
 1050loPI   GL116789   3.057  12.245   5.734 -0.1685  0.0462 -0.0138
 1050loPI   GL216790   3.300  12.175   5.967 -0.3011  0.0218 -0.0066
 1050loPI   C1A16791   2.792  12.178   6.127  0.0838  0.0574  0.0755
 1050loPI   C2A16792   2.576  12.321   6.497 -0.0864 -0.1296 -0.2788
 1050loPI   C3A16793   2.718  12.406   6.950 -0.2012  0.0977  0.1649
 1050loPI   C4A16794   2.655  12.376   7.380 -0.2248  0.3279 -0.0674
 1050loPI   C5A16795   2.648  12.225   7.806 -0.1069 -0.1858 -0.0973
 1050loPI   C6A16796   2.348  12.326   8.133  0.0820  0.0646  0.0181
 1050loPI   C1B16797   3.235  12.378   6.332  0.1604 -0.1414  0.2046
 1050loPI   C2B16798   3.226  12.429   6.781  0.2191  0.0346  0.1336
 1050loPI   C3B16799   3.150  12.496   7.250  0.3022 -0.1764 -0.0224
 1050loPI   C4B16800   3.048  12.465   7.640 -0.2057 -0.1442 -0.4519
 1051loPI    C116801  11.958  10.896   5.474 -0.0413  0.0651 -0.0670
 1051loPI    C216802  11.783  10.559   5.346 -0.2425  0.1067  0.0946
 1051loPI    C316803  11.888  10.842   5.083  0.0026 -0.1152 -0.0509
 1051loPI   PO416804  12.072  10.873   5.650  0.0461 -0.1139 -0.0151
 1051loPI   GL116805  12.212  11.093   6.008 -0.2233  0.2526  0.1290
 1051loPI   GL216806  12.607  11.109   5.974 -0.1092 -0.0661 -0.0247
 1051loPI   C1A16807  12.175  11.002   6.492 -0.3307 -0.2043  0.0474
 1051loPI   C2A16808  12.171  11.076   6.952 -0.0287  0.0748  0.1805
 1051loPI   C3A16809  12.138  11.308   7.279  0.2588  0.0494  0.1917
 1051loPI   C4A16810  11.902  11.359   7.646  0.0880  0.2750 -0.0575
 1051loPI   C5A16811  11.704  11.150   7.921  0.4716  0.0936  0.2916
 1051loPI   C6A16812  11.424  11.017   8.229  0.5374  0.0940 -0.0909
 1051loPI   C1B16813  12.571  11.246   6.394  0.1669 -0.2011 -0.1803
 1051loPI   C2B16814  12.690  11.338   6.887 -0.2366 -0.0354 -0.2362
 1051loPI   C3B16815  12.597  11.117   7.234  0.2046 -0.2021  0.1399
 1051loPI   C4B16816  12.373  10.768   7.396 -0.0959 -0.2908  0.0579
 1052loPI    C116817   9.585  12.626   5.146  0.0737 -0.1204  0.2326
 1052loPI    C216818   9.894  12.434   4.979 -0.0156 -0.0865  0.0252
 1052loPI    C316819   9.520  12.350   4.864 -0.0580  0.1815 -0.0398
 1052loPI   PO416820   9.759  12.603   5.503  0.0272  0.2919  0.0119
 1052loPI   GL116821   9.547  12.739   5.872 -0.1455 -0.3030  0.2733
 1052loPI   GL216822   9.585  12.406   5.904  0.2145 -0.1084  0.0569
 1052loPI   C1A16823   9.284  12.825   6.196 -0.2539 -0.0586 -0.1406
 1052loPI   C2A16824   9.066  12.994   6.608  0.0183 -0.2250 -0.0181
 1052loPI   C3A16825   8.781  13.134   6.951  0.3354 -0.0911  0.1204
 1052loPI   C4A16826   8.701  13.257   7.364 -0.0499 -0.1281 -0.2461
 1052loPI   C5A16827   8.481  13.278   7.689  0.1124 -0.2725 -0.0062
 1052loPI   C6A16828   8.424  13.245   8.108 -0.1879  0.0587  0.1269
 1052loPI   C1B16829   9.619  12.503   6.390 -0.0758  0.1821 -0.0925
 1052loPI   C2B16830   9.563  12.879   6.735  0.2037  0.1547  0.0081
 1052loPI   C3B16831   9.578  13.310   6.867 -0.0656  0.1446 -0.1389
 1052loPI   C4B16832   9.366  13.674   7.044 -0.1087  0.1307 -0.1509
 1053loPI    C116833  15.770   7.182   5.547 -0.1596 -0.4113 -0.0556
 1053loPI    C216834  15.604   7.276   5.195 -0.0956  0.0184  0.0234
 1053loPI    C316835  15.996   7.200   5.217 -0.0898  0.0451  0.0107
 1053loPI   PO416836  15.618   7.082   5.679  0.0772  0.0479 -0.2410
 1053loPI   GL116837  15.515   6.749   5.781 -0.3724  0.0766 -0.1934
 1053loPI   GL216838  15.222   6.543   5.806  0.4042 -0.2784  0.0401
 1053loPI   C1A16839  15.575   6.526   6.155  0.3017  0.0262 -0.0488
 1053loPI   C2A16840  15.625   6.580   6.606  0.0428  0.0777 -0.1106
 1053loPI   C3A16841  15.638   6.550   7.054 -0.0086 -0.0590  0.0591
 1053loPI   C4A16842  15.762   6.507   7.510  0.1190 -0.0307 -0.2853
 1053loPI   C5A16843  15.569   6.426   7.889  0.0966  0.0431  0.2309
 1053loPI   C6A16844  15.446   6.364   8.263 -0.0410 -0.0306  0.1551
 1053loPI   C1B16845  15.062   6.381   6.168  0.1955 -0.3893 -0.1494
 1053loPI   C2B16846  15.138   6.450   6.592 -0.0165 -0.1743 -0.1896
 1053loPI   C3B16847  15.151   6.434   7.023 -0.0622 -0.0224 -0.0752
 1053loPI   C4B16848  15.285   6.358   7.483  0.0366  0.4373  0.2253
 1054loPI    C116849   1.191  11.926   5.071  0.0038 -0.2319  0.2428
 1054loPI    C216850   1.545  11.785   4.952  0.0289  0.1609 -0.1723
 1054loPI    C316851   1.211  11.580   4.871  0.1425 -0.1302  0.0786
 1054loPI   PO416852   1.343  12.067   5.366  0.0534 -0.1986  0.1096
 1054loPI   GL116853   1.484  12.136   5.701  0.0674  0.2583 -0.1115
 1054loPI   GL216854   1.746  12.027   5.862  0.0414  0.3507  0.2139
 1054loPI   C1A16855   1.152  12.169   6.071 -0.3090  0.1674 -0.1022
 1054loPI   C2A16856   1.170  12.202   6.571  0.0639  0.1443 -0.1967
 1054loPI   C3A16857   1.136  12.184   7.019  0.1497 -0.1320  0.0172
 1054loPI   C4A16858   1.145  12.124   7.511 -0.3003 -0.2285 -0.1884
 1054loPI   C5A16859   1.163  12.300   7.807 -0.0517  0.1971 -0.0385
 1054loPI   C6A16860   1.097  12.296   8.234  0.0591 -0.2553 -0.1650
 1054loPI   C1B16861   1.638  12.203   6.286 -0.1549 -0.2670  0.2244
 1054loPI   C2B16862   1.657  12.294   6.711 -0.2113 -0.0223  0.0617
 1054loPI   C3B16863   1.717  12.281   7.096  0.3091 -0.0673 -0.0087
 1054loPI   C4B16864   1.620  12.319   7.541 -0.0391  0.1737  0.2130
 1055loPI    C116865  17.593   7.883   5.071  0.0565  0.0771 -0.0739
 1055loPI    C216866  17.218   7.764   4.998  0.0560  0.1083 -0.1217
 1055loPI    C316867  17.430   7.945   4.711  0.1391  0.0091 -0.1234
 1055loPI   PO416868  17.662   7.699   5.314  0.0195 -0.1695  0.1243
 1055loPI   GL116869  17.563   7.666   5.780  0.3040  0.0971 -0.1806
 1055loPI   GL216870  17.708   7.947   5.910  0.1227  0.2269  0.0374
 1055loPI   C1A16871  17.861   7.494   6.169 -0.3759  0.1496 -0.2968
 1055loPI   C2A16872  17.836   7.479   6.570 -0.0343  0.1440 -0.0346
 1055loPI   C3A16873  17.904   7.573   6.959 -0.3466 -0.0083 -0.3104
 1055loPI   C4A16874  17.917   7.633   7.356 -0.1506 -0.2830  0.0297
 1055loPI   C5A16875  17.915   7.620   7.869 -0.3552 -0.2333  0.3155
 1055loPI   C6A16876  17.566   7.838   8.076 -0.2666 -0.2629  0.0748
 1055loPI   C1B16877  17.580   7.957   6.308  0.0811 -0.3725 -0.0182
 1055loPI   C2B16878  17.504   7.920   6.736  0.0342  0.1520  0.2196
 1055loPI   C3B16879  17.571   8.023   7.085  0.1008 -0.2882 -0.2763
 1055loPI   C4B16880  17.599   8.022   7.524  0.2415  0.2282  0.0386
 1056loPI    C116881   2.291   3.787   4.747 -0.0685 -0.0302  0.0854
 1056loPI    C216882   2.676   3.697   4.685 -0.0770 -0.0228  0.0207
 1056loPI    C316883   2.390   3.457   4.544 -0.1017  0.1652 -0.2565
 1056loPI   PO416884   2.303   3.799   5.018  0.0326 -0.0842  0.0109
 1056loPI   GL116885   2.051   4.043   5.314 -0.0625 -0.0297  0.3006
 1056loPI   GL216886   1.972   3.832   5.390 -0.0765  0.3168  0.0506
 1056loPI   C1A16887   2.188   4.270   5.708  0.3706  0.0013  0.1223
 1056loPI   C2A16888   2.070   4.204   6.130  0.1049  0.0537  0.2718
 1056loPI   C3A16889   2.129   4.128   6.571  0.2354 -0.1693  0.4215
 1056loPI   C4A16890   2.133   4.144   6.952 -0.2593  0.0579  0.1111
 1056loPI   C5A16891   2.191   4.262   7.401 -0.1903 -0.1527  0.0818
 1056loPI   C6A16892   2.051   4.118   7.860  0.2661  0.0686  0.2637
 1056loPI   C1B16893   1.860   3.707   5.859  0.4986  0.0559 -0.0913
 1056loPI   C2B16894   1.855   3.664   6.353 -0.2493 -0.1618  0.1486
 1056loPI   C3B16895   1.877   3.671   6.753  0.0478 -0.1757 -0.0038
 1056loPI   C4B16896   1.932   3.777   7.247  0.0864  0.3460  0.2266
 1057loPI    C116897  12.876  17.729   4.980 -0.0023 -0.0733  0.1122
 1057loPI    C216898  13.190  17.792   4.740 -0.2047  0.1349 -0.1022
 1057loPI    C316899  12.833  17.948   4.648 -0.3459 -0.0034  0.1995
 1057loPI   PO416900  13.125  17.716   5.221 -0.2690  0.3382 -0.1083
 1057loPI   GL116901  13.059  17.671   5.636  0.1172  0.1776 -0.0466
 1057loPI   GL216902  13.137  17.440   5.840  0.2861 -0.0146  0.2410
 1057loPI   C1A16903  13.403  17.798   6.005  0.1552 -0.0589 -0.3745
 1057loPI   C2A16904  13.341  17.826   6.383 -0.1009 -0.1287  0.2298
 1057loPI   C3A16905  13.403  17.862   6.816 -0.2404  0.0371  0.2622
 1057loPI   C4A16906  13.352  17.795   7.315  0.1415 -0.3528 -0.1271
 1057loPI   C5A16907  13.447  17.789   7.701  0.3571 -0.1082 -0.0801
 1057loPI   C6A16908  13.374  17.545   7.953 -0.0384  0.2219 -0.2743
 1057loPI   C1B16909  13.166  17.361   6.224 -0.2669 -0.2402 -0.1580
 1057loPI   C2B16910  13.145  17.318   6.625 -0.1781 -0.1438 -0.1105
 1057loPI   C3B16911  13.198  17.400   7.072  0.0265 -0.0566  0.0583
 1057loPI   C4B16912  13.144  17.311   7.468 -0.0004  0.0736  0.1057
 1058loPI    C116913   5.145   9.957   5.104  0.1453  0.1334  0.1720
 1058loPI    C216914   5.379  10.232   4.932  0.0030  0.0298 -0.1979
 1058loPI    C316915   5.491   9.848   4.936 -0.0736  0.0071 -0.2104
 1058loPI   PO416916   5.066  10.060   5.290  0.0877 -0.1255 -0.1681
 1058loPI   GL116917   4.971  10.017   5.696 -0.0314 -0.1098 -0.2513
 1058loPI   GL216918   5.296  10.039   5.799  0.0459 -0.0768  0.0004
 1058loPI   C1A16919   4.738   9.973   5.991 -0.2100 -0.0709 -0.2786
 1058loPI   C2A16920   4.649   9.939   6.379 -0.0185 -0.3924 -0.1413
 1058loPI   C3A16921   4.559  10.037   6.800 -0.2767  0.0532  0.2241
 1058loPI   C4A16922   4.393  10.243   7.205  0.1805  0.3279 -0.2337
 1058loPI   C5A16923   4.470  10.008   7.518  0.1256  0.2115  0.1045
 1058loPI   C6A16924   4.654   9.647   7.634 -0.0318  0.1319 -0.2321
 1058loPI   C1B16925   5.182  10.057   6.274 -0.1681  0.0532  0.1571
 1058loPI   C2B16926   5.129   9.756   6.570  0.2279  0.0135 -0.0967
 1058loPI   C3B16927   5.089   9.748   6.984  0.0001  0.2522  0.1426
 1058loPI   C4B16928   4.754   9.781   7.171  0.0988 -0.1549  0.2050
 1059loPI    C116929  13.825   0.505   4.989  0.0437  0.3414 -0.1128
 1059loPI    C216930  13.631   0.842   4.899 -0.2496  0.2900  0.2964
 1059loPI    C316931  13.520   0.627   5.217  0.1636 -0.0076  0.2472
 1059loPI   PO416932  14.039   0.535   5.009 -0.0477  0.0291  0.4116
 1059loPI   GL116933  14.196   0.537   5.418  0.1008  0.0900 -0.0748
 1059loPI   GL216934  13.829   0.483   5.590 -0.3631  0.3009  0.2591
 1059loPI   C1A16935  14.288   0.572   5.846  0.0182  0.1163 -0.0029
 1059loPI   C2A16936  14.281   0.514   6.233  0.0521  0.0364  0.2142
 1059loPI   C3A16937  14.242   0.529   6.668 -0.0932 -0.0225 -0.0767
 1059loPI   C4A16938  14.212   0.476   7.128  0.0475 -0.0838  0.0254
 1059loPI   C5A16939  14.304   0.519   7.556 -0.1055 -0.2669  0.0040
 1059loPI   C6A16940  14.270   0.637   7.984  0.1277 -0.1953 -0.0722
 1059loPI   C1B16941  13.759   0.465   6.051  0.0917 -0.0382 -0.1593
 1059loPI   C2B16942  13.766   0.432   6.399 -0.2402  0.2233 -0.0447
 1059loPI   C3B16943  13.730   0.377   6.838  0.0510  0.1110  0.3273
 1059loPI   C4B16944  13.558   0.425   7.250 -0.1693  0.0790 -0.1527
 1060loPI    C116945  -0.093  12.863   4.720  0.1652  0.4350  0.5011
 1060loPI    C216946   0.249  12.868   4.512 -0.0638 -0.2267  0.0741
 1060loPI    C316947  -0.078  13.044   4.364 -0.1018 -0.2641  0.1131
 1060loPI   PO416948   0.034  12.744   4.980 -0.0374 -0.0881 -0.0689
 1060loPI   GL116949   0.113  12.708   5.403 -0.1130  0.1665  0.1779
 1060loPI   GL216950   0.043  12.908   5.634  0.2605  0.1073 -0.0245
 1060loPI   C1A16951   0.358  12.590   5.774 -0.0942  0.2205 -0.0020
 1060loPI   C2A16952   0.318  12.640   6.207  0.1142  0.0641 -0.4540
 1060loPI   C3A16953   0.392  12.520   6.592  0.1005  0.0649 -0.1703
 1060loPI   C4A16954   0.378  12.541   7.094  0.0518  0.0004 -0.1217
 1060loPI   C5A16955   0.308  12.537   7.521  0.0621 -0.2434 -0.3095
 1060loPI   C6A16956   0.303  12.660   7.948  0.0948  0.1740 -0.0642
 1060loPI   C1B16957   0.079  12.995   6.035  0.3553  0.4658  0.0927
 1060loPI   C2B16958   0.070  12.943   6.484 -0.0588  0.2617  0.0554
 1060loPI   C3B16959   0.047  12.955   6.874 -0.1790 -0.1185 -0.2398
 1060loPI   C4B16960   0.127  13.010   7.261 -0.0241 -0.1551 -0.0199
 1061loPI    C116961   7.975   0.175   4.816 -0.0382  0.0003 -0.0803
 1061loPI    C216962   8.011   0.446   4.524  0.1307 -0.0015 -0.0624
 1061loPI    C316963   8.273   0.145   4.551  0.1021 -0.0145  0.0773
 1061loPI   PO416964   7.887   0.443   5.033  0.1270  0.2703  0.1062
 1061loPI   GL116965   7.886   0.376   5.517  0.0034 -0.0110  0.1132
 1061loPI   GL216966   7.841   0.568   5.724  0.0099 -0.0070 -0.2508
 1061loPI   C1A16967   7.854  -0.004   5.748 -0.0002  0.0332  0.1310
 1061loPI   C2A16968   7.777   0.045   6.176  0.1305  0.1175 -0.0393
 1061loPI   C3A16969   7.678   0.269   6.509  0.0627  0.4806 -0.1116
 1061loPI   C4A16970   7.604   0.309   6.828 -0.1208 -0.4600 -0.1380
 1061loPI   C5A16971   7.500   0.417   7.256  0.1063  0.2577  0.0592
 1061loPI   C6A16972   7.499   0.434   7.585 -0.1893  0.0934  0.2584
 1061loPI   C1B16973   7.834   0.530   6.113 -0.4059 -0.1721 -0.1537
 1061loPI   C2B16974   7.882   0.721   6.580 -0.2744  0.1643 -0.1890
 1061loPI   C3B16975   7.822   0.775   6.950 -0.0864  0.1819  0.2223
 1061loPI   C4B16976   7.865   0.797   7.435 -0.0766 -0.2634 -0.1403
 1062loPI    C116977   4.971   8.497   5.179  0.2666  0.1247  0.2030
 1062loPI    C216978   5.363   8.425   5.215  0.3119  0.1509 -0.1889
 1062loPI    C316979   5.170   8.316   4.882 -0.0522 -0.0133  0.0689
 1062loPI   PO416980   4.880   8.381   5.354  0.0454 -0.3317 -0.0823
 1062loPI   GL116981   4.908   8.304   5.724 -0.2971 -0.0867  0.1795
 1062loPI   GL216982   4.707   8.522   5.837  0.0862 -0.2555 -0.1129
 1062loPI   C1A16983   4.864   8.147   6.092 -0.0506  0.3760  0.1306
 1062loPI   C2A16984   4.749   8.195   6.493  0.3066  0.1634  0.0222
 1062loPI   C3A16985   4.747   8.359   6.948 -0.0620 -0.0070 -0.1020
 1062loPI   C4A16986   4.772   8.256   7.354  0.0586  0.0700  0.0543
 1062loPI   C5A16987   4.530   8.252   7.759  0.2454 -0.0073 -0.0865
 1062loPI   C6A16988   4.260   8.320   8.045  0.1262  0.0977 -0.3465
 1062loPI   C1B16989   4.516   8.561   6.195 -0.2803  0.0056 -0.3377
 1062loPI   C2B16990   4.410   8.579   6.688 -0.1582  0.0541 -0.0495
 1062loPI   C3B16991   4.364   8.652   7.074  0.1995  0.4171  0.0726
 1062loPI   C4B16992   4.295   8.604   7.507 -0.3267  0.0912  0.1036
 1063loPI    C116993   6.108   4.717   4.932 -0.1638  0.2283 -0.0005
 1063loPI    C216994   5.912   5.051   4.833 -0.0730  0.2465 -0.1200
 1063loPI    C316995   6.312   5.044   4.825 -0.0623  0.2494  0.2496
 1063loPI   PO416996   6.011   4.631   5.151  0.1055  0.0415  0.0909
 1063loPI   GL116997   5.687   4.509   5.493 -0.0755 -0.1469 -0.2832
 1063loPI   GL216998   5.946   4.227   5.471 -0.1189 -0.2222 -0.1028
 1063loPI   C1A16999   5.885   4.557   5.907  0.2630  0.0172  0.0148
 1063loPI   C2A17000   5.764   4.547   6.268  0.0640 -0.0473 -0.0213
 1063loPI   C3A17001   5.770   4.611   6.701  0.0142  0.1588  0.2801
 1063loPI   C4A17002   5.716   4.732   7.087 -0.0785 -0.5650  0.1413
 1063loPI   C5A17003   5.705   4.677   7.521 -0.0414  0.0400 -0.1806
 1063loPI   C6A17004   5.420   4.607   7.839 -0.0690  0.0565 -0.0769
 1063loPI   C1B17005   5.709   4.071   5.876  0.0143  0.0075  0.1389
 1063loPI   C2B17006   5.526   4.063   6.224  0.0407  0.1599  0.1762
 1063loPI   C3B17007   5.545   4.194   6.598 -0.2055 -0.0846  0.1275
 1063loPI   C4B17008   5.573   4.161   7.081  0.1655 -0.1143 -0.2227
 1064loPI    C117009  17.057  14.274   4.827 -0.0074  0.0665 -0.0323
 1064loPI    C217010  16.864  14.609   4.931 -0.2356 -0.0641 -0.0297
 1064loPI    C317011  16.682  14.335   4.702 -0.0442 -0.1788 -0.0472
 1064loPI   PO417012  17.242  14.295   5.057 -0.0609  0.1836 -0.2114
 1064loPI   GL117013  17.118  14.237   5.550  0.0523  0.1300 -0.2602
 1064loPI   GL217014  17.488  14.428   5.482 -0.1880  0.0345  0.0774
 1064loPI   C1A17015  17.022  14.104   6.011  0.1734 -0.0882 -0.1960
 1064loPI   C2A17016  17.046  14.158   6.443 -0.0318  0.3321  0.1507
 1064loPI   C3A17017  17.092  14.224   6.864 -0.1619 -0.1808 -0.1930
 1064loPI   C4A17018  17.016  14.099   7.273  0.0483 -0.1648  0.2314
 1064loPI   C5A17019  17.012  14.020   7.697 -0.1671  0.2238 -0.1233
 1064loPI   C6A17020  17.379  13.796   8.021 -0.0697  0.0622 -0.0309
 1064loPI   C1B17021  17.498  14.205   5.887  0.0209 -0.0018 -0.2488
 1064loPI   C2B17022  17.562  14.219   6.210 -0.1643  0.0457 -0.1431
 1064loPI   C3B17023  17.555  14.185   6.645 -0.1414  0.0180  0.0076
 1064loPI   C4B17024  17.546  14.222   7.145  0.0173 -0.0417 -0.0001
 1065loPI    C117025  12.648   8.589   5.596  0.0791 -0.1424  0.0118
 1065loPI    C217026  12.914   8.769   5.833  0.0031  0.0727 -0.0637
 1065loPI    C317027  13.020   8.655   5.464  0.0493 -0.0335 -0.0182
 1065loPI   PO417028  12.475   8.554   5.753  0.0383 -0.0912  0.2286
 1065loPI   GL117029  12.137   8.642   6.050 -0.0124 -0.0532 -0.0694
 1065loPI   GL217030  12.115   8.324   6.001 -0.0649 -0.2668 -0.2505
 1065loPI   C1A17031  12.137   8.806   6.521 -0.1341 -0.1741  0.3253
 1065loPI   C2A17032  11.871   8.936   6.956 -0.1926  0.1379 -0.0730
 1065loPI   C3A17033  11.620   8.953   7.278  0.2235  0.1421 -0.0750
 1065loPI   C4A17034  11.318   9.164   7.607  0.1816 -0.1732 -0.0440
 1065loPI   C5A17035  10.844   9.035   7.582 -0.1226  0.0417 -0.1987
 1065loPI   C6A17036  10.458   8.928   7.627 -0.0372 -0.2731 -0.1351
 1065loPI   C1B17037  11.674   8.467   6.315  0.0628  0.1885 -0.0228
 1065loPI   C2B17038  11.540   8.853   6.537 -0.2002  0.2735 -0.1699
 1065loPI   C3B17039  11.543   9.235   6.709  0.1236  0.0851 -0.1453
 1065loPI   C4B17040  11.280   9.598   6.805 -0.0340 -0.2200  0.2666
 1066loPI    C117041   7.005   7.155   4.764 -0.1390 -0.1111  0.1089
 1066loPI    C217042   7.326   6.929   4.841 -0.0152  0.0316  0.0175
 1066loPI    C317043   7.137   6.896   4.489 -0.1217 -0.0758  0.0838
 1066loPI   PO417044   7.066   7.320   5.060  0.0569 -0.0111 -0.2251
 1066loPI   GL117045   7.013   7.226   5.516  0.2601 -0.1157  0.2119
 1066loPI   GL217046   7.104   7.549   5.511  0.0021 -0.1519  0.2137
 1066loPI   C1A17047   7.217   7.143   5.920 -0.1146 -0.1172 -0.0074
 1066loPI   C2A17048   7.468   7.006   6.220 -0.0809 -0.0169 -0.0058
 1066loPI   C3A17049   7.520   7.191   6.646  0.0068 -0.1634  0.2692
 1066loPI   C4A17050   7.583   7.188   7.092  0.0853  0.1277 -0.1142
 1066loPI   C5A17051   7.555   7.230   7.547  0.0219 -0.1210  0.1245
 1066loPI   C6A17052   7.318   7.541   7.791 -0.1917  0.1593  0.2221
 1066loPI   C1B17053   6.972   7.561   5.898 -0.3009 -0.0464  0.1659
 1066loPI   C2B17054   6.861   7.649   6.390  0.3186  0.0551  0.1073
 1066loPI   C3B17055   6.923   7.730   6.915  0.0440 -0.0360 -0.0748
 1066loPI   C4B17056   7.073   7.955   7.437 -0.3191  0.1550 -0.1324
 1067loPI    C117057  11.655   1.002   4.982  0.1798 -0.3139 -0.1272
 1067loPI    C217058  11.920   1.269   5.117 -0.0579 -0.1299 -0.0159
 1067loPI    C317059  11.909   1.179   4.728 -0.1287  0.2002 -0.0935
 1067loPI   PO417060  11.720   0.849   5.250  0.1253 -0.0818 -0.2188
 1067loPI   GL117061  11.714   0.751   5.727  0.0969 -0.2189 -0.4023
 1067loPI   GL217062  11.986   0.912   5.878 -0.2288 -0.0169  0.2693
 1067loPI   C1A17063  11.552   0.798   6.157  0.0966  0.1770 -0.2423
 1067loPI   C2A17064  11.549   0.852   6.588 -0.1664 -0.1326  0.1333
 1067loPI   C3A17065  11.555   0.878   7.074  0.2002 -0.1817 -0.0850
 1067loPI   C4A17066  11.485   0.929   7.549 -0.0226 -0.0755 -0.2194
 1067loPI   C5A17067  11.579   0.746   7.926 -0.0800  0.1058 -0.0866
 1067loPI   C6A17068  11.651   0.950   8.266 -0.0034 -0.0727  0.1349
 1067loPI   C1B17069  11.852   1.267   6.114  0.0379  0.2431  0.1487
 1067loPI   C2B17070  11.757   1.275   6.498 -0.4397  0.0551  0.1591
 1067loPI   C3B17071  11.759   1.419   6.896 -0.0537  0.0940 -0.3030
 1067loPI   C4B17072  11.857   1.474   7.326  0.3339  0.0109  0.0859
 1068loPI    C117073  12.353   5.139   5.176 -0.2056  0.0130  0.0745
 1068loPI    C217074  12.615   5.093   4.878 -0.0532  0.0930  0.1946
 1068loPI    C317075  12.321   5.363   4.846 -0.1320 -0.0080  0.0530
 1068loPI   PO417076  12.449   5.188   5.412  0.1556  0.2714  0.0853
 1068loPI   GL117077  12.457   5.382   5.899  0.0071 -0.0043 -0.1339
 1068loPI   GL217078  12.213   5.117   5.942  0.0334  0.0608 -0.0199
 1068loPI   C1A17079  12.406   5.436   6.372 -0.1177  0.0529 -0.1016
 1068loPI   C2A17080  12.523   5.327   6.794  0.0075 -0.1382  0.0425
 1068loPI   C3A17081  12.539   5.302   7.202 -0.0006  0.1238 -0.0933
 1068loPI   C4A17082  12.467   5.108   7.645 -0.0127  0.4013 -0.1942
 1068loPI   C5A17083  12.435   4.667   7.834  0.3391  0.0344 -0.1940
 1068loPI   C6A17084  12.322   4.510   8.217 -0.3788 -0.1312 -0.0612
 1068loPI   C1B17085  12.056   5.069   6.247  0.0327 -0.0453  0.1404
 1068loPI   C2B17086  12.225   4.915   6.502 -0.1206  0.1207 -0.2533
 1068loPI   C3B17087  12.378   4.681   6.877 -0.0093  0.1037  0.0717
 1068loPI   C4B17088  12.369   4.754   7.295  0.0556 -0.0495 -0.0773
 1069loPI    C117089  12.522   6.064   4.751 -0.0608 -0.1786 -0.1685
 1069loPI    C217090  12.893   5.970   4.866 -0.0106  0.1468 -0.0542
 1069loPI    C317091  12.825   6.098   4.493 -0.0278 -0.0254 -0.1109
 1069loPI   PO417092  12.393   6.076   5.028 -0.0288 -0.0952 -0.2979
 1069loPI   GL117093  12.388   6.194   5.433  0.0786  0.3674  0.2227
 1069loPI   GL217094  12.681   6.277   5.709  0.0096 -0.3049  0.1073
 1069loPI   C1A17095  12.213   6.110   5.800 -0.0276  0.0411  0.3327
 1069loPI   C2A17096  12.295   5.924   6.236 -0.0942  0.0425 -0.0856
 1069loPI   C3A17097  12.263   5.858   6.610  0.0795 -0.0640  0.0898
 1069loPI   C4A17098  12.592   5.840   6.919 -0.2444 -0.1678  0.0299
 1069loPI   C5A17099  12.622   5.755   7.403 -0.0131  0.3293 -0.0501
 1069loPI   C6A17100  12.484   5.964   7.753  0.3697 -0.2109 -0.0332
 1069loPI   C1B17101  12.676   6.221   6.084  0.2064  0.0355 -0.1265
 1069loPI   C2B17102  12.582   6.261   6.475 -0.4186  0.1260 -0.3117
 1069loPI   C3B17103  12.777   6.312   6.874  0.1521 -0.2972 -0.1603
 1069loPI   C4B17104  12.742   6.265   7.321 -0.0526  0.3536 -0.2422
 1070loPI    C117105   8.005   2.210   5.086 -0.0766 -0.0987 -0.2047
 1070loPI    C217106   7.959   2.452   4.772  0.1637 -0.0154 -0.1779
 1070loPI    C317107   8.225   2.155   4.757  0.0712 -0.1025 -0.1062
 1070loPI   PO417108   8.096   2.359   5.326 -0.2652 -0.1940 -0.2450
 1070loPI   GL117109   7.913   2.488   5.700 -0.2705  0.0600 -0.1223
 1070loPI   GL217110   7.950   2.831   5.555  0.0090 -0.4162 -0.0202
 1070loPI   C1A17111   7.787   2.371   6.023 -0.1583  0.0748  0.0653
 1070loPI   C2A17112   7.801   2.514   6.498 -0.0080  0.1299 -0.0113
 1070loPI   C3A17113   7.695   2.491   6.868 -0.1870  0.3554  0.2538
 1070loPI   C4A17114   7.748   2.524   7.291  0.2287  0.0921  0.2261
 1070loPI   C5A17115   7.522   2.635   7.707 -0.1666 -0.2192 -0.0207
 1070loPI   C6A17116   7.303   3.009   7.844 -0.1255  0.0866  0.0683
 1070loPI   C1B17117   7.882   2.891   6.052  0.0946 -0.1406 -0.3073
 1070loPI   C2B17118   7.921   3.028   6.471 -0.2485 -0.1195 -0.3392
 1070loPI   C3B17119   7.976   3.011   6.859 -0.0985 -0.2336  0.0878
 1070loPI   C4B17120   8.066   3.061   7.286 -0.2074 -0.0344 -0.0309
 1071loPI    C117121   3.223   4.952   5.018  0.1268 -0.0055  0.1779
 1071loPI    C217122   3.255   4.621   4.795  0.0831  0.0501  0.0883
 1071loPI    C317123   3.551   4.891   4.797  0.0364  0.1025  0.0113
 1071loPI   PO417124   3.140   4.925   5.234 -0.0960  0.2950 -0.0215
 1071loPI   GL117125   3.179   5.096   5.605  0.2145 -0.1339  0.1555
 1071loPI   GL217126   3.434   4.874   5.750  0.0186 -0.0438 -0.0783
 1071loPI   C1A17127   3.103   5.219   5.997  0.1886  0.0823 -0.1210
 1071loPI   C2A17128   3.117   5.244   6.442 -0.0881  0.2379  0.2153
 1071loPI   C3A17129   3.122   5.243   6.862 -0.0246 -0.1937 -0.1917
 1071loPI   C4A17130   3.017   5.355   7.338 -0.0602  0.1346 -0.0307
 1071loPI   C5A17131   3.131   5.467   7.862  0.0384  0.0558  0.1817
 1071loPI   C6A17132   3.053   5.475   8.248 -0.0383  0.0179 -0.4538
 1071loPI   C1B17133   3.388   4.749   6.146 -0.0138 -0.0202  0.1202
 1071loPI   C2B17134   3.412   4.761   6.547  0.0018 -0.0078  0.0053
 1071loPI   C3B17135   3.437   4.813   7.001 -0.2324 -0.2753  0.2311
 1071loPI   C4B17136   3.289   4.915   7.410  0.1073 -0.0947 -0.0387
 1072loPI    C117137   6.721  10.124   5.290  0.0809  0.0956  0.0527
 1072loPI    C217138   6.425  10.328   5.113  0.0526  0.0867  0.0896
 1072loPI    C317139   6.749  10.222   4.903 -0.1540 -0.2637 -0.0599
 1072loPI   PO417140   6.572   9.986   5.496  0.2611  0.0215  0.2856
 1072loPI   GL117141   6.422  10.065   5.941 -0.1360  0.1051 -0.1023
 1072loPI   GL217142   6.189   9.861   5.837 -0.0943  0.3448 -0.1977
 1072loPI   C1A17143   6.252  10.066   6.319  0.0660  0.1380  0.4329
 1072loPI   C2A17144   6.023  10.090   6.723 -0.1153  0.0940 -0.0629
 1072loPI   C3A17145   5.970  10.009   7.171 -0.0238  0.0331 -0.0200
 1072loPI   C4A17146   6.009   9.745   7.452 -0.2924 -0.2125  0.0086
 1072loPI   C5A17147   6.319   9.630   7.782  0.0755  0.0872  0.2599
 1072loPI   C6A17148   6.195   9.626   8.227 -0.2581 -0.2356  0.5491
 1072loPI   C1B17149   6.076   9.573   6.258  0.1025 -0.0646  0.0708
 1072loPI   C2B17150   6.152   9.563   6.646  0.1085 -0.0399 -0.0853
 1072loPI   C3B17151   6.071   9.369   7.015 -0.3117  0.1409 -0.0194
 1072loPI   C4B17152   5.944   9.249   7.388 -0.3118  0.0459 -0.1580
 1073loPI    C117153  15.558   8.484   5.087 -0.0619 -0.0849  0.1256
 1073loPI    C217154  15.365   8.240   4.836  0.0364  0.0702 -0.1037
 1073loPI    C317155  15.729   8.142   4.970  0.0781  0.0923 -0.1995
 1073loPI   PO417156  15.468   8.501   5.298 -0.0334  0.0579  0.1467
 1073loPI   GL117157  15.556   8.440   5.708 -0.0341  0.0065 -0.0377
 1073loPI   GL217158  15.688   8.118   5.870 -0.4089  0.0470  0.3033
 1073loPI   C1A17159  15.652   8.529   6.175  0.3093  0.1176 -0.2577
 1073loPI   C2A17160  15.651   8.423   6.559  0.3457 -0.3685 -0.0618
 1073loPI   C3A17161  15.731   8.371   6.979  0.1510  0.2076  0.0070
 1073loPI   C4A17162  15.821   8.290   7.377 -0.0367 -0.2729 -0.0645
 1073loPI   C5A17163  15.773   8.225   7.791  0.1753 -0.0166  0.1742
 1073loPI   C6A17164  15.631   8.015   8.111  0.3848  0.1570  0.2020
 1073loPI   C1B17165  15.575   7.982   6.243 -0.1403 -0.0661 -0.0447
 1073loPI   C2B17166  15.537   7.928   6.743 -0.0316 -0.0460 -0.2582
 1073loPI   C3B17167  15.531   7.911   7.068 -0.0685 -0.0981  0.0558
 1073loPI   C4B17168  15.569   7.828   7.472  0.2757  0.1757 -0.0046
 1074loPI    C117169   3.537   0.515   4.719  0.0879  0.0163 -0.0795
 1074loPI    C217170   3.298   0.706   4.460  0.0667  0.0864 -0.0088
 1074loPI    C317171   3.685   0.805   4.486  0.0822  0.0388 -0.0552
 1074loPI   PO417172   3.498   0.547   4.912 -0.1418 -0.1579 -0.0492
 1074loPI   GL117173   3.427   0.588   5.324 -0.1478  0.2637  0.3840
 1074loPI   GL217174   3.538   0.836   5.318  0.0825 -0.1913  0.3199
 1074loPI   C1A17175   3.739   0.344   5.601 -0.1113  0.0190 -0.1263
 1074loPI   C2A17176   3.736   0.346   6.070  0.0691  0.0487  0.0359
 1074loPI   C3A17177   3.799   0.362   6.565 -0.0899 -0.0794 -0.0637
 1074loPI   C4A17178   3.802   0.352   6.962 -0.0762  0.0376 -0.0008
 1074loPI   C5A17179   3.777   0.372   7.446  0.1902  0.1599 -0.2128
 1074loPI   C6A17180   3.741   0.443   7.912 -0.2919 -0.0274  0.0903
 1074loPI   C1B17181   3.473   0.736   5.787 -0.1297 -0.1898 -0.1557
 1074loPI   C2B17182   3.474   0.698   6.281 -0.1134 -0.1460  0.1093
 1074loPI   C3B17183   3.469   0.707   6.706 -0.0204  0.0529 -0.4107
 1074loPI   C4B17184   3.392   0.733   7.051 -0.1436  0.0141 -0.0623
 1075loPI    C117185   8.361  11.595   5.421  0.0703  0.0628  0.1287
 1075loPI    C217186   8.320  11.965   5.275 -0.0347 -0.0514 -0.1372
 1075loPI    C317187   8.159  11.654   5.081  0.3980 -0.2844 -0.1362
 1075loPI   PO417188   8.266  11.585   5.582 -0.2404  0.0278 -0.2741
 1075loPI   GL117189   8.218  11.649   5.993 -0.1368  0.0838 -0.0246
 1075loPI   GL217190   8.562  11.573   6.028  0.0916 -0.0577 -0.0730
 1075loPI   C1A17191   8.164  11.713   6.444  0.0636 -0.0967  0.0837
 1075loPI   C2A17192   8.413  11.714   6.850  0.4051 -0.1029 -0.0054
 1075loPI   C3A17193   8.718  11.802   7.144  0.0463 -0.4342  0.1141
 1075loPI   C4A17194   8.863  11.906   7.539 -0.0502 -0.0615 -0.2453
 1075loPI   C5A17195   8.942  11.776   7.979  0.0479  0.0844 -0.0779
 1075loPI   C6A17196   8.786  11.970   8.356 -0.0264  0.0638  0.0123
 1075loPI   C1B17197   8.537  11.434   6.405  0.0617  0.0073  0.0816
 1075loPI   C2B17198   8.235  11.220   6.671  0.1224  0.0150  0.2194
 1075loPI   C3B17199   7.920  11.118   7.017 -0.1417  0.1146 -0.2234
 1075loPI   C4B17200   7.901  11.156   7.468  0.1809 -0.2266 -0.1522
 1076loPI    C117201   3.687  17.367   4.537 -0.0151 -0.3026  0.1385
 1076loPI    C217202   3.913  17.230   4.237 -0.0276  0.0319 -0.0278
 1076loPI    C317203   3.519  17.160   4.239  0.0295 -0.3040  0.1143
 1076loPI   PO417204   3.889  17.366   4.750 -0.5370  0.2679  0.1905
 1076loPI   GL117205   4.128  17.498   5.089 -0.2086 -0.1710 -0.1602
 1076loPI   GL217206   3.965  17.229   5.258  0.2465  0.0263  0.2277
 1076loPI   C1A17207   4.494  17.540   5.427 -0.0045 -0.0025 -0.1465
 1076loPI   C2A17208   4.652  17.433   5.839 -0.3787  0.1986  0.0238
 1076loPI   C3A17209   4.617  17.362   6.241 -0.0471  0.4360  0.2779
 1076loPI   C4A17210   4.529  17.432   6.621 -0.2844 -0.2146 -0.0002
 1076loPI   C5A17211   4.640  17.371   7.146  0.2454 -0.0256 -0.0119
 1076loPI   C6A17212   4.738  17.287   7.549 -0.2245  0.2198 -0.2995
 1076loPI   C1B17213   4.145  17.342   5.639  0.2091  0.0938 -0.1840
 1076loPI   C2B17214   4.071  17.423   6.047 -0.0565 -0.0274  0.0027
 1076loPI   C3B17215   4.066  17.398   6.543 -0.2483  0.1350  0.3539
 1076loPI   C4B17216   4.155  17.452   6.959 -0.0245 -0.1318  0.1032
 1077loPI    C117217   3.310   3.389   4.687 -0.2134  0.0409 -0.0017
 1077loPI    C217218   3.163   3.741   4.567  0.1421  0.1976  0.0114
 1077loPI    C317219   3.232   3.451   4.300 -0.2439  0.0984  0.0135
 1077loPI   PO417220   3.043   3.340   4.884  0.0034 -0.0247 -0.0573
 1077loPI   GL117221   3.043   3.341   5.351 -0.0887  0.1662  0.3866
 1077loPI   GL217222   3.165   2.985   5.287  0.2762  0.0827  0.3011
 1077loPI   C1A17223   2.705   3.327   5.696 -0.0005 -0.0598  0.0225
 1077loPI   C2A17224   2.680   3.375   6.052 -0.1964 -0.0191  0.0102
 1077loPI   C3A17225   2.662   3.345   6.508  0.1637 -0.1850 -0.0919
 1077loPI   C4A17226   2.753   3.401   7.014  0.0135 -0.0202  0.1894
 1077loPI   C5A17227   2.808   3.477   7.463 -0.2389 -0.1586 -0.0595
 1077loPI   C6A17228   2.897   3.526   7.885 -0.2669  0.0617  0.4655
 1077loPI   C1B17229   3.387   2.844   5.674 -0.0120  0.0036 -0.2626
 1077loPI   C2B17230   3.537   2.957   6.040 -0.0798  0.1220 -0.1771
 1077loPI   C3B17231   3.532   3.033   6.470 -0.0049 -0.1641  0.1674
 1077loPI   C4B17232   3.587   3.029   6.983 -0.2943  0.2234  0.0452
 1078loPI    C117233  18.217  10.856   5.037 -0.0173 -0.1991  0.2422
 1078loPI    C217234  18.462  10.540   5.051  0.0176 -0.1901 -0.0829
 1078loPI    C317235  18.191  10.570   4.758  0.0233  0.0883 -0.0623
 1078loPI   PO417236  18.111  10.902   5.459 -0.0782 -0.2120 -0.1785
 1078loPI   GL117237  18.220  10.753   5.935  0.0343  0.0411 -0.0999
 1078loPI   GL217238  17.881  10.726   5.943  0.1754  0.1227  0.1387
 1078loPI   C1A17239  18.335  10.742   6.350  0.1608 -0.0325 -0.1771
 1078loPI   C2A17240  18.367  10.672   6.819 -0.0303 -0.0060 -0.1725
 1078loPI   C3A17241  18.324  10.672   7.210  0.1328 -0.0181  0.0433
 1078loPI   C4A17242  18.344  10.710   7.637 -0.5831 -0.2044  0.0940
 1078loPI   C5A17243  18.333  10.605   8.044  0.1419 -0.1484  0.3086
 1078loPI   C6A17244  17.961  10.791   8.317 -0.1247 -0.0314  0.0971
 1078loPI   C1B17245  17.845  10.673   6.372 -0.2208 -0.2054  0.1693
 1078loPI   C2B17246  17.851  10.685   6.846  0.1557 -0.0642  0.2551
 1078loPI   C3B17247  17.805  10.625   7.276 -0.1304 -0.3351 -0.0954
 1078loPI   C4B17248  17.863  10.589   7.748  0.1364 -0.0442  0.1368
 1079loPI    C117249   4.988  14.480   4.953  0.1449 -0.1318  0.0484
 1079loPI    C217250   5.141  14.745   4.694  0.2381  0.0653  0.3011
 1079loPI    C317251   4.915  14.442   4.561 -0.0152  0.3692  0.0227
 1079loPI   PO417252   4.895  14.641   5.097  0.0192 -0.1858  0.2362
 1079loPI   GL117253   5.007  14.911   5.420  0.0711  0.1312 -0.2523
 1079loPI   GL217254   5.220  15.119   5.490 -0.0904 -0.0419  0.0893
 1079loPI   C1A17255   4.981  14.664   5.738  0.0406 -0.0386  0.2533
 1079loPI   C2A17256   4.910  14.713   6.077  0.1215  0.2492 -0.0257
 1079loPI   C3A17257   4.864  14.748   6.555 -0.0915 -0.2184 -0.1034
 1079loPI   C4A17258   4.753  14.676   6.994 -0.1150 -0.1374 -0.0751
 1079loPI   C5A17259   4.881  14.719   7.387  0.1263  0.1223 -0.0446
 1079loPI   C6A17260   5.096  14.859   7.806 -0.0443  0.0446 -0.3489
 1079loPI   C1B17261   5.178  15.165   5.830  0.1723 -0.1170  0.3653
 1079loPI   C2B17262   5.050  15.168   6.186 -0.0815 -0.1513  0.0332
 1079loPI   C3B17263   5.024  15.173   6.656  0.0381 -0.2018  0.0435
 1079loPI   C4B17264   4.942  15.154   7.087  0.2705  0.0063  0.0553
 1080loPI    C117265   2.366  13.759   5.181 -0.0012  0.3420 -0.0199
 1080loPI    C217266   1.997  13.902   5.239 -0.0430  0.2731 -0.1130
 1080loPI    C317267   2.109  13.780   4.875 -0.0291  0.0120 -0.0228
 1080loPI   PO417268   2.433  13.764   5.388 -0.1429  0.1810 -0.1680
 1080loPI   GL117269   2.289  13.564   5.721 -0.0820 -0.0453 -0.0467
 1080loPI   GL217270   2.169  13.868   5.783 -0.1606  0.1016  0.3361
 1080loPI   C1A17271   2.384  13.606   6.113  0.1658  0.0723 -0.1472
 1080loPI   C2A17272   2.419  13.594   6.531 -0.2077  0.0054  0.0396
 1080loPI   C3A17273   2.339  13.648   6.854  0.0820 -0.1446  0.0319
 1080loPI   C4A17274   2.375  13.695   7.233 -0.0724 -0.1318 -0.4093
 1080loPI   C5A17275   2.320  13.684   7.716 -0.2149 -0.3183 -0.1602
 1080loPI   C6A17276   2.132  13.935   8.047  0.0498  0.0345 -0.1669
 1080loPI   C1B17277   2.026  14.050   6.213  0.1441 -0.1938  0.3922
 1080loPI   C2B17278   2.027  14.040   6.687  0.3263  0.0596  0.2889
 1080loPI   C3B17279   2.041  14.060   7.110  0.0240  0.0938  0.0119
 1080loPI   C4B17280   2.060  14.125   7.530 -0.0353  0.1432 -0.2805
 1081loPI    C117281   3.536  15.546   4.450 -0.0868 -0.1515  0.2130
 1081loPI    C217282   3.200  15.747   4.533 -0.0787  0.0353 -0.1836
 1081loPI    C317283   3.218  15.510   4.210  0.0713 -0.2229  0.0104
 1081loPI   PO417284   3.604  15.386   4.647  0.2167 -0.0695 -0.1277
 1081loPI   GL117285   3.785  15.431   4.994  0.0805  0.0630 -0.1598
 1081loPI   GL217286   3.835  15.130   5.155 -0.3372 -0.0973  0.2104
 1081loPI   C1A17287   3.699  15.514   5.414  0.2251 -0.1748  0.4461
 1081loPI   C2A17288   3.812  15.546   5.840 -0.0298  0.1178 -0.2719
 1081loPI   C3A17289   3.755  15.594   6.181 -0.1560 -0.3143 -0.1999
 1081loPI   C4A17290   3.700  15.646   6.663  0.0700 -0.2025  0.3254
 1081loPI   C5A17291   3.631  15.588   7.048  0.0947  0.0409  0.0739
 1081loPI   C6A17292   3.794  15.265   7.353  0.0054  0.1394  0.0877
 1081loPI   C1B17293   4.039  15.136   5.588 -0.1301 -0.3188 -0.0006
 1081loPI   C2B17294   3.982  15.128   6.030 -0.2702 -0.0105  0.3633
 1081loPI   C3B17295   4.051  15.266   6.428  0.1371  0.1336  0.1085
 1081loPI   C4B17296   3.988  15.234   6.817 -0.0839  0.3122  0.2181
 1082loPI    C117297   7.125   2.205   5.276 -0.1734 -0.2357  0.0157
 1082loPI    C217298   7.136   2.529   5.042 -0.2167 -0.1962  0.0682
 1082loPI    C317299   6.966   2.192   4.910 -0.1269 -0.2129 -0.0054
 1082loPI   PO417300   6.986   2.336   5.468  0.0525  0.0035 -0.1737
 1082loPI   GL117301   6.810   2.293   5.837  0.2127  0.1500  0.2827
 1082loPI   GL217302   6.979   2.631   5.868  0.1566  0.0053 -0.3043
 1082loPI   C1A17303   6.661   2.339   6.193  0.2933  0.0633  0.0065
 1082loPI   C2A17304   6.620   2.428   6.575  0.2517  0.1787 -0.0398
 1082loPI   C3A17305   6.703   2.538   7.017 -0.0822 -0.1178  0.1729
 1082loPI   C4A17306   6.638   2.352   7.469 -0.0630 -0.2715 -0.0402
 1082loPI   C5A17307   6.501   2.507   7.880 -0.1051 -0.1344  0.0061
 1082loPI   C6A17308   6.537   2.378   8.255  0.0488 -0.0276  0.1482
 1082loPI   C1B17309   6.878   2.777   6.223 -0.0104  0.0711  0.0003
 1082loPI   C2B17310   6.815   2.889   6.658 -0.3685 -0.2551  0.0815
 1082loPI   C3B17311   6.978   2.997   7.018 -0.0286 -0.0815 -0.2079
 1082loPI   C4B17312   7.106   3.048   7.397  0.2140 -0.0296  0.2803
 1083loPI    C117313   7.487  13.976   5.325  0.0079  0.2237 -0.1953
 1083loPI    C217314   7.614  13.627   5.473 -0.0985  0.2789  0.0301
 1083loPI    C317315   7.797  13.788   5.156  0.0983  0.1325  0.0677
 1083loPI   PO417316   7.444  14.099   5.561 -0.0913  0.0478  0.0536
 1083loPI   GL117317   7.509  14.171   5.990 -0.0524 -0.0977 -0.2103
 1083loPI   GL217318   7.166  14.019   6.053 -0.1227 -0.2365 -0.1721
 1083loPI   C1A17319   7.705  14.301   6.257 -0.2745  0.2273  0.0044
 1083loPI   C2A17320   7.518  14.419   6.595 -0.0381 -0.0487  0.1184
 1083loPI   C3A17321   7.679  14.573   6.983  0.0433  0.3407  0.0426
 1083loPI   C4A17322   7.725  14.483   7.455 -0.0685 -0.0601 -0.2862
 1083loPI   C5A17323   7.722  14.480   7.891  0.0829  0.1156 -0.1218
 1083loPI   C6A17324   7.643  14.198   8.175 -0.0277  0.0052 -0.1174
 1083loPI   C1B17325   7.106  14.023   6.512 -0.0412  0.1855 -0.2827
 1083loPI   C2B17326   7.311  14.054   6.935  0.2602  0.2475 -0.1576
 1083loPI   C3B17327   7.264  13.806   7.260 -0.1714 -0.1513  0.1665
 1083loPI   C4B17328   7.514  13.623   7.560  0.0600  0.0003 -0.1669
 1084loPI    C117329   3.349   0.125   5.128 -0.0563 -0.1171  0.0827
 1084loPI    C217330   3.581   0.028   4.817 -0.0787  0.2223 -0.0442
 1084loPI    C317331   3.746   0.173   5.151 -0.0753  0.0791  0.0172
 1084loPI   PO417332   3.187  -0.044   5.153 -0.0981  0.0593  0.0242
 1084loPI   GL117333   3.005  -0.209   5.488 -0.0385  0.1634 -0.1213
 1084loPI   GL217334   2.688  -0.181   5.414 -0.1108  0.1669  0.0339
 1084loPI   C1A17335   3.031  -0.138   5.899  0.1617 -0.2552  0.1776
 1084loPI   C2A17336   2.990  -0.261   6.277  0.0073 -0.0037 -0.2287
 1084loPI   C3A17337   3.042  -0.244   6.717 -0.0489  0.2622 -0.0089
 1084loPI   C4A17338   3.103  -0.116   7.127 -0.1909 -0.0770 -0.1329
 1084loPI   C5A17339   3.243  -0.193   7.531  0.4189 -0.0265  0.1601
 1084loPI   C6A17340   3.657  -0.058   7.733  0.0509  0.1762 -0.3201
 1084loPI   C1B17341   2.508  -0.154   5.819  0.1909 -0.0354 -0.2358
 1084loPI   C2B17342   2.481  -0.228   6.281  0.1633 -0.0188 -0.1345
 1084loPI   C3B17343   2.473  -0.248   6.694  0.1631 -0.1513  0.0927
 1084loPI   C4B17344   2.489  -0.235   7.123 -0.0963  0.0917 -0.0815
 1085loPI    C117345  11.612  15.778   5.522  0.1005 -0.2231  0.2370
 1085loPI    C217346  11.531  15.463   5.290  0.0548 -0.0701  0.0426
 1085loPI    C317347  11.255  15.748   5.345  0.1074 -0.0468  0.1906
 1085loPI   PO417348  11.657  15.706   5.759 -0.0394 -0.0297  0.2746
 1085loPI   GL117349  11.607  15.631   6.224 -0.0675  0.2599 -0.0764
 1085loPI   GL217350  11.795  15.441   6.215  0.0649 -0.0920 -0.0294
 1085loPI   C1A17351  11.417  15.845   6.579 -0.2895  0.2940  0.0996
 1085loPI   C2A17352  11.352  15.858   7.023  0.3071 -0.0641  0.3656
 1085loPI   C3A17353  11.353  16.072   7.303  0.0583  0.0500 -0.0551
 1085loPI   C4A17354  11.249  16.195   7.655 -0.1177 -0.0225  0.3164
 1085loPI   C5A17355  11.060  16.339   8.010 -0.2442  0.2281 -0.0957
 1085loPI   C6A17356  10.866  16.232   8.447  0.1285  0.0262  0.0113
 1085loPI   C1B17357  11.778  15.457   6.639  0.1347  0.2040 -0.2345
 1085loPI   C2B17358  11.707  15.526   7.109 -0.1216  0.2128  0.2315
 1085loPI   C3B17359  11.593  15.611   7.454 -0.1666  0.0400  0.0065
 1085loPI   C4B17360  11.479  15.803   7.858 -0.0231 -0.0258 -0.3055
 1086loPI    C117361   5.399   4.034   4.842  0.2016 -0.0040 -0.4175
 1086loPI    C217362   5.617   3.712   4.938  0.0583  0.0232  0.0237
 1086loPI    C317363   5.220   3.707   4.988  0.0589  0.2816  0.0713
 1086loPI   PO417364   5.429   4.233   5.034  0.3664 -0.1002 -0.2665
 1086loPI   GL117365   5.430   3.993   5.416 -0.0409 -0.3227 -0.1572
 1086loPI   GL217366   5.480   3.699   5.449 -0.0861 -0.1781  0.0566
 1086loPI   C1A17367   5.186   4.018   5.802 -0.4945  0.1681 -0.0461
 1086loPI   C2A17368   4.975   4.087   6.130 -0.0895  0.1732  0.2501
 1086loPI   C3A17369   5.042   4.121   6.567 -0.2342 -0.0874 -0.0572
 1086loPI   C4A17370   5.055   4.192   7.073 -0.1241 -0.1350  0.1706
 1086loPI   C5A17371   5.016   4.304   7.573  0.2526 -0.0612 -0.0727
 1086loPI   C6A17372   4.677   4.406   7.832  0.1637  0.2370  0.0196
 1086loPI   C1B17373   5.399   3.507   5.841  0.1529  0.1243  0.2121
 1086loPI   C2B17374   5.289   3.598   6.265 -0.0553 -0.3011 -0.0225
 1086loPI   C3B17375   5.305   3.732   6.654 -0.1640 -0.0643  0.2048
 1086loPI   C4B17376   5.332   3.732   7.107 -0.2961 -0.1626 -0.0685
 1087loPI    C117377   4.884   4.129   4.827  0.1921 -0.0407 -0.1055
 1087loPI    C217378   4.857   3.766   4.661  0.5440 -0.1110 -0.0160
 1087loPI    C317379   5.065   4.055   4.478  0.0274  0.1368 -0.2304
 1087loPI   PO417380   4.876   4.043   5.146  0.1227 -0.0631 -0.0424
 1087loPI   GL117381   4.877   4.295   5.489 -0.1652  0.1205  0.1343
 1087loPI   GL217382   5.182   4.406   5.496 -0.2391 -0.1867  0.1612
 1087loPI   C1A17383   4.644   3.998   5.802 -0.1418  0.1451 -0.1633
 1087loPI   C2A17384   4.493   4.026   6.108 -0.1461  0.0850  0.3664
 1087loPI   C3A17385   4.506   4.018   6.587 -0.1689 -0.1338 -0.0415
 1087loPI   C4A17386   4.573   4.086   7.019 -0.0064  0.1191 -0.0347
 1087loPI   C5A17387   4.500   4.041   7.522 -0.1478 -0.1383 -0.0008
 1087loPI   C6A17388   4.744   3.831   7.781 -0.0862  0.2342 -0.0079
 1087loPI   C1B17389   5.366   4.488   5.896 -0.3063 -0.3428  0.2715
 1087loPI   C2B17390   5.253   4.511   6.369  0.1907  0.1500 -0.0405
 1087loPI   C3B17391   5.252   4.585   6.838 -0.1742  0.2320 -0.0032
 1087loPI   C4B17392   5.243   4.605   7.237 -0.2407 -0.2005 -0.0266
 1088loPI    C117393  12.646  16.394   4.807 -0.1268 -0.1841  0.1735
 1088loPI    C217394  12.791  16.123   4.551 -0.0457 -0.0494  0.0753
 1088loPI    C317395  12.407  16.234   4.528 -0.0073  0.0571 -0.0720
 1088loPI   PO417396  12.722  16.343   5.079  0.0120  0.1210 -0.1391
 1088loPI   GL117397  12.568  16.135   5.495  0.0907 -0.0175 -0.2273
 1088loPI   GL217398  12.472  16.320   5.724 -0.1662  0.0081  0.0449
 1088loPI   C1A17399  12.855  15.937   5.836  0.0024 -0.3145 -0.1215
 1088loPI   C2A17400  13.054  15.928   6.260 -0.0272  0.0845 -0.0921
 1088loPI   C3A17401  12.944  16.023   6.624 -0.0751  0.0619 -0.2959
 1088loPI   C4A17402  13.042  16.127   7.065  0.0937 -0.0033 -0.0425
 1088loPI   C5A17403  13.033  16.077   7.553 -0.3027 -0.1610  0.0541
 1088loPI   C6A17404  12.778  16.416   7.837  0.3553  0.0693  0.3095
 1088loPI   C1B17405  12.747  16.477   6.093  0.0751  0.0625 -0.0447
 1088loPI   C2B17406  12.653  16.444   6.511  0.1792  0.0007  0.2862
 1088loPI   C3B17407  12.734  16.503   6.945 -0.0534 -0.1381 -0.1177
 1088loPI   C4B17408  12.724  16.349   7.330 -0.0483  0.0192  0.0224
 1089loPI    C117409  18.158   4.545   4.960  0.1186  0.0902 -0.0670
 1089loPI    C217410  17.817   4.720   4.847 -0.0834 -0.2231  0.0413
 1089loPI    C317411  17.958   4.406   4.643  0.1263 -0.1153  0.0166
 1089loPI   PO417412  18.128   4.491   5.235  0.0251  0.1469  0.1893
 1089loPI   GL117413  18.120   4.477   5.759  0.3251  0.3984 -0.0489
 1089loPI   GL217414  18.319   4.267   5.653  0.3009 -0.0064  0.0735
 1089loPI   C1A17415  17.906   4.440   6.134  0.0443  0.4522 -0.0536
 1089loPI   C2A17416  17.952   4.716   6.470 -0.0339 -0.1337 -0.0014
 1089loPI   C3A17417  17.917   4.713   6.950 -0.1004  0.1607  0.0055
 1089loPI   C4A17418  18.005   4.577   7.358  0.0203  0.3838  0.0079
 1089loPI   C5A17419  17.927   4.573   7.745 -0.1880 -0.2920 -0.1468
 1089loPI   C6A17420  17.724   4.466   8.088 -0.2808 -0.1027 -0.0655
 1089loPI   C1B17421  18.322   4.206   6.086 -0.0879  0.3310  0.0753
 1089loPI   C2B17422  18.235   4.273   6.559 -0.2360 -0.2325  0.1812
 1089loPI   C3B17423  18.091   4.125   6.982 -0.2798 -0.0051  0.0719
 1089loPI   C4B17424  18.049   3.815   7.241 -0.1132  0.3608  0.2310
 1090loPI    C117425  15.716  11.963   5.414  0.0485 -0.3081 -0.1218
 1090loPI    C217426  15.813  11.980   5.026  0.1492  0.1299 -0.0834
 1090loPI    C317427  15.485  12.166   5.158  0.0520 -0.1144  0.0263
 1090loPI   PO417428  15.720  11.762   5.481 -0.1924 -0.0755 -0.1274
 1090loPI   GL117429  15.983  11.650   5.801 -0.1716 -0.0388 -0.3817
 1090loPI   GL217430  15.947  11.354   5.954  0.2206  0.2624  0.0954
 1090loPI   C1A17431  15.942  11.791   6.181 -0.0855 -0.0709  0.2745
 1090loPI   C2A17432  15.934  11.757   6.590 -0.0831 -0.0458 -0.0131
 1090loPI   C3A17433  15.962  11.813   7.048  0.0602 -0.0380 -0.1242
 1090loPI   C4A17434  16.146  11.877   7.451 -0.2527 -0.1815 -0.1932
 1090loPI   C5A17435  16.173  11.972   7.830 -0.0946  0.2111 -0.0885
 1090loPI   C6A17436  15.959  11.828   8.014  0.0257 -0.0764 -0.0871
 1090loPI   C1B17437  15.753  11.355   6.391 -0.1648 -0.2043  0.1604
 1090loPI   C2B17438  15.734  11.392   6.844 -0.0516  0.1420  0.0141
 1090loPI   C3B17439  15.698  11.408   7.301 -0.0091  0.1292  0.1581
 1090loPI   C4B17440  15.855  11.316   7.664 -0.3249 -0.0991 -0.1045
 1091loPI    C117441  11.461   8.528   4.869 -0.1077  0.0053 -0.3140
 1091loPI    C217442  11.818   8.703   4.904 -0.1058 -0.0991  0.2865
 1091loPI    C317443  11.786   8.350   4.720  0.0425  0.0654 -0.0636
 1091loPI   PO417444  11.370   8.529   5.184  0.0517  0.1264 -0.0553
 1091loPI   GL117445  11.312   8.594   5.607  0.1262 -0.0769  0.0914
 1091loPI   GL217446  11.065   8.728   5.624  0.0502 -0.2731 -0.1503
 1091loPI   C1A17447  11.240   8.514   6.034  0.2087  0.1035  0.0173
 1091loPI   C2A17448  11.127   8.555   6.419 -0.1257 -0.2948  0.1853
 1091loPI   C3A17449  11.242   8.787   6.923  0.1363  0.0474  0.1593
 1091loPI   C4A17450  11.070   9.186   7.126  0.0685 -0.2413 -0.2242
 1091loPI   C5A17451  10.858   9.467   7.305 -0.1441  0.1694 -0.0842
 1091loPI   C6A17452  10.460   9.417   7.433  0.2642 -0.0530 -0.1570
 1091loPI   C1B17453  10.771   8.727   5.942 -0.1292  0.0265 -0.0984
 1091loPI   C2B17454  10.708   8.727   6.237 -0.0686  0.0369  0.1735
 1091loPI   C3B17455  10.698   8.804   6.671  0.1220  0.0594  0.1352
 1091loPI   C4B17456  10.568   8.832   7.092  0.0641  0.0608  0.2867
 1092loPI    C117457   5.471   0.728   4.776 -0.1520 -0.0107  0.0461
 1092loPI    C217458   5.651   0.801   4.426 -0.2264  0.1929  0.0491
 1092loPI    C317459   5.427   0.473   4.471  0.1491 -0.0694  0.0491
 1092loPI   PO417460   5.598   0.791   5.015  0.2010  0.0718 -0.1677
 1092loPI   GL117461   5.768   0.755   5.382 -0.0854  0.0144 -0.0557
 1092loPI   GL217462   6.101   0.769   5.501  0.3647 -0.0762 -0.4592
 1092loPI   C1A17463   5.498   0.810   5.805 -0.2451 -0.2684  0.0527
 1092loPI   C2A17464   5.558   0.944   6.259 -0.2800  0.1479  0.0390
 1092loPI   C3A17465   5.609   0.871   6.724  0.0423  0.1542 -0.0246
 1092loPI   C4A17466   5.517   0.937   7.175 -0.2716 -0.0588  0.4774
 1092loPI   C5A17467   5.365   0.531   7.349  0.3331  0.0112 -0.1352
 1092loPI   C6A17468   5.315   0.491   7.841 -0.2430 -0.2454  0.0013
 1092loPI   C1B17469   6.011   0.960   5.954 -0.0965 -0.0702  0.0662
 1092loPI   C2B17470   6.016   0.914   6.424  0.1752 -0.1895 -0.0354
 1092loPI   C3B17471   6.085   0.967   6.903  0.1632 -0.0357 -0.0063
 1092loPI   C4B17472   5.965   1.045   7.309  0.3936  0.3390 -0.0660
 1093loPI    C117473  12.311  15.192   5.285  0.0480  0.0714  0.0487
 1093loPI    C217474  11.987  15.329   5.095  0.0657  0.2209  0.1251
 1093loPI    C317475  12.348  15.472   5.002  0.1052  0.0888  0.0734
 1093loPI   PO417476  12.319  15.188   5.450  0.1137 -0.1586 -0.1337
 1093loPI   GL117477  12.452  15.212   5.886  0.2518 -0.3244  0.1939
 1093loPI   GL217478  12.163  15.191   6.131  0.1623  0.4247 -0.1804
 1093loPI   C1A17479  12.631  15.551   6.094 -0.2669 -0.1522 -0.0417
 1093loPI   C2A17480  12.758  15.587   6.508 -0.2973  0.0404  0.0889
 1093loPI   C3A17481  12.826  15.611   6.955  0.1295  0.1177 -0.2076
 1093loPI   C4A17482  12.757  15.688   7.332  0.0598  0.2014 -0.2197
 1093loPI   C5A17483  12.654  15.767   7.734 -0.1098  0.1228 -0.0140
 1093loPI   C6A17484  12.311  15.691   8.055 -0.0105  0.0365  0.0629
 1093loPI   C1B17485  11.981  15.037   6.505 -0.1249 -0.2817  0.0415
 1093loPI   C2B17486  11.933  15.082   6.967 -0.0211  0.1159  0.2740
 1093loPI   C3B17487  12.036  14.946   7.430 -0.2058 -0.0219  0.2495
 1093loPI   C4B17488  12.233  15.174   7.861  0.1120  0.0825  0.0670
 1094loPI    C117489   4.476  10.155   4.875 -0.0029  0.1636  0.0386
 1094loPI    C217490   4.845  10.073   4.746  0.0053  0.2264  0.0218
 1094loPI    C317491   4.631  10.360   4.569 -0.1265  0.0569 -0.0969
 1094loPI   PO417492   4.507  10.038   5.134 -0.2554 -0.1798 -0.1497
 1094loPI   GL117493   4.487  10.093   5.531 -0.1721 -0.2104  0.0654
 1094loPI   GL217494   4.624  10.383   5.634  0.0873 -0.3784  0.2391
 1094loPI   C1A17495   4.199   9.816   5.892  0.2786 -0.2098  0.4645
 1094loPI   C2A17496   4.034   9.767   6.280 -0.0949  0.0046 -0.2782
 1094loPI   C3A17497   3.998   9.891   6.657 -0.0611  0.1276 -0.1046
 1094loPI   C4A17498   3.957   9.972   7.157 -0.4185  0.1090  0.1532
 1094loPI   C5A17499   3.779  10.187   7.436 -0.1027  0.2258  0.0528
 1094loPI   C6A17500   3.377  10.225   7.464  0.0199 -0.3569 -0.1233
 1094loPI   C1B17501   4.429  10.381   6.046 -0.1230  0.1191 -0.0945
 1094loPI   C2B17502   4.369  10.357   6.508  0.4171  0.0998 -0.0924
 1094loPI   C3B17503   4.108  10.330   6.766 -0.0869  0.0067 -0.2463
 1094loPI   C4B17504   3.623  10.274   6.935  0.2134 -0.2050  0.0754
 1095loPI    C117505   9.072   9.898   5.359 -0.1414 -0.1049 -0.0582
 1095loPI    C217506   8.983  10.073   5.010  0.0482 -0.0713 -0.0908
 1095loPI    C317507   9.270  10.226   5.244 -0.0905 -0.0829  0.0897
 1095loPI   PO417508   8.799   9.839   5.446  0.1093  0.2511  0.2054
 1095loPI   GL117509   8.790   9.853   5.842 -0.1606  0.1924 -0.1927
 1095loPI   GL217510   9.147   9.655   5.850 -0.0853 -0.0351 -0.1004
 1095loPI   C1A17511   8.791  10.077   6.323 -0.0976 -0.0028 -0.1906
 1095loPI   C2A17512   9.007  10.100   6.683 -0.0479 -0.4030 -0.2025
 1095loPI   C3A17513   9.084   9.909   7.077  0.0576  0.2372  0.1724
 1095loPI   C4A17514   8.881   9.839   7.437  0.0960 -0.2108  0.1295
 1095loPI   C5A17515   9.066   9.688   7.868  0.0202  0.1011 -0.2213
 1095loPI   C6A17516   9.406   9.752   8.226 -0.4178  0.0578  0.1442
 1095loPI   C1B17517   9.064   9.707   6.299  0.0103  0.1691  0.0750
 1095loPI   C2B17518   8.887   9.617   6.663  0.0461 -0.2514 -0.3598
 1095loPI   C3B17519   8.780   9.508   7.088 -0.0462  0.2283  0.1011
 1095loPI   C4B17520   8.499   9.240   7.232  0.1518 -0.1892  0.0368
 1096loPI    C117521   4.321  10.513   5.211 -0.1388 -0.2168  0.1645
 1096loPI    C217522   4.027  10.291   5.055 -0.2313 -0.0408  0.0848
 1096loPI    C317523   4.186  10.591   4.843 -0.0401 -0.0913  0.1542
 1096loPI   PO417524   4.198  10.584   5.437  0.1753  0.2083 -0.1288
 1096loPI   GL117525   4.251  10.742   5.788 -0.0895  0.1228 -0.0285
 1096loPI   GL217526   4.358  11.009   5.704  0.1293  0.2169  0.1939
 1096loPI   C1A17527   4.038  10.691   6.218  0.0557  0.3125 -0.1619
 1096loPI   C2A17528   3.865  10.726   6.540  0.0438  0.0933 -0.1412
 1096loPI   C3A17529   3.874  10.733   6.975  0.0129 -0.4920 -0.1276
 1096loPI   C4A17530   4.017  10.606   7.364 -0.1469 -0.0078  0.3278
 1096loPI   C5A17531   4.379  10.666   7.561  0.1005 -0.0268 -0.1583
 1096loPI   C6A17532   4.623  10.801   7.951  0.2211  0.1366 -0.1737
 1096loPI   C1B17533   4.253  11.219   6.094 -0.0549  0.1419  0.2825
 1096loPI   C2B17534   4.425  11.492   6.454  0.2801 -0.0237  0.0889
 1096loPI   C3B17535   4.330  11.500   6.944  0.0659  0.0313 -0.2640
 1096loPI   C4B17536   4.291  11.633   7.304 -0.1360 -0.0273  0.0251
 1097loPI    C117537   0.849  12.569   4.908  0.0644  0.0796  0.1489
 1097loPI    C217538   0.753  12.261   4.672 -0.0175  0.0365  0.2375
 1097loPI    C317539   0.467  12.502   4.813  0.0646  0.2736  0.0070
 1097loPI   PO417540   1.069  12.444   5.062 -0.1573  0.2030 -0.2921
 1097loPI   GL117541   1.023  12.671   5.476 -0.2639  0.1434  0.1917
 1097loPI   GL217542   0.916  12.347   5.603  0.1658  0.0390  0.0133
 1097loPI   C1A17543   1.104  12.986   5.727  0.0582 -0.1916 -0.1294
 1097loPI   C2A17544   1.159  13.040   6.153 -0.2142  0.0257  0.0825
 1097loPI   C3A17545   1.098  13.062   6.572  0.0421  0.0405 -0.3274
 1097loPI   C4A17546   1.087  13.085   7.007  0.0287  0.0391  0.0168
 1097loPI   C5A17547   1.038  13.143   7.427  0.0988  0.0648 -0.0894
 1097loPI   C6A17548   0.922  13.447   7.784  0.2229 -0.1349  0.0623
 1097loPI   C1B17549   0.857  12.548   5.971 -0.1477 -0.0413 -0.1595
 1097loPI   C2B17550   0.849  12.566   6.438 -0.2587 -0.3527 -0.1340
 1097loPI   C3B17551   0.880  12.603   6.911  0.2746 -0.0659 -0.0740
 1097loPI   C4B17552   0.884  12.566   7.330  0.0791  0.1767  0.1132
 1098loPI    C117553   2.316   7.909   5.330 -0.0389  0.0562 -0.0583
 1098loPI    C217554   1.947   7.758   5.369  0.0259 -0.0776  0.0434
 1098loPI    C317555   2.057   7.930   5.025 -0.1728  0.0784  0.0556
 1098loPI   PO417556   2.395   7.915   5.503  0.1280 -0.0947 -0.0737
 1098loPI   GL117557   2.267   7.911   5.884  0.0767  0.0032  0.1285
 1098loPI   GL217558   1.982   8.078   5.873  0.0393 -0.0383 -0.1121
 1098loPI   C1A17559   2.202   7.916   6.314 -0.0218  0.1216  0.1666
 1098loPI   C2A17560   2.220   7.837   6.693 -0.0204  0.3133  0.0053
 1098loPI   C3A17561   2.147   7.835   7.092  0.0617 -0.3351 -0.0217
 1098loPI   C4A17562   2.173   7.868   7.603  0.2224 -0.2403  0.0034
 1098loPI   C5A17563   1.917   8.174   7.939  0.1073 -0.2039 -0.1951
 1098loPI   C6A17564   1.602   8.323   8.242 -0.0780  0.1630 -0.1789
 1098loPI   C1B17565   2.039   8.390   6.182 -0.2883 -0.1399  0.0808
 1098loPI   C2B17566   2.007   8.721   6.507 -0.2956 -0.3857 -0.0503
 1098loPI   C3B17567   2.043   8.737   6.952  0.0676  0.0786  0.0283
 1098loPI   C4B17568   1.992   8.723   7.366 -0.2945  0.0811  0.4343
 1099loPI    C117569   5.097  13.016   5.048 -0.1081 -0.0962 -0.1588
 1099loPI    C217570   5.442  13.169   4.917 -0.0598  0.1433  0.2314
 1099loPI    C317571   5.271  12.865   4.721  0.2669  0.1531 -0.0804
 1099loPI   PO417572   5.122  13.069   5.297 -0.1461 -0.0655  0.2662
 1099loPI   GL117573   4.962  13.162   5.611  0.0210  0.2763  0.0313
 1099loPI   GL217574   5.100  13.512   5.687  0.3101  0.1690 -0.0207
 1099loPI   C1A17575   5.024  13.140   5.999 -0.2615 -0.1909  0.4220
 1099loPI   C2A17576   5.121  13.010   6.476  0.2025  0.1549  0.0115
 1099loPI   C3A17577   5.170  12.843   6.885 -0.1989 -0.2283  0.0314
 1099loPI   C4A17578   5.096  12.627   7.240 -0.1745 -0.2903  0.2018
 1099loPI   C5A17579   5.141  12.460   7.593  0.1588 -0.1185  0.4635
 1099loPI   C6A17580   5.426  12.220   7.861  0.2632 -0.3752 -0.0219
 1099loPI   C1B17581   4.894  13.815   5.896 -0.1164  0.1424 -0.1837
 1099loPI   C2B17582   4.874  13.916   6.351 -0.0459 -0.0719  0.1445
 1099loPI   C3B17583   5.213  13.863   6.598  0.1776  0.0797 -0.0953
 1099loPI   C4B17584   5.459  13.909   7.002  0.1768 -0.1136  0.1319
 1100loPI    C117585   4.001   5.014   5.270 -0.0601  0.2064 -0.1781
 1100loPI    C217586   3.624   4.900   5.339  0.0998 -0.0771  0.2781
 1100loPI    C317587   3.867   4.668   5.121  0.0751 -0.0015  0.1691
 1100loPI   PO417588   4.130   4.991   5.421 -0.0014 -0.2470  0.2695
 1100loPI   GL117589   4.038   4.770   5.713 -0.1355 -0.2939 -0.0903
 1100loPI   GL217590   3.819   4.560   5.602 -0.0260  0.3093 -0.0181
 1100loPI   C1A17591   3.875   4.853   6.021  0.3064  0.0744  0.2415
 1100loPI   C2A17592   3.936   4.821   6.394 -0.1280  0.2310 -0.1178
 1100loPI   C3A17593   3.910   4.908   6.762 -0.1731  0.0218  0.2175
 1100loPI   C4A17594   3.834   4.937   7.192  0.0452  0.0024  0.4130
 1100loPI   C5A17595   3.845   4.798   7.575 -0.2569 -0.1601 -0.1344
 1100loPI   C6A17596   3.827   5.079   7.863 -0.0641 -0.0848 -0.1231
 1100loPI   C1B17597   3.666   4.323   5.920  0.0151 -0.0836 -0.0504
 1100loPI   C2B17598   3.689   4.360   6.444  0.1194  0.2126  0.0490
 1100loPI   C3B17599   3.772   4.428   6.915  0.0588  0.0381 -0.1169
 1100loPI   C4B17600   3.643   4.404   7.384  0.2262 -0.3164 -0.1833
 1101loPI    C117601  11.884  11.387   5.155 -0.1568 -0.0271  0.0571
 1101loPI    C217602  11.799  11.266   4.784  0.0758  0.1452 -0.0552
 1101loPI    C317603  12.174  11.242   4.921 -0.0285 -0.0197  0.2093
 1101loPI   PO417604  11.727  11.285   5.295 -0.2829  0.1141  0.0299
 1101loPI   GL117605  11.862  11.304   5.741  0.1554  0.0174  0.0553
 1101loPI   GL217606  11.764  11.569   5.668 -0.0914  0.4035 -0.1652
 1101loPI   C1A17607  11.843  11.402   6.212  0.0077  0.1219  0.1562
 1101loPI   C2A17608  11.844  11.370   6.725  0.1094  0.2278  0.0262
 1101loPI   C3A17609  11.674  11.372   7.062 -0.2610  0.0478 -0.1495
 1101loPI   C4A17610  11.440  11.197   7.479 -0.1377 -0.1450 -0.0040
 1101loPI   C5A17611  11.339  10.786   7.689 -0.1955 -0.1087 -0.3519
 1101loPI   C6A17612  11.360  10.477   8.114 -0.1170  0.1198 -0.0094
 1101loPI   C1B17613  11.475  11.687   6.002  0.0027  0.0107 -0.0260
 1101loPI   C2B17614  11.404  11.690   6.485  0.2810 -0.3187 -0.2125
 1101loPI   C3B17615  11.369  11.713   6.889  0.3607  0.3321  0.2268
 1101loPI   C4B17616  11.458  11.819   7.278 -0.0153 -0.0651  0.0213
 1102loPI    C117617   5.565   1.923   5.074 -0.0077 -0.0072  0.2573
 1102loPI    C217618   5.888   2.012   5.294 -0.0509  0.1170  0.2711
 1102loPI    C317619   5.921   1.970   4.897  0.0428 -0.1875  0.3084
 1102loPI   PO417620   5.365   2.044   5.180  0.0066  0.2179  0.0260
 1102loPI   GL117621   5.163   2.210   5.571  0.1311  0.0735  0.0741
 1102loPI   GL217622   5.478   2.156   5.687 -0.1744  0.1223  0.3151
 1102loPI   C1A17623   5.141   2.213   6.049 -0.0743 -0.0156 -0.4138
 1102loPI   C2A17624   5.234   2.276   6.485  0.1094 -0.0672  0.0755
 1102loPI   C3A17625   5.227   2.396   6.924 -0.0013  0.1310  0.0866
 1102loPI   C4A17626   5.128   2.438   7.347  0.0338 -0.0049 -0.0134
 1102loPI   C5A17627   4.927   2.788   7.654 -0.1380 -0.2174 -0.0721
 1102loPI   C6A17628   4.498   2.784   7.768 -0.0125 -0.2092  0.1992
 1102loPI   C1B17629   5.690   2.301   6.173 -0.0972 -0.2531  0.1952
 1102loPI   C2B17630   5.707   2.303   6.650  0.0787  0.1497 -0.1914
 1102loPI   C3B17631   5.694   2.424   7.123 -0.0588  0.0821  0.3098
 1102loPI   C4B17632   5.666   2.538   7.543 -0.2014  0.2286 -0.2233
 1103loPI    C117633  16.743  13.025   5.304  0.0173  0.5254 -0.1291
 1103loPI    C217634  16.575  13.040   4.941 -0.0922 -0.1946 -0.1213
 1103loPI    C317635  16.939  12.880   4.987 -0.0415 -0.0268  0.0774
 1103loPI   PO417636  16.651  12.870   5.415  0.0008 -0.1034 -0.1431
 1103loPI   GL117637  16.385  12.754   5.657  0.3966  0.2537 -0.0600
 1103loPI   GL217638  16.506  12.448   5.582 -0.0746 -0.2940 -0.4205
 1103loPI   C1A17639  16.234  12.918   6.046  0.1372 -0.1912 -0.1066
 1103loPI   C2A17640  16.075  13.160   6.392  0.0945 -0.0207  0.2758
 1103loPI   C3A17641  16.027  13.212   6.818 -0.0755 -0.1127  0.2912
 1103loPI   C4A17642  15.709  13.239   7.145  0.2982 -0.0469  0.2837
 1103loPI   C5A17643  15.636  13.257   7.664  0.0342 -0.2636 -0.1041
 1103loPI   C6A17644  15.324  13.261   7.946 -0.2046  0.0725 -0.0303
 1103loPI   C1B17645  16.649  12.395   5.980 -0.1637 -0.1510 -0.2522
 1103loPI   C2B17646  16.639  12.333   6.407  0.3628 -0.0918 -0.1230
 1103loPI   C3B17647  16.660  12.336   6.899  0.0463  0.2228  0.1401
 1103loPI   C4B17648  16.690  12.337   7.370  0.1957  0.1542 -0.0132
 1104loPI    C117649   3.031  13.028   5.193  0.2040 -0.0500 -0.0115
 1104loPI    C217650   2.752  12.931   4.923  0.1133 -0.1835  0.1282
 1104loPI    C317651   3.137  12.951   4.816  0.0754 -0.2141 -0.0155
 1104loPI   PO417652   2.939  12.961   5.453 -0.1437  0.0644  0.0326
 1104loPI   GL117653   2.834  12.643   5.688 -0.0899 -0.2117 -0.0981
 1104loPI   GL217654   2.578  12.405   5.721 -0.1121 -0.1275  0.4079
 1104loPI   C1A17655   2.900  12.692   6.056 -0.0663  0.0326  0.0622
 1104loPI   C2A17656   3.029  12.844   6.549  0.0529  0.0567  0.1358
 1104loPI   C3A17657   2.906  12.843   6.976 -0.0976  0.0648 -0.1964
 1104loPI   C4A17658   2.908  12.908   7.529 -0.0771  0.2566  0.2792
 1104loPI   C5A17659   3.014  13.030   7.953 -0.4155 -0.0417  0.1864
 1104loPI   C6A17660   3.111  12.744   8.294 -0.3538 -0.2343 -0.3815
 1104loPI   C1B17661   2.398  12.638   6.151 -0.0000  0.0568  0.3033
 1104loPI   C2B17662   2.396  12.818   6.565  0.0461  0.1191  0.3171
 1104loPI   C3B17663   2.332  12.775   7.020 -0.1027 -0.0587  0.0014
 1104loPI   C4B17664   2.401  12.820   7.457  0.1945  0.2298 -0.4139
 1105loPI    C117665  17.755  11.960   5.418  0.1052 -0.1208  0.0253
 1105loPI    C217666  17.821  11.659   5.163  0.3523 -0.0222 -0.0295
 1105loPI    C317667  17.856  12.038   5.039 -0.0362  0.0332  0.0181
 1105loPI   PO417668  17.889  11.986   5.603 -0.1778 -0.0796  0.2083
 1105loPI   GL117669  17.992  12.020   5.929 -0.0466 -0.2670 -0.0838
 1105loPI   GL217670  18.159  11.690   6.062  0.0660 -0.2421  0.1828
 1105loPI   C1A17671  17.985  12.015   6.391 -0.0734 -0.0452 -0.1295
 1105loPI   C2A17672  17.990  12.015   6.746 -0.2277 -0.3795 -0.1819
 1105loPI   C3A17673  18.002  12.003   7.166 -0.2058  0.0741 -0.1017
 1105loPI   C4A17674  18.062  12.013   7.668  0.0163  0.0091  0.0240
 1105loPI   C5A17675  18.414  12.040   7.950 -0.1141 -0.2403 -0.3511
 1105loPI   C6A17676  18.808  12.073   8.088  0.1512  0.0552 -0.2172
 1105loPI   C1B17677  18.260  11.622   6.514  0.0469  0.2176 -0.1139
 1105loPI   C2B17678  18.252  11.538   6.989 -0.2418  0.1999  0.1660
 1105loPI   C3B17679  18.282  11.634   7.432 -0.0665  0.0541  0.1687
 1105loPI   C4B17680  18.233  11.581   7.836  0.0978 -0.1080 -0.0797
 1106loPI    C117681  13.335   4.881   5.408  0.0806 -0.1189  0.0097
 1106loPI    C217682  13.710   5.018   5.402  0.0424  0.0143  0.3688
 1106loPI    C317683  13.449   5.139   5.125  0.3654 -0.3979 -0.1358
 1106loPI   PO417684  13.263   4.921   5.620 -0.1540  0.0641  0.3164
 1106loPI   GL117685  13.142   5.220   5.992 -0.2254 -0.1251 -0.0572
 1106loPI   GL217686  12.888   5.262   6.161  0.0601 -0.2655 -0.1332
 1106loPI   C1A17687  13.259   5.124   6.471  0.2347  0.0439  0.0566
 1106loPI   C2A17688  13.248   5.020   6.854 -0.0679 -0.0012  0.1466
 1106loPI   C3A17689  13.374   5.067   7.248  0.2789  0.1096 -0.2293
 1106loPI   C4A17690  13.509   4.988   7.666 -0.0218  0.0701 -0.1505
 1106loPI   C5A17691  13.625   5.278   8.024  0.2570  0.2690 -0.2527
 1106loPI   C6A17692  13.557   5.736   8.206  0.0836 -0.1491 -0.0279
 1106loPI   C1B17693  12.746   5.006   6.480  0.0108  0.0007 -0.0734
 1106loPI   C2B17694  12.799   4.907   6.955 -0.0377  0.0216  0.1967
 1106loPI   C3B17695  12.884   4.917   7.353  0.1261 -0.3524  0.0631
 1106loPI   C4B17696  12.910   4.943   7.832  0.0223  0.1763  0.1775
 1107loPI    C117697   7.683   6.374   5.050  0.0345 -0.1613 -0.0854
 1107loPI    C217698   7.744   6.579   4.712  0.2217  0.0862  0.0947
 1107loPI    C317699   7.740   6.179   4.705 -0.3863  0.0870 -0.3033
 1107loPI   PO417700   7.512   6.631   5.201  0.2629 -0.3322 -0.2165
 1107loPI   GL117701   7.333   6.666   5.667  0.0173 -0.4552 -0.2102
 1107loPI   GL217702   7.060   6.412   5.691  0.1698 -0.0347  0.4110
 1107loPI   C1A17703   6.983   6.706   6.098  0.1846 -0.3879 -0.0529
 1107loPI   C2A17704   6.997   7.112   6.400  0.2618  0.0307  0.1565
 1107loPI   C3A17705   7.071   7.213   6.809  0.3511 -0.2212  0.1395
 1107loPI   C4A17706   7.064   7.407   7.314 -0.0978  0.0551  0.1042
 1107loPI   C5A17707   6.843   7.536   7.605  0.1924 -0.2292 -0.2357
 1107loPI   C6A17708   6.424   7.296   7.740 -0.3218  0.1790  0.1008
 1107loPI   C1B17709   7.023   6.156   6.123  0.0589  0.0434 -0.1233
 1107loPI   C2B17710   7.206   6.288   6.536  0.3577  0.1394  0.0365
 1107loPI   C3B17711   6.957   6.524   6.823 -0.1282  0.0820 -0.1143
 1107loPI   C4B17712   6.582   6.455   6.964  0.4422  0.0520 -0.4581
 1108loPI    C117713  12.825   5.892   5.349  0.1456 -0.0420  0.1021
 1108loPI    C217714  12.532   5.689   5.530  0.0732  0.1074  0.1542
 1108loPI    C317715  12.610   5.627   5.142 -0.2009  0.2547  0.0730
 1108loPI   PO417716  13.010   5.857   5.442  0.2731  0.0350  0.1741
 1108loPI   GL117717  13.049   5.984   5.865 -0.0796  0.1456 -0.1378
 1108loPI   GL217718  12.830   5.749   5.958 -0.0757  0.1023 -0.2079
 1108loPI   C1A17719  13.156   5.962   6.282  0.0570  0.0048 -0.2234
 1108loPI   C2A17720  13.191   5.904   6.704  0.1693  0.3589 -0.0755
 1108loPI   C3A17721  13.056   5.872   7.161 -0.0341  0.1012  0.0223
 1108loPI   C4A17722  13.068   5.918   7.630  0.0538 -0.0766  0.0389
 1108loPI   C5A17723  13.062   5.918   8.096  0.0311  0.3082 -0.0812
 1108loPI   C6A17724  12.680   5.941   8.238 -0.1640  0.1372  0.3054
 1108loPI   C1B17725  12.825   5.657   6.500  0.0614  0.0661 -0.0673
 1108loPI   C2B17726  12.995   5.454   6.889 -0.0117  0.1809  0.1214
 1108loPI   C3B17727  12.998   5.423   7.400  0.0047  0.1217 -0.2834
 1108loPI   C4B17728  13.181   5.405   7.776 -0.1240 -0.1637 -0.1831
 1109loPI    C117729   4.030  12.796   5.172 -0.1610 -0.1112 -0.1568
 1109loPI    C217730   4.245  12.943   4.868  0.0113  0.0001  0.0160
 1109loPI    C317731   3.921  12.719   4.795  0.0490  0.0283 -0.2480
 1109loPI   PO417732   4.175  12.735   5.314  0.1398  0.0644 -0.1962
 1109loPI   GL117733   4.212  12.949   5.704  0.0041 -0.2440 -0.1782
 1109loPI   GL217734   4.514  12.889   5.654 -0.0479 -0.0116 -0.3403
 1109loPI   C1A17735   4.046  12.910   6.098 -0.0997  0.1657  0.0890
 1109loPI   C2A17736   3.875  12.887   6.566 -0.0236  0.0488 -0.1848
 1109loPI   C3A17737   3.504  12.874   6.770 -0.0347  0.0570 -0.0126
 1109loPI   C4A17738   3.384  12.921   7.274 -0.2608 -0.0168 -0.1154
 1109loPI   C5A17739   3.453  12.939   7.672  0.5644 -0.1361 -0.2826
 1109loPI   C6A17740   3.604  12.899   8.041 -0.4289  0.2104  0.1100
 1109loPI   C1B17741   4.581  12.884   6.029 -0.1002 -0.1917  0.1081
 1109loPI   C2B17742   4.455  12.988   6.482  0.0076  0.1313  0.1524
 1109loPI   C3B17743   4.428  13.022   7.008  0.1028  0.1614 -0.1885
 1109loPI   C4B17744   4.480  13.033   7.454  0.1961  0.0484  0.0396
 1110loPI    C117745  17.708   9.400   5.446 -0.1711  0.1474  0.2150
 1110loPI    C217746  18.098   9.429   5.360 -0.1975 -0.0249  0.0302
 1110loPI    C317747  17.847   9.721   5.253 -0.1370  0.0344  0.0496
 1110loPI   PO417748  17.747   9.344   5.709  0.2516 -0.3428 -0.0477
 1110loPI   GL117749  17.684   9.652   6.084 -0.2716  0.0514  0.0038
 1110loPI   GL217750  17.721   9.301   6.159 -0.2617 -0.3126 -0.1028
 1110loPI   C1A17751  17.984   9.829   6.237  0.0547 -0.1430  0.0827
 1110loPI   C2A17752  17.987   9.812   6.694  0.3463 -0.0612 -0.3013
 1110loPI   C3A17753  17.890   9.744   7.115  0.0991  0.2300 -0.0054
 1110loPI   C4A17754  17.933   9.702   7.587 -0.1228 -0.0919  0.0083
 1110loPI   C5A17755  17.797   9.763   8.035 -0.0245  0.1881  0.2608
 1110loPI   C6A17756  17.794   9.527   8.365 -0.3081 -0.0011 -0.0046
 1110loPI   C1B17757  17.718   9.380   6.590 -0.4530  0.1014  0.0304
 1110loPI   C2B17758  17.743   9.312   7.015 -0.3132  0.0439  0.3049
 1110loPI   C3B17759  17.749   9.283   7.393  0.0821  0.0900  0.3037
 1110loPI   C4B17760  17.669   9.251   7.821 -0.0131  0.2024 -0.3435
 1111loPI    C117761  11.587   2.812   4.962 -0.2528 -0.0469  0.1855
 1111loPI    C217762  11.495   2.423   4.959 -0.0597 -0.0942 -0.1460
 1111loPI    C317763  11.863   2.542   4.859 -0.0315  0.1571  0.2351
 1111loPI   PO417764  11.507   2.932   5.213 -0.1291  0.0271  0.1402
 1111loPI   GL117765  11.739   3.003   5.632  0.5970  0.1264 -0.1054
 1111loPI   GL217766  11.416   2.930   5.752 -0.0793  0.1218 -0.0781
 1111loPI   C1A17767  11.795   2.721   5.933  0.1878 -0.1816  0.1700
 1111loPI   C2A17768  11.777   2.694   6.390  0.3166  0.0467 -0.0360
 1111loPI   C3A17769  11.813   2.713   6.765  0.1828  0.0990  0.2303
 1111loPI   C4A17770  11.806   2.821   7.158  0.3696  0.2151  0.1279
 1111loPI   C5A17771  11.821   2.833   7.520 -0.1629 -0.0461  0.2048
 1111loPI   C6A17772  11.930   3.063   7.873 -0.2167  0.0068  0.0304
 1111loPI   C1B17773  11.455   3.062   6.135 -0.1796 -0.0256  0.0031
 1111loPI   C2B17774  11.398   3.130   6.525  0.0272  0.0516  0.3088
 1111loPI   C3B17775  11.439   3.060   6.942  0.0349 -0.2341  0.0931
 1111loPI   C4B17776  11.358   3.266   7.330 -0.1018  0.2983 -0.1917
 1112loPI    C117777   7.152  16.105   4.766  0.0482 -0.2602 -0.1265
 1112loPI    C217778   7.388  16.219   4.464 -0.0649  0.1149 -0.0783
 1112loPI    C317779   7.010  16.112   4.392  0.0301 -0.2032 -0.1187
 1112loPI   PO417780   7.218  16.241   4.936  0.0512  0.0245 -0.2368
 1112loPI   GL117781   7.216  16.400   5.345  0.1629  0.0784  0.1185
 1112loPI   GL217782   7.116  16.138   5.427 -0.1210  0.1097  0.0844
 1112loPI   C1A17783   7.499  16.248   5.683  0.2437 -0.0775 -0.2259
 1112loPI   C2A17784   7.525  16.187   6.161  0.2504 -0.0629  0.0666
 1112loPI   C3A17785   7.577  16.257   6.544 -0.3254  0.2067 -0.1246
 1112loPI   C4A17786   7.523  16.312   6.947  0.0196  0.1158  0.0845
 1112loPI   C5A17787   7.504  16.401   7.331 -0.0302 -0.1813  0.1287
 1112loPI   C6A17788   7.868  16.616   7.597 -0.1663 -0.0168  0.1855
 1112loPI   C1B17789   7.042  16.227   5.947  0.3455 -0.2576 -0.0391
 1112loPI   C2B17790   7.037  16.208   6.391  0.0286  0.1401 -0.1525
 1112loPI   C3B17791   7.018  16.281   6.833  0.0735 -0.1011 -0.1176
 1112loPI   C4B17792   6.946  16.288   7.253 -0.0210 -0.1220  0.1472
 1113loPI    C117793  12.049  16.348   5.470 -0.0967 -0.1281  0.1606
 1113loPI    C217794  11.832  16.269   5.144  0.0056  0.2744 -0.0118
 1113loPI    C317795  12.228  16.316   5.113  0.0589  0.0100  0.2246
 1113loPI   PO417796  11.966  16.136   5.621  0.2456 -0.1101  0.2071
 1113loPI   GL117797  11.706  16.150   6.075  0.0080  0.1441  0.2519
 1113loPI   GL217798  11.365  16.075   6.030  0.1644  0.4677 -0.1039
 1113loPI   C1A17799  11.952  15.947   6.371  0.2495  0.0010 -0.0857
 1113loPI   C2A17800  11.838  16.014   6.812 -0.0979  0.1567 -0.0188
 1113loPI   C3A17801  11.864  16.036   7.304  0.2110  0.0978 -0.3152
 1113loPI   C4A17802  11.763  16.189   7.742  0.0902  0.1029  0.0911
 1113loPI   C5A17803  11.590  16.179   8.125 -0.0045 -0.1039  0.0394
 1113loPI   C6A17804  11.357  15.982   8.417  0.0441 -0.2865  0.1109
 1113loPI   C1B17805  11.018  15.935   6.306  0.1077 -0.2152 -0.0784
 1113loPI   C2B17806  10.930  15.776   6.729 -0.2108  0.0566 -0.1421
 1113loPI   C3B17807  10.825  15.978   7.156  0.2106 -0.3321 -0.2147
 1113loPI   C4B17808  10.750  16.036   7.615 -0.2573 -0.0087  0.0586
 1114loPI    C117809  15.660  10.881   5.206  0.0148  0.0367 -0.0488
 1114loPI    C217810  15.591  10.627   4.905 -0.0488 -0.0009 -0.0030
 1114loPI    C317811  15.287  10.827   5.071 -0.0120  0.0306  0.0268
 1114loPI   PO417812  15.739  10.771   5.393 -0.3194  0.0817 -0.0574
 1114loPI   GL117813  15.903  10.847   5.871 -0.1637 -0.2748 -0.1997
 1114loPI   GL217814  16.076  10.489   5.963 -0.3024  0.1518  0.0763
 1114loPI   C1A17815  16.066  10.919   6.231  0.1900 -0.2095  0.0811
 1114loPI   C2A17816  16.039  10.976   6.594 -0.1714  0.2020 -0.0357
 1114loPI   C3A17817  16.019  10.960   6.991 -0.0538  0.1484 -0.0898
 1114loPI   C4A17818  16.021  10.872   7.495 -0.1056 -0.2663 -0.2558
 1114loPI   C5A17819  16.061  10.867   7.915 -0.2009 -0.0449  0.0933
 1114loPI   C6A17820  16.117  10.783   8.377  0.3358 -0.3863  0.2587
 1114loPI   C1B17821  16.318  10.526   6.360 -0.1632 -0.2037  0.2104
 1114loPI   C2B17822  16.285  10.558   6.809  0.2257  0.3773 -0.1056
 1114loPI   C3B17823  16.218  10.500   7.161 -0.2818  0.0908  0.0665
 1114loPI   C4B17824  16.320  10.511   7.566 -0.3525 -0.0834  0.0043
 1115loPI    C117825  11.559   3.647   5.212 -0.0840 -0.1572 -0.0637
 1115loPI    C217826  11.812   3.338   5.236  0.0877 -0.0316 -0.2264
 1115loPI    C317827  11.830   3.587   4.924 -0.1515  0.0551 -0.1731
 1115loPI   PO417828  11.571   3.743   5.434 -0.3791 -0.3119 -0.2065
 1115loPI   GL117829  11.623   3.456   5.791 -0.0321 -0.0962  0.1051
 1115loPI   GL217830  11.906   3.697   5.859 -0.0135  0.1090  0.0015
 1115loPI   C1A17831  11.598   3.598   6.247  0.3292 -0.1141 -0.0353
 1115loPI   C2A17832  11.550   3.539   6.703  0.0502  0.1700 -0.2000
 1115loPI   C3A17833  11.525   3.640   7.088 -0.0772 -0.1345  0.1559
 1115loPI   C4A17834  11.611   3.686   7.577 -0.1562  0.0128 -0.0871
 1115loPI   C5A17835  11.886   3.922   7.842 -0.0281  0.0256  0.0285
 1115loPI   C6A17836  12.036   4.312   7.897 -0.0897 -0.0845  0.1212
 1115loPI   C1B17837  12.151   3.726   6.290 -0.4790 -0.2847 -0.2723
 1115loPI   C2B17838  12.046   3.601   6.645  0.1058  0.4571 -0.0305
 1115loPI   C3B17839  12.078   3.732   6.985 -0.2283  0.1478 -0.1495
 1115loPI   C4B17840  12.099   3.754   7.322 -0.1305 -0.3968  0.4908
 1116loPI    C117841  11.775   6.746   5.358  0.1028  0.0860 -0.2171
 1116loPI    C217842  11.523   6.932   5.109 -0.1216 -0.1684 -0.1855
 1116loPI    C317843  11.495   6.537   5.163  0.0297 -0.1402  0.1208
 1116loPI   PO417844  11.786   6.831   5.641  0.1077  0.1585  0.0709
 1116loPI   GL117845  11.491   6.985   5.941 -0.0967  0.2553  0.0343
 1116loPI   GL217846  11.257   7.218   5.883 -0.0533 -0.2364 -0.1336
 1116loPI   C1A17847  11.658   7.148   6.290 -0.3433 -0.1039 -0.3038
 1116loPI   C2A17848  11.571   7.144   6.650  0.1642 -0.2169  0.2847
 1116loPI   C3A17849  11.484   7.047   7.005 -0.0041  0.1211  0.0786
 1116loPI   C4A17850  11.436   7.044   7.427 -0.2065  0.0774 -0.0270
 1116loPI   C5A17851  11.444   6.906   7.846  0.2360  0.1593 -0.3615
 1116loPI   C6A17852  11.075   6.826   8.054  0.0608  0.0778 -0.1195
 1116loPI   C1B17853  11.169   7.230   6.321 -0.2168  0.0456 -0.0777
 1116loPI   C2B17854  11.018   7.338   6.802 -0.2311 -0.1419  0.1254
 1116loPI   C3B17855  11.004   7.341   7.215  0.1498 -0.0067 -0.2340
 1116loPI   C4B17856  11.107   7.220   7.691  0.0935 -0.0319  0.0967
 1117loPI    C117857  13.909   9.633   5.474 -0.0347  0.0498  0.2231
 1117loPI    C217858  13.564   9.640   5.273  0.1501 -0.4550 -0.1319
 1117loPI    C317859  13.905   9.737   5.088  0.2047  0.0780  0.2267
 1117loPI   PO417860  13.812   9.693   5.746 -0.2409 -0.1030 -0.0163
 1117loPI   GL117861  13.843   9.817   6.225 -0.1936  0.1750  0.1085
 1117loPI   GL217862  14.197   9.926   6.250 -0.1750 -0.0667  0.3543
 1117loPI   C1A17863  14.020   9.735   6.676  0.1008 -0.1273  0.2477
 1117loPI   C2A17864  14.280   9.582   6.938 -0.1708  0.0188  0.1295
 1117loPI   C3A17865  14.198   9.504   7.354 -0.1063 -0.0332 -0.0662
 1117loPI   C4A17866  14.302   9.291   7.735  0.2308 -0.3070 -0.1512
 1117loPI   C5A17867  14.296   9.040   8.104  0.2236  0.1427 -0.1870
 1117loPI   C6A17868  14.300   8.619   8.340 -0.2161 -0.0734 -0.1297
 1117loPI   C1B17869  14.499  10.099   6.455  0.1296  0.0438  0.0022
 1117loPI   C2B17870  14.639  10.380   6.787 -0.1810 -0.1013  0.0630
 1117loPI   C3B17871  14.658  10.497   7.179  0.1641 -0.0261 -0.0726
 1117loPI   C4B17872  14.795  10.425   7.526 -0.3274  0.0793 -0.2225
 1118loPI    C117873   3.711   9.064   5.254 -0.0279  0.0365  0.0701
 1118loPI    C217874   4.091   9.168   5.183 -0.0373  0.0462  0.0335
 1118loPI    C317875   3.802   9.283   4.932 -0.0537 -0.0299  0.0173
 1118loPI   PO417876   3.683   8.784   5.277  0.0770  0.0682  0.1788
 1118loPI   GL117877   3.653   8.661   5.663  0.2154  0.0062 -0.4254
 1118loPI   GL217878   3.841   8.516   5.669  0.0048 -0.0686 -0.4049
 1118loPI   C1A17879   3.470   8.862   6.080  0.2755 -0.2443  0.0487
 1118loPI   C2A17880   3.097   8.913   6.230  0.0429  0.1016  0.0362
 1118loPI   C3A17881   3.087   8.851   6.622 -0.1670  0.2661 -0.2631
 1118loPI   C4A17882   3.028   8.835   7.048 -0.1747 -0.1079 -0.1907
 1118loPI   C5A17883   3.022   8.864   7.479 -0.1073  0.2526  0.0203
 1118loPI   C6A17884   3.379   8.882   7.765 -0.0980 -0.2073 -0.2526
 1118loPI   C1B17885   4.060   8.400   5.971 -0.2294  0.2641  0.3891
 1118loPI   C2B17886   4.027   8.438   6.324  0.1329  0.0798  0.2024
 1118loPI   C3B17887   3.882   8.489   6.767 -0.2636 -0.1744 -0.3368
 1118loPI   C4B17888   3.848   8.573   7.195  0.0534 -0.0540 -0.2237
 1119loPI    C117889   2.390  18.089   5.050  0.2262 -0.1125  0.2811
 1119loPI    C217890   2.715  17.864   4.987  0.0454 -0.2606 -0.1682
 1119loPI    C317891   2.477  17.961   4.681  0.0147  0.3939  0.0458
 1119loPI   PO417892   2.194  17.999   5.247 -0.1791 -0.0797  0.3506
 1119loPI   GL117893   2.243  17.692   5.578  0.1204  0.2001  0.0786
 1119loPI   GL217894   2.001  17.565   5.514 -0.0775 -0.2782 -0.0316
 1119loPI   C1A17895   2.350  17.635   6.033  0.2716  0.0458  0.3949
 1119loPI   C2A17896   2.139  17.641   6.372 -0.0995 -0.2806 -0.0647
 1119loPI   C3A17897   2.167  17.605   6.797  0.0927  0.0572 -0.0831
 1119loPI   C4A17898   2.337  17.678   7.244  0.1264  0.2888  0.0042
 1119loPI   C5A17899   2.606  17.914   7.580 -0.1983 -0.0429  0.2344
 1119loPI   C6A17900   2.814  17.810   7.983 -0.0676 -0.0711 -0.0853
 1119loPI   C1B17901   1.853  17.636   5.949 -0.0526 -0.2655  0.1115
 1119loPI   C2B17902   1.545  17.841   6.108  0.1733  0.1219  0.0584
 1119loPI   C3B17903   1.457  18.054   6.463 -0.1089 -0.0160  0.0224
 1119loPI   C4B17904   1.412  18.039   6.797  0.1798 -0.0241 -0.0117
 1120loPI    C117905   7.974   7.419   5.049  0.0072  0.0803  0.1818
 1120loPI    C217906   8.338   7.283   4.954  0.0712  0.1644  0.3042
 1120loPI    C317907   8.160   7.556   4.722  0.1763  0.2806  0.3592
 1120loPI   PO417908   7.987   7.391   5.270 -0.1123 -0.0940  0.0352
 1120loPI   GL117909   7.882   7.428   5.621 -0.0630  0.0509  0.0271
 1120loPI   GL217910   7.590   7.516   5.764 -0.0841 -0.0700 -0.0244
 1120loPI   C1A17911   7.859   7.210   6.044 -0.1152  0.2076  0.0826
 1120loPI   C2A17912   7.988   6.978   6.465  0.1274  0.3673  0.2970
 1120loPI   C3A17913   7.941   6.887   6.888 -0.0648  0.0187  0.3139
 1120loPI   C4A17914   7.839   6.789   7.238  0.0902  0.0015 -0.0508
 1120loPI   C5A17915   7.648   6.732   7.557 -0.1038  0.0058  0.0737
 1120loPI   C6A17916   7.463   6.786   7.950 -0.1068  0.0816 -0.0393
 1120loPI   C1B17917   7.481   7.578   6.134 -0.2469  0.1748  0.1678
 1120loPI   C2B17918   7.321   7.664   6.529 -0.1617  0.0540  0.1921
 1120loPI   C3B17919   7.421   7.706   6.946  0.0601  0.0151  0.0425
 1120loPI   C4B17920   7.624   7.735   7.284  0.0990 -0.1035 -0.0007
 1121loPI    C117921   1.931  15.630   4.808  0.0341  0.1046 -0.1224
 1121loPI    C217922   1.692  15.309   4.808 -0.1791  0.2607 -0.2546
 1121loPI    C317923   2.049  15.293   4.628 -0.0389 -0.0083  0.0386
 1121loPI   PO417924   1.913  15.679   5.120 -0.2085 -0.2526 -0.0899
 1121loPI   GL117925   1.925  15.673   5.615  0.1018  0.0058  0.1356
 1121loPI   GL217926   1.752  15.324   5.555 -0.3347 -0.0171  0.0274
 1121loPI   C1A17927   1.905  15.835   6.025  0.2120  0.0925  0.0541
 1121loPI   C2A17928   1.842  15.920   6.389  0.1442 -0.0642 -0.1414
 1121loPI   C3A17929   1.689  16.196   6.685 -0.0362  0.1303  0.3483
 1121loPI   C4A17930   1.683  16.299   7.099 -0.0230  0.1373  0.0546
 1121loPI   C5A17931   1.511  16.270   7.573  0.1867 -0.1801  0.1633
 1121loPI   C6A17932   1.169  16.507   7.711  0.2358  0.1329  0.1674
 1121loPI   C1B17933   1.681  15.383   6.021 -0.1898 -0.0340 -0.0806
 1121loPI   C2B17934   1.715  15.418   6.449 -0.1835 -0.2084 -0.0213
 1121loPI   C3B17935   1.699  15.358   6.906 -0.1418  0.0830 -0.0634
 1121loPI   C4B17936   1.697  15.468   7.330  0.1884  0.0546 -0.0469
 1122loPI    C117937   4.154  13.745   5.190 -0.1473  0.0290 -0.1681
 1122loPI    C217938   4.237  13.461   4.921 -0.0800 -0.1212  0.0091
 1122loPI    C317939   4.489  13.768   4.973 -0.1211 -0.0618 -0.1374
 1122loPI   PO417940   3.843  13.663   5.235  0.0756  0.0964  0.1774
 1122loPI   GL117941   3.550  13.550   5.606  0.0292 -0.0157 -0.1753
 1122loPI   GL217942   3.381  13.698   5.825  0.0186 -0.0513  0.0565
 1122loPI   C1A17943   3.808  13.419   6.015  0.1282 -0.3316  0.0606
 1122loPI   C2A17944   4.147  13.401   6.314  0.2576  0.0126  0.0860
 1122loPI   C3A17945   4.195  13.379   6.722  0.2565  0.1260  0.1803
 1122loPI   C4A17946   4.088  13.451   7.125  0.0367 -0.0383 -0.2057
 1122loPI   C5A17947   4.205  13.595   7.539 -0.0134  0.0275  0.0796
 1122loPI   C6A17948   4.122  13.770   7.953  0.1828 -0.1089  0.0993
 1122loPI   C1B17949   3.426  13.745   6.234  0.0949 -0.1003 -0.0198
 1122loPI   C2B17950   3.439  13.757   6.625 -0.1284 -0.1033 -0.0499
 1122loPI   C3B17951   3.333  13.820   6.966  0.1959  0.2381  0.1054
 1122loPI   C4B17952   3.405  13.807   7.327 -0.0964 -0.1676  0.3523
 1123loPI    C117953   7.499   4.489   5.281  0.0955 -0.0019 -0.0898
 1123loPI    C217954   7.225   4.425   4.996  0.1265  0.1560 -0.1558
 1123loPI    C317955   7.361   4.795   5.065  0.1395  0.1151  0.0463
 1123loPI   PO417956   7.424   4.335   5.489  0.2171 -0.0601 -0.1479
 1123loPI   GL117957   7.506   4.261   5.958 -0.1144  0.0920 -0.1900
 1123loPI   GL217958   7.724   3.977   6.021  0.0226 -0.1413  0.4197
 1123loPI   C1A17959   7.067   4.367   6.123  0.0446 -0.0316 -0.3456
 1123loPI   C2A17960   6.813   4.543   6.467  0.0643  0.0073  0.1223
 1123loPI   C3A17961   6.692   4.694   6.884  0.0233  0.0328 -0.0681
 1123loPI   C4A17962   6.835   4.953   7.269 -0.0712  0.3522 -0.0112
 1123loPI   C5A17963   7.142   4.930   7.574 -0.2130  0.2145 -0.0643
 1123loPI   C6A17964   7.447   4.965   8.028  0.0547 -0.0514  0.1426
 1123loPI   C1B17965   7.508   3.984   6.388  0.1956  0.0577  0.1539
 1123loPI   C2B17966   7.367   3.792   6.804  0.0497 -0.2379  0.1037
 1123loPI   C3B17967   6.890   3.834   6.936 -0.3590  0.1548  0.0159
 1123loPI   C4B17968   6.839   3.941   7.408 -0.3082  0.3366 -0.2354
 1124loPI    C117969   3.927   7.007   5.477  0.0402  0.2672  0.0818
 1124loPI    C217970   3.970   7.204   5.131 -0.3492 -0.0842 -0.1769
 1124loPI    C317971   3.696   7.324   5.398  0.0248  0.2525  0.0679
 1124loPI   PO417972   4.158   6.797   5.474  0.1069 -0.0698 -0.0314
 1124loPI   GL117973   4.293   6.528   5.699 -0.1428 -0.1587 -0.0548
 1124loPI   GL217974   4.152   6.335   5.906 -0.1448  0.1404  0.0385
 1124loPI   C1A17975   4.519   6.724   6.025  0.1080  0.0909  0.1920
 1124loPI   C2A17976   4.718   6.727   6.309 -0.0662 -0.0242  0.2630
 1124loPI   C3A17977   4.609   6.898   6.639  0.0940 -0.0134 -0.0535
 1124loPI   C4A17978   4.713   6.815   7.107  0.1504  0.1508 -0.3173
 1124loPI   C5A17979   4.862   6.814   7.541  0.1421 -0.3821  0.1501
 1124loPI   C6A17980   5.226   6.642   7.748  0.0883  0.0209  0.1612
 1124loPI   C1B17981   4.024   6.209   6.268 -0.2914 -0.0575  0.2290
 1124loPI   C2B17982   4.105   6.244   6.707  0.1770 -0.1561  0.1080
 1124loPI   C3B17983   3.986   6.278   7.112  0.0405  0.3067  0.2888
 1124loPI   C4B17984   4.106   6.326   7.525  0.4189  0.2135  0.3685
 1125loPI    C117985   7.694  15.479   5.001  0.0983  0.0876  0.1446
 1125loPI    C217986   7.394  15.527   4.741  0.1451  0.0733  0.0875
 1125loPI    C317987   7.584  15.847   4.888 -0.0425  0.0921  0.2941
 1125loPI   PO417988   7.597  15.325   5.206  0.0924  0.0595 -0.5195
 1125loPI   GL117989   7.417  15.513   5.512 -0.0076 -0.0782  0.1082
 1125loPI   GL217990   7.481  15.828   5.418 -0.1137  0.0740  0.0837
 1125loPI   C1A17991   7.176  15.266   5.878  0.1750 -0.1908 -0.0511
 1125loPI   C2A17992   7.130  15.280   6.292  0.1179  0.2850 -0.2711
 1125loPI   C3A17993   7.001  15.451   6.657 -0.0420  0.0622  0.0178
 1125loPI   C4A17994   7.073  15.427   7.110  0.2577 -0.1448 -0.3652
 1125loPI   C5A17995   6.987  15.311   7.537 -0.0760  0.0431  0.3217
 1125loPI   C6A17996   6.856  15.192   7.945 -0.2685  0.2343 -0.2024
 1125loPI   C1B17997   7.375  15.775   5.902  0.1482  0.2392 -0.1385
 1125loPI   C2B17998   7.307  15.774   6.339  0.0300 -0.1025 -0.0282
 1125loPI   C3B17999   7.281  15.891   6.734  0.1452  0.0113 -0.1963
 1125loPI   C4B18000   7.282  15.907   7.235  0.2312 -0.0768 -0.0060
 1126loPI    C118001  12.067  15.834   5.163  0.2001 -0.3226  0.0069
 1126loPI    C218002  11.736  15.752   4.953  0.0941  0.0188  0.0345
 1126loPI    C318003  12.064  15.883   4.766  0.1107 -0.0099  0.0435
 1126loPI   PO418004  12.103  15.705   5.391 -0.2200 -0.0451  0.0645
 1126loPI   GL118005  12.278  15.822   5.825  0.1625 -0.1328 -0.0047
 1126loPI   GL218006  12.102  15.716   5.953 -0.3271  0.0561  0.1717
 1126loPI   C1A18007  12.465  16.046   6.166 -0.0002  0.1073 -0.1901
 1126loPI   C2A18008  12.395  15.992   6.644 -0.2621 -0.1845 -0.5201
 1126loPI   C3A18009  12.560  16.036   6.982  0.1188  0.2837  0.2006
 1126loPI   C4A18010  12.379  15.978   7.293 -0.1816 -0.2377  0.3003
 1126loPI   C5A18011  12.365  16.124   7.770  0.4545  0.2829  0.0198
 1126loPI   C6A18012  12.167  16.185   8.064  0.1381  0.3762  0.2498
 1126loPI   C1B18013  12.261  15.568   6.414 -0.1464  0.2297 -0.5163
 1126loPI   C2B18014  12.282  15.586   6.928  0.0677 -0.0672  0.0218
 1126loPI   C3B18015  12.140  15.485   7.370  0.0564  0.2505  0.1771
 1126loPI   C4B18016  11.979  15.751   7.703 -0.2618  0.1890 -0.0220
 1127loPI    C118017  17.120   7.774   5.503  0.0754 -0.0288  0.0540
 1127loPI    C218018  17.139   7.953   5.860 -0.0018  0.0229  0.0326
 1127loPI    C318019  16.963   8.139   5.552 -0.2556 -0.1679  0.0589
 1127loPI   PO418020  17.151   7.576   5.479  0.1838  0.1342  0.1560
 1127loPI   GL118021  17.151   7.355   5.878  0.1927 -0.0230 -0.1450
 1127loPI   GL218022  16.921   7.459   5.932 -0.1192  0.1515  0.0069
 1127loPI   C1A18023  17.412   7.419   6.292 -0.0041 -0.0369  0.3140
 1127loPI   C2A18024  17.334   7.382   6.693  0.0623 -0.0173  0.3744
 1127loPI   C3A18025  17.441   7.529   7.161 -0.0227 -0.0456  0.0622
 1127loPI   C4A18026  17.510   7.523   7.615 -0.2081  0.0716 -0.1958
 1127loPI   C5A18027  17.281   7.466   7.987  0.0715 -0.1143  0.1125
 1127loPI   C6A18028  16.894   7.437   8.135  0.0241  0.0919 -0.1684
 1127loPI   C1B18029  16.978   7.617   6.418  0.0146  0.1441 -0.1786
 1127loPI   C2B18030  16.993   7.795   6.910 -0.0794 -0.1585 -0.0738
 1127loPI   C3B18031  17.121   7.920   7.287  0.2782  0.0152  0.1181
 1127loPI   C4B18032  17.156   7.918   7.761  0.0912 -0.0917  0.0472
 1128loPI    C118033   6.929  16.718   4.954 -0.2833  0.0592  0.0342
 1128loPI    C218034   7.102  17.006   4.737 -0.1381  0.2191  0.3555
 1128loPI    C318035   7.087  16.631   4.597 -0.0399  0.3170  0.0761
 1128loPI   PO418036   6.678  16.793   4.900 -0.0487 -0.0526 -0.4873
 1128loPI   GL118037   6.577  16.970   5.326  0.0896  0.1916  0.1313
 1128loPI   GL218038   6.802  16.688   5.454 -0.1616  0.2124  0.0707
 1128loPI   C1A18039   6.492  17.058   5.768  0.0111 -0.0803  0.0935
 1128loPI   C2A18040   6.490  17.026   6.111 -0.0147  0.0701  0.0064
 1128loPI   C3A18041   6.435  17.110   6.586 -0.1483 -0.4026 -0.1663
 1128loPI   C4A18042   6.334  17.082   7.099 -0.1861 -0.1699 -0.0934
 1128loPI   C5A18043   6.315  17.012   7.521 -0.2223 -0.0560 -0.1113
 1128loPI   C6A18044   6.287  16.989   8.099 -0.0304  0.1445  0.1090
 1128loPI   C1B18045   6.774  16.642   5.980 -0.0556  0.1453  0.0514
 1128loPI   C2B18046   6.766  16.599   6.368  0.0988  0.0069  0.0008
 1128loPI   C3B18047   6.725  16.675   6.832 -0.3718  0.0180 -0.1040
 1128loPI   C4B18048   6.594  16.715   7.204 -0.1112  0.1475 -0.0922
 1129loPI    C118049   6.092   8.631   4.743 -0.2028 -0.0736  0.1112
 1129loPI    C218050   6.351   8.380   4.571  0.0412  0.2042  0.0661
 1129loPI    C318051   6.020   8.490   4.376 -0.1220 -0.1617  0.1288
 1129loPI   PO418052   6.274   8.882   4.931 -0.0173  0.1032  0.2076
 1129loPI   GL118053   6.484   8.986   5.336  0.0707 -0.0215  0.0131
 1129loPI   GL218054   6.364   8.723   5.510  0.0932 -0.2273 -0.1155
 1129loPI   C1A18055   6.422   9.141   5.808  0.1601  0.0086  0.1908
 1129loPI   C2A18056   6.395   9.170   6.266  0.1974 -0.0552 -0.0712
 1129loPI   C3A18057   6.292   9.026   6.668  0.2818 -0.2079 -0.2084
 1129loPI   C4A18058   6.156   8.761   6.966  0.3536  0.0457  0.2559
 1129loPI   C5A18059   5.903   8.715   7.331 -0.1522 -0.0982  0.3570
 1129loPI   C6A18060   5.607   8.685   7.730  0.0957 -0.0608 -0.0433
 1129loPI   C1B18061   6.120   8.562   5.797  0.2064 -0.0521 -0.1862
 1129loPI   C2B18062   6.300   8.647   6.230  0.1087  0.1254 -0.1220
 1129loPI   C3B18063   6.471   8.538   6.653 -0.0221 -0.0838 -0.2118
 1129loPI   C4B18064   6.893   8.510   6.758 -0.0077 -0.4100 -0.1038
 1130loPI    C118065   9.584  17.289   5.237  0.0046  0.1512  0.1041
 1130loPI    C218066   9.898  17.256   4.992  0.1436  0.0441  0.2944
 1130loPI    C318067   9.546  17.099   4.887  0.1156  0.2814  0.0203
 1130loPI   PO418068   9.699  17.274   5.453 -0.0853 -0.3236 -0.0400
 1130loPI   GL118069   9.812  17.092   5.831 -0.0087 -0.1421 -0.5407
 1130loPI   GL218070  10.046  16.839   5.765 -0.2734  0.1549  0.1599
 1130loPI   C1A18071   9.601  17.184   6.167 -0.0490  0.4999  0.1239
 1130loPI   C2A18072   9.520  17.323   6.590 -0.0599  0.0602 -0.0254
 1130loPI   C3A18073   9.282  17.686   6.725 -0.1424  0.0939  0.1143
 1130loPI   C4A18074   9.152  17.863   7.046 -0.0102  0.0293  0.2527
 1130loPI   C5A18075   9.006  17.863   7.544 -0.0380 -0.1970  0.0485
 1130loPI   C6A18076   8.628  17.827   7.764  0.2564  0.4827 -0.1227
 1130loPI   C1B18077   9.978  16.785   6.237  0.2317  0.2326 -0.0864
 1130loPI   C2B18078   9.876  16.802   6.625 -0.2972 -0.0471  0.0599
 1130loPI   C3B18079   9.800  16.881   7.093  0.1627 -0.3792 -0.0329
 1130loPI   C4B18080   9.648  16.798   7.544  0.1152 -0.2641  0.0979
 1131loPI    C118081  17.171   1.024   5.082 -0.2296  0.1738  0.1638
 1131loPI    C218082  16.828   1.166   5.232 -0.4470 -0.0323 -0.1257
 1131loPI    C318083  16.862   1.100   4.839  0.0879  0.4303 -0.1704
 1131loPI   PO418084  17.241   0.930   5.285  0.3217  0.0997 -0.0652
 1131loPI   GL118085  17.195   0.784   5.682  0.2078  0.0791  0.2910
 1131loPI   GL218086  17.114   0.570   5.869  0.1587 -0.2646  0.0448
 1131loPI   C1A18087  17.290   0.939   6.130 -0.2213 -0.0099  0.0140
 1131loPI   C2A18088  17.323   0.882   6.568  0.0639 -0.2718  0.2666
 1131loPI   C3A18089  17.370   0.921   6.979  0.3558  0.0521 -0.1144
 1131loPI   C4A18090  17.322   0.820   7.427 -0.2991  0.3315 -0.2913
 1131loPI   C5A18091  17.518   0.576   7.756 -0.0473 -0.3286 -0.2044
 1131loPI   C6A18092  17.621   0.588   8.235 -0.3761  0.0955 -0.0062
 1131loPI   C1B18093  17.138   0.468   6.283 -0.0117  0.5464  0.1588
 1131loPI   C2B18094  17.165   0.454   6.730  0.2255  0.1747 -0.3812
 1131loPI   C3B18095  17.166   0.434   7.130  0.0843  0.0571  0.0652
 1131loPI   C4B18096  17.164   0.336   7.543 -0.1846 -0.0809 -0.2572
 1132loPI    C118097  12.622   0.483   5.207  0.0373 -0.3125 -0.1064
 1132loPI    C218098  13.019   0.436   5.192  0.0811 -0.0094  0.0182
 1132loPI    C318099  12.823   0.579   4.874  0.1031  0.0550  0.0335
 1132loPI   PO418100  12.564   0.566   5.435  0.3113 -0.3540  0.0177
 1132loPI   GL118101  12.459   0.670   5.822  0.0445  0.1861  0.0852
 1132loPI   GL218102  12.538   1.016   5.824  0.1213 -0.1599  0.0861
 1132loPI   C1A18103  12.391   0.645   6.225  0.1234  0.1049 -0.0815
 1132loPI   C2A18104  12.191   0.948   6.491  0.1235 -0.1623 -0.0380
 1132loPI   C3A18105  11.955   0.983   6.860 -0.0536  0.0299  0.2155
 1132loPI   C4A18106  12.039   1.007   7.339 -0.2853  0.1930  0.1993
 1132loPI   C5A18107  11.966   1.011   7.814 -0.1818  0.3408  0.0875
 1132loPI   C6A18108  12.065   0.536   8.039 -0.1453 -0.1282 -0.3108
 1132loPI   C1B18109  12.633   1.149   6.267  0.0505  0.0835 -0.0413
 1132loPI   C2B18110  12.665   1.131   6.704 -0.2370  0.0546  0.0346
 1132loPI   C3B18111  12.450   1.131   7.046  0.0314 -0.1637 -0.1488
 1132loPI   C4B18112  12.573   1.240   7.408 -0.1108  0.0331  0.3218
 1133loPI    C118113   3.575   3.897   4.816 -0.0472  0.0879 -0.0125
 1133loPI    C218114   3.450   4.163   4.546  0.0589  0.1088 -0.0415
 1133loPI    C318115   3.622   3.822   4.426 -0.1610 -0.0162 -0.0068
 1133loPI   PO418116   3.459   3.837   4.981  0.0492  0.3056 -0.0123
 1133loPI   GL118117   3.417   3.758   5.394  0.3064 -0.1603  0.0545
 1133loPI   GL218118   3.546   4.043   5.457  0.0646  0.3009 -0.2789
 1133loPI   C1A18119   3.015   3.800   5.636 -0.1370  0.0757  0.3477
 1133loPI   C2A18120   2.853   3.806   6.119 -0.3096  0.0698  0.0771
 1133loPI   C3A18121   2.921   3.865   6.525 -0.2450 -0.0867 -0.0738
 1133loPI   C4A18122   2.940   3.934   6.888 -0.2747 -0.2096 -0.0816
 1133loPI   C5A18123   2.994   3.942   7.375 -0.2321  0.2384 -0.0293
 1133loPI   C6A18124   3.355   3.921   7.661 -0.0366 -0.1981 -0.0095
 1133loPI   C1B18125   3.435   3.849   5.853 -0.3199  0.2101  0.1908
 1133loPI   C2B18126   3.448   3.894   6.301  0.1508  0.1635  0.2064
 1133loPI   C3B18127   3.413   3.983   6.657  0.0418 -0.0049  0.3091
 1133loPI   C4B18128   3.475   4.039   7.133 -0.1906  0.1700 -0.1941
 1134loPI    C118129  13.337  14.099   5.229 -0.1087 -0.1785 -0.3305
 1134loPI    C218130  13.377  14.451   5.042 -0.1259  0.0413  0.0693
 1134loPI    C318131  13.632  14.153   4.964  0.0503  0.2286 -0.0806
 1134loPI   PO418132  13.388  14.152   5.539 -0.1685 -0.3126  0.0434
 1134loPI   GL118133  13.142  14.065   5.911 -0.0875  0.0795  0.2531
 1134loPI   GL218134  12.880  14.028   6.149  0.0786  0.2760  0.1899
 1134loPI   C1A18135  13.394  14.226   6.254 -0.1917 -0.0684 -0.0750
 1134loPI   C2A18136  13.693  14.341   6.601  0.1930  0.3081 -0.0058
 1134loPI   C3A18137  13.806  14.225   7.025  0.3122  0.0209  0.0766
 1134loPI   C4A18138  13.512  13.956   7.236 -0.1340  0.3623 -0.2113
 1134loPI   C5A18139  13.491  13.640   7.555  0.0617  0.1602 -0.0827
 1134loPI   C6A18140  13.096  13.352   7.568 -0.1912  0.0108 -0.2455
 1134loPI   C1B18141  12.748  14.444   6.343 -0.0309 -0.0262  0.1445
 1134loPI   C2B18142  12.781  14.590   6.767  0.0744 -0.0477 -0.0803
 1134loPI   C3B18143  12.681  14.697   7.161  0.1924  0.2750 -0.1956
 1134loPI   C4B18144  12.429  14.658   7.524 -0.1847  0.1826  0.3781
 1135loPI    C118145   5.826   9.482   4.997  0.0841  0.3102  0.3337
 1135loPI    C218146   6.200   9.344   4.968 -0.0784 -0.0647 -0.0897
 1135loPI    C318147   6.059   9.598   4.693 -0.2200 -0.1407 -0.0884
 1135loPI   PO418148   5.800   9.567   5.190 -0.1294 -0.1544  0.1205
 1135loPI   GL118149   5.788   9.583   5.629 -0.0564  0.1820 -0.0630
 1135loPI   GL218150   5.571   9.598   5.778 -0.2142  0.0804  0.0288
 1135loPI   C1A18151   5.890   9.265   5.904 -0.0466  0.1817 -0.0233
 1135loPI   C2A18152   5.907   9.091   6.318  0.0191 -0.0196 -0.2395
 1135loPI   C3A18153   5.720   9.075   6.690  0.1220  0.1511 -0.0728
 1135loPI   C4A18154   5.568   8.995   7.080  0.0470  0.0857  0.4166
 1135loPI   C5A18155   5.428   9.063   7.416  0.3042  0.0868 -0.0823
 1135loPI   C6A18156   5.366   9.171   7.722  0.2321 -0.0158 -0.1018
 1135loPI   C1B18157   5.541   9.678   6.169  0.0424  0.4631  0.2175
 1135loPI   C2B18158   5.600   9.564   6.598  0.0048  0.4224  0.1267
 1135loPI   C3B18159   5.598   9.566   7.025 -0.0735  0.2154 -0.0126
 1135loPI   C4B18160   5.333   9.567   7.428  0.0041 -0.0921 -0.2395
 1136loPI    C118161   6.091   2.973   4.983  0.1578 -0.0174  0.0306
 1136loPI    C218162   6.067   2.574   5.003  0.0128 -0.0133 -0.0470
 1136loPI    C318163   6.268   2.748   4.704 -0.0900 -0.0250 -0.1233
 1136loPI   PO418164   6.149   3.017   5.221 -0.3857 -0.1593  0.1795
 1136loPI   GL118165   6.337   2.782   5.581  0.2776 -0.0889 -0.0690
 1136loPI   GL218166   6.479   2.705   5.855 -0.0539 -0.0574 -0.0229
 1136loPI   C1A18167   6.133   3.065   5.856  0.2605 -0.2598  0.2244
 1136loPI   C2A18168   6.120   3.262   6.261  0.1260 -0.1579  0.0805
 1136loPI   C3A18169   5.987   3.261   6.719 -0.0418 -0.1872  0.0373
 1136loPI   C4A18170   6.060   3.394   7.072 -0.0305  0.3486 -0.0405
 1136loPI   C5A18171   6.192   3.177   7.412  0.1400  0.0173  0.0988
 1136loPI   C6A18172   6.384   2.996   7.828 -0.2897  0.2935 -0.2774
 1136loPI   C1B18173   6.319   2.779   6.153  0.1271 -0.0072  0.1399
 1136loPI   C2B18174   6.336   2.918   6.567  0.0354 -0.0770 -0.0195
 1136loPI   C3B18175   6.433   2.951   7.010 -0.2013  0.0726 -0.1569
 1136loPI   C4B18176   6.628   2.911   7.404 -0.1295 -0.2318  0.0870
 1137loPI    C118177   2.232   4.492   5.063 -0.0633  0.0072  0.1126
 1137loPI    C218178   1.835   4.502   5.114 -0.0868 -0.0153 -0.0621
 1137loPI    C318179   2.000   4.225   4.877  0.0341 -0.0098  0.0147
 1137loPI   PO418180   2.302   4.734   5.183  0.2603  0.0070 -0.0471
 1137loPI   GL118181   2.042   4.959   5.516 -0.0620  0.3501  0.1782
 1137loPI   GL218182   1.922   4.676   5.613  0.1185  0.1428 -0.2202
 1137loPI   C1A18183   2.076   5.057   5.923  0.1339 -0.1184  0.1020
 1137loPI   C2A18184   2.089   4.999   6.320  0.0472 -0.0699 -0.2784
 1137loPI   C3A18185   2.002   5.157   6.792 -0.0403  0.0042 -0.0474
 1137loPI   C4A18186   1.997   5.086   7.183  0.4252  0.2935  0.2469
 1137loPI   C5A18187   1.923   4.973   7.596  0.0209 -0.2881 -0.2130
 1137loPI   C6A18188   1.955   4.592   7.773  0.0013 -0.1236 -0.0904
 1137loPI   C1B18189   1.864   4.613   6.028 -0.1959 -0.2463 -0.3489
 1137loPI   C2B18190   1.834   4.571   6.458  0.0116  0.1598  0.2222
 1137loPI   C3B18191   1.709   4.682   6.817 -0.0776  0.1835  0.2934
 1137loPI   C4B18192   1.903   4.601   7.223  0.0660 -0.1766  0.1389
 1138loPI    C118193  14.759   1.580   5.091  0.0354 -0.2747  0.0931
 1138loPI    C218194  14.558   1.541   4.747 -0.1277  0.3035  0.1134
 1138loPI    C318195  14.885   1.771   4.763  0.0909 -0.0112  0.2649
 1138loPI   PO418196  14.597   1.455   5.276 -0.2189 -0.1263  0.0736
 1138loPI   GL118197  14.532   1.569   5.591 -0.2477  0.1705 -0.3043
 1138loPI   GL218198  14.365   1.817   5.669  0.0371 -0.1457 -0.0261
 1138loPI   C1A18199  14.707   1.500   5.984 -0.2465 -0.2324 -0.1341
 1138loPI   C2A18200  14.653   1.401   6.430 -0.0404 -0.1283 -0.2745
 1138loPI   C3A18201  14.679   1.404   6.928 -0.0024 -0.3224  0.0590
 1138loPI   C4A18202  14.563   1.437   7.372 -0.1554 -0.1620  0.0314
 1138loPI   C5A18203  14.413   1.497   7.755 -0.1622 -0.3586 -0.1092
 1138loPI   C6A18204  14.383   1.179   8.103 -0.2105 -0.1353  0.2368
 1138loPI   C1B18205  14.364   1.856   6.118 -0.1126  0.0189 -0.0829
 1138loPI   C2B18206  14.393   1.784   6.585  0.1309  0.2992  0.2776
 1138loPI   C3B18207  14.268   1.772   7.033 -0.0959 -0.0326  0.0008
 1138loPI   C4B18208  14.384   1.926   7.441 -0.1828  0.0011  0.0140
 1139loPI    C118209  12.940  15.048   5.363  0.0170 -0.1005 -0.2863
 1139loPI    C218210  13.249  15.295   5.304 -0.0797  0.1314  0.1374
 1139loPI    C318211  13.264  14.919   5.168  0.1249  0.3244 -0.3977
 1139loPI   PO418212  12.844  15.161   5.611 -0.0799 -0.1520  0.1130
 1139loPI   GL118213  13.012  15.179   6.012  0.1747 -0.3942  0.0021
 1139loPI   GL218214  13.101  15.447   6.067  0.0619 -0.1241 -0.0783
 1139loPI   C1A18215  13.024  15.094   6.481 -0.1070  0.0202  0.3176
 1139loPI   C2A18216  13.058  15.161   6.855 -0.1538 -0.0992 -0.0412
 1139loPI   C3A18217  13.036  15.259   7.261  0.1489 -0.0543 -0.0387
 1139loPI   C4A18218  13.015  15.373   7.686  0.2039  0.1362 -0.2410
 1139loPI   C5A18219  12.920  15.529   8.096  0.1208 -0.1496 -0.0906
 1139loPI   C6A18220  13.232  15.624   8.372  0.1165 -0.0013  0.1205
 1139loPI   C1B18221  13.227  15.552   6.501 -0.1737 -0.1987  0.0773
 1139loPI   C2B18222  13.306  15.644   6.938 -0.1990  0.0699  0.1922
 1139loPI   C3B18223  13.338  15.628   7.408  0.0947 -0.0856  0.1656
 1139loPI   C4B18224  13.472  15.530   7.854  0.0823  0.0667 -0.2348
 1140loPI    C118225   4.458   7.145   5.041 -0.2829 -0.0402 -0.1208
 1140loPI    C218226   4.529   6.754   5.085  0.1288  0.0342 -0.0834
 1140loPI    C318227   4.236   6.878   4.842 -0.0061 -0.2949 -0.0942
 1140loPI   PO418228   4.452   7.252   5.371  0.3809 -0.3024  0.2259
 1140loPI   GL118229   4.351   7.175   5.785  0.1091 -0.2266 -0.0354
 1140loPI   GL218230   4.358   7.555   5.902 -0.3806  0.1057 -0.2298
 1140loPI   C1A18231   4.297   7.125   6.268  0.1331 -0.1482  0.0140
 1140loPI   C2A18232   3.933   7.201   6.532 -0.0176  0.1360  0.4292
 1140loPI   C3A18233   3.759   7.191   6.907 -0.1575 -0.0055  0.2056
 1140loPI   C4A18234   3.734   7.118   7.351  0.1183  0.0850  0.0160
 1140loPI   C5A18235   3.879   6.976   7.784 -0.1210 -0.3216  0.0600
 1140loPI   C6A18236   4.012   6.896   8.262  0.1583 -0.1902  0.1645
 1140loPI   C1B18237   4.001   7.593   6.271  0.0950  0.0268 -0.2153
 1140loPI   C2B18238   4.011   7.630   6.826 -0.0444  0.0149  0.0038
 1140loPI   C3B18239   3.955   7.626   7.263  0.1620  0.0180 -0.2225
 1140loPI   C4B18240   4.066   7.383   7.557  0.0157 -0.0917  0.1040
 1141loPI    C118241  15.231  12.507   5.494 -0.0025 -0.3409 -0.2194
 1141loPI    C218242  15.059  12.779   5.257  0.1013 -0.1295 -0.0551
 1141loPI    C318243  14.942  12.743   5.637  0.2896 -0.1128  0.0054
 1141loPI   PO418244  15.506  12.531   5.491 -0.3245  0.1727 -0.2724
 1141loPI   GL118245  15.558  12.728   5.906 -0.0119  0.0048 -0.2520
 1141loPI   GL218246  15.289  12.732   5.962 -0.2702  0.1369 -0.0971
 1141loPI   C1A18247  15.795  12.681   6.296  0.0499 -0.1587  0.0056
 1141loPI   C2A18248  16.122  12.687   6.612 -0.0574  0.2180  0.1651
 1141loPI   C3A18249  16.428  12.780   6.924  0.0641  0.1755 -0.2501
 1141loPI   C4A18250  16.485  12.816   7.408  0.1013 -0.0252  0.2336
 1141loPI   C5A18251  16.683  12.714   7.796  0.1527  0.1774  0.1363
 1141loPI   C6A18252  16.863  12.643   8.230  0.1370 -0.2611  0.0038
 1141loPI   C1B18253  15.337  12.751   6.414  0.2109  0.1556 -0.1064
 1141loPI   C2B18254  15.538  12.829   6.819  0.0884 -0.0716  0.1663
 1141loPI   C3B18255  15.944  12.806   7.098  0.2812  0.3621  0.0084
 1141loPI   C4B18256  15.903  12.798   7.519  0.1750 -0.4375  0.2004
 1142loPI    C118257  13.922   3.758   4.858 -0.0542 -0.1805  0.1323
 1142loPI    C218258  13.784   3.911   4.515  0.2922 -0.1145  0.0187
 1142loPI    C318259  13.613   3.585   4.672 -0.2628  0.2074  0.1080
 1142loPI   PO418260  14.159   3.892   4.984  0.0797  0.0350  0.0470
 1142loPI   GL118261  14.191   3.772   5.392  0.1514 -0.1410  0.0108
 1142loPI   GL218262  14.300   3.973   5.572 -0.0934 -0.0216  0.1673
 1142loPI   C1A18263  13.788   3.835   5.750  0.3881  0.0579 -0.1892
 1142loPI   C2A18264  13.677   4.092   6.075 -0.0955  0.0573 -0.0059
 1142loPI   C3A18265  13.850   4.331   6.420 -0.3179  0.0196 -0.2007
 1142loPI   C4A18266  13.964   4.398   6.853  0.1505  0.0522 -0.1656
 1142loPI   C5A18267  14.096   4.355   7.278 -0.1397  0.1029  0.1754
 1142loPI   C6A18268  14.261   4.398   7.659  0.0629  0.1870  0.1621
 1142loPI   C1B18269  14.236   3.930   6.063 -0.2192  0.3821  0.1828
 1142loPI   C2B18270  14.232   3.996   6.493  0.2082  0.0552 -0.2366
 1142loPI   C3B18271  14.322   3.975   6.942 -0.0471 -0.0594  0.1484
 1142loPI   C4B18272  14.472   3.972   7.355  0.0326  0.0587 -0.2539
 1143loPI    C118273   3.077   4.187   5.284  0.2232 -0.0128 -0.1427
 1143loPI    C218274   3.070   4.165   4.885  0.1137 -0.1817 -0.1328
 1143loPI    C318275   2.970   3.846   5.104 -0.0001 -0.0362  0.0299
 1143loPI   PO418276   3.146   4.458   5.371  0.1173 -0.0028  0.1913
 1143loPI   GL118277   3.008   4.593   5.744  0.2074 -0.1299 -0.1507
 1143loPI   GL218278   3.128   4.206   5.802  0.1823 -0.2630  0.1522
 1143loPI   C1A18279   2.908   4.700   6.153  0.3759 -0.0375 -0.1011
 1143loPI   C2A18280   2.876   4.827   6.614 -0.5559  0.2087 -0.0778
 1143loPI   C3A18281   2.825   4.796   7.086  0.1426 -0.1279  0.2358
 1143loPI   C4A18282   2.878   4.833   7.605  0.0813  0.0781  0.1696
 1143loPI   C5A18283   2.872   5.091   7.890 -0.1841  0.0231 -0.1837
 1143loPI   C6A18284   2.608   5.077   8.241  0.0266  0.0433 -0.0240
 1143loPI   C1B18285   3.114   4.283   6.230  0.0370 -0.0552 -0.1036
 1143loPI   C2B18286   3.094   4.363   6.645 -0.1683 -0.0840  0.1421
 1143loPI   C3B18287   3.146   4.439   7.028  0.0807  0.0663  0.3219
 1143loPI   C4B18288   3.182   4.389   7.483 -0.0122 -0.0397  0.2310
 1144loPI    C118289   7.351  12.063   5.394 -0.0897  0.0174  0.1550
 1144loPI    C218290   7.461  12.206   5.037  0.2281 -0.2190  0.1549
 1144loPI    C318291   7.259  11.861   5.061 -0.2226  0.0391  0.1778
 1144loPI   PO418292   7.469  12.247   5.576 -0.2694  0.0876  0.0205
 1144loPI   GL118293   7.442  12.253   6.012  0.1813 -0.3586  0.2979
 1144loPI   GL218294   7.088  12.207   6.032 -0.0725 -0.1133 -0.1515
 1144loPI   C1A18295   7.614  12.086   6.387 -0.1189  0.0476  0.0359
 1144loPI   C2A18296   7.742  11.925   6.649  0.0972 -0.3535 -0.2691
 1144loPI   C3A18297   7.891  11.743   6.944 -0.2089 -0.0356 -0.0346
 1144loPI   C4A18298   8.180  11.781   7.300 -0.4133  0.1340 -0.1414
 1144loPI   C5A18299   8.060  11.649   7.668  0.1906 -0.1020 -0.3620
 1144loPI   C6A18300   8.053  11.458   8.112  0.4256  0.0722  0.1037
 1144loPI   C1B18301   7.092  12.209   6.452  0.0137 -0.0873  0.3690
 1144loPI   C2B18302   6.960  12.182   6.804  0.0637 -0.0081 -0.1333
 1144loPI   C3B18303   6.949  11.882   7.140  0.0271  0.2300 -0.1843
 1144loPI   C4B18304   7.126  11.768   7.454  0.3109 -0.0512  0.1290
 1145loPI    C118305  15.681   9.772   5.416  0.0111  0.1495 -0.2079
 1145loPI    C218306  15.927   9.469   5.332  0.0795  0.1472 -0.0066
 1145loPI    C318307  15.642   9.573   5.071  0.2127  0.0696 -0.1859
 1145loPI   PO418308  15.586   9.730   5.598 -0.2582 -0.0686  0.1499
 1145loPI   GL118309  15.527   9.704   5.966  0.1931 -0.1306  0.0076
 1145loPI   GL218310  15.183   9.769   6.097 -0.3049 -0.3864  0.2330
 1145loPI   C1A18311  15.682   9.640   6.469 -0.2206 -0.2569  0.2305
 1145loPI   C2A18312  15.775   9.677   6.885 -0.0023 -0.2038  0.1132
 1145loPI   C3A18313  15.777   9.607   7.259  0.1229 -0.2483 -0.0995
 1145loPI   C4A18314  15.870   9.610   7.685  0.0814 -0.2286 -0.1562
 1145loPI   C5A18315  15.932   9.540   8.106  0.1169  0.3392 -0.1769
 1145loPI   C6A18316  16.096   9.676   8.462 -0.2132  0.1345 -0.0093
 1145loPI   C1B18317  15.169   9.618   6.496 -0.2841 -0.1220  0.1042
 1145loPI   C2B18318  15.300   9.637   6.835 -0.2387 -0.2566 -0.2984
 1145loPI   C3B18319  15.305   9.542   7.224 -0.0038 -0.1921  0.0941
 1145loPI   C4B18320  15.270   9.464   7.681 -0.0837  0.0023  0.0647
 1146loPI    C118321   9.229   2.555   4.915  0.0505  0.1303  0.2318
 1146loPI    C218322   9.589   2.414   4.811 -0.1054  0.0254 -0.1890
 1146loPI    C318323   9.298   2.161   4.918 -0.1202  0.0950 -0.0620
 1146loPI   PO418324   9.258   2.753   5.066 -0.2147 -0.3597 -0.2146
 1146loPI   GL118325   9.159   2.811   5.492 -0.0836 -0.0224  0.1325
 1146loPI   GL218326   8.894   2.777   5.691  0.0657  0.2397  0.1145
 1146loPI   C1A18327   9.385   2.790   5.852  0.0992 -0.2643 -0.2489
 1146loPI   C2A18328   9.521   2.954   6.280 -0.2225  0.0354 -0.1175
 1146loPI   C3A18329   9.545   3.098   6.773 -0.2194  0.3951  0.1616
 1146loPI   C4A18330   9.655   3.086   7.284 -0.0057 -0.0828 -0.1335
 1146loPI   C5A18331   9.927   2.897   7.506 -0.0029 -0.0709 -0.0487
 1146loPI   C6A18332  10.018   2.469   7.694  0.0582 -0.0876  0.3242
 1146loPI   C1B18333   8.990   2.673   6.083 -0.0182 -0.0163  0.2752
 1146loPI   C2B18334   9.242   2.610   6.552  0.6096 -0.0882 -0.3067
 1146loPI   C3B18335   9.171   2.869   6.991  0.0536  0.0706 -0.0145
 1146loPI   C4B18336   9.186   2.929   7.398  0.1973  0.0992  0.0519
 1147loPI    C118337   2.707  15.041   5.045 -0.0927 -0.0235 -0.0245
 1147loPI    C218338   2.748  14.859   4.691 -0.0661 -0.0203 -0.0230
 1147loPI    C318339   2.529  15.192   4.720 -0.1193 -0.0550 -0.0248
 1147loPI   PO418340   2.878  15.250   5.153  0.1720 -0.2776 -0.0794
 1147loPI   GL118341   3.195  15.450   5.430  0.0035  0.3391 -0.2606
 1147loPI   GL218342   2.886  15.464   5.619  0.3656 -0.0129 -0.0361
 1147loPI   C1A18343   3.296  15.471   5.905 -0.0964 -0.1685  0.0189
 1147loPI   C2A18344   3.235  15.555   6.248  0.1516  0.0766  0.0210
 1147loPI   C3A18345   3.075  15.588   6.666  0.0679 -0.2386 -0.0140
 1147loPI   C4A18346   3.128  15.545   7.140 -0.3583 -0.0393  0.1219
 1147loPI   C5A18347   3.346  15.633   7.523  0.0521  0.1163 -0.0898
 1147loPI   C6A18348   3.598  15.400   7.821  0.2399  0.2567  0.1726
 1147loPI   C1B18349   2.733  15.487   6.075 -0.0316 -0.0409  0.0094
 1147loPI   C2B18350   2.610  15.539   6.511  0.1046 -0.1298 -0.2345
 1147loPI   C3B18351   2.654  15.496   6.938  0.1747  0.1836 -0.1995
 1147loPI   C4B18352   2.687  15.537   7.398 -0.1768 -0.0514 -0.2778
 1148loPI    C118353  16.590   2.006   5.047 -0.1505  0.0255  0.0116
 1148loPI    C218354  16.738   1.729   4.799  0.0275 -0.0321  0.1791
 1148loPI    C318355  16.560   2.056   4.651 -0.1735 -0.2275 -0.0207
 1148loPI   PO418356  16.477   1.874   5.221 -0.1617 -0.0052 -0.4126
 1148loPI   GL118357  16.701   1.644   5.478 -0.2206  0.0194 -0.0714
 1148loPI   GL218358  16.910   1.906   5.569  0.0185  0.2516 -0.0170
 1148loPI   C1A18359  16.580   1.576   5.840 -0.0886 -0.1351  0.1505
 1148loPI   C2A18360  16.597   1.333   6.205  0.2119 -0.2317  0.0308
 1148loPI   C3A18361  16.556   1.214   6.695 -0.2413  0.1574  0.0968
 1148loPI   C4A18362  16.577   1.306   7.118 -0.1398  0.0256 -0.2655
 1148loPI   C5A18363  16.472   1.274   7.569  0.3123  0.2793  0.1429
 1148loPI   C6A18364  16.556   1.260   8.001  0.0415  0.0337 -0.4219
 1148loPI   C1B18365  16.960   1.859   5.982  0.1955 -0.0108  0.2172
 1148loPI   C2B18366  16.783   1.766   6.394 -0.0118 -0.0780  0.0637
 1148loPI   C3B18367  16.750   1.722   6.802 -0.2340  0.2883 -0.0453
 1148loPI   C4B18368  16.855   1.710   7.262  0.1728 -0.0291 -0.1770
 1149loPI    C118369   5.326   6.339   5.313 -0.2048 -0.0569 -0.0759
 1149loPI    C218370   5.123   6.070   5.528  0.0573 -0.0127  0.2356
 1149loPI    C318371   5.397   5.948   5.264 -0.1114 -0.0604  0.0801
 1149loPI   PO418372   5.205   6.578   5.371 -0.0935 -0.1285 -0.2120
 1149loPI   GL118373   5.034   6.835   5.663 -0.2273 -0.0521 -0.1586
 1149loPI   GL218374   4.681   6.815   5.577  0.0478  0.4834 -0.0360
 1149loPI   C1A18375   5.208   6.807   6.062 -0.1236 -0.1503 -0.1145
 1149loPI   C2A18376   5.180   6.830   6.476 -0.0204 -0.0979 -0.0578
 1149loPI   C3A18377   5.180   6.827   6.868  0.0141 -0.0672  0.2570
 1149loPI   C4A18378   5.184   7.026   7.267  0.1945 -0.1123  0.1294
 1149loPI   C5A18379   5.224   7.126   7.801  0.1758  0.0275  0.1217
 1149loPI   C6A18380   5.021   7.505   8.196  0.0871  0.3693 -0.0314
 1149loPI   C1B18381   4.820   6.406   5.764 -0.0441  0.0097  0.0368
 1149loPI   C2B18382   5.038   6.238   6.135  0.1684 -0.1800 -0.0606
 1149loPI   C3B18383   4.964   6.426   6.643 -0.1022 -0.0952 -0.0367
 1149loPI   C4B18384   5.076   6.377   7.118  0.5618 -0.0589  0.1122
 1150loPI    C118385  12.063   8.878   5.595  0.0086  0.0146 -0.2149
 1150loPI    C218386  11.723   8.796   5.400  0.0001  0.0170 -0.2011
 1150loPI    C318387  11.888   8.521   5.640 -0.1554  0.1236  0.0312
 1150loPI   PO418388  12.050   9.065   5.706 -0.0048  0.2750 -0.1095
 1150loPI   GL118389  11.806   9.092   6.161 -0.2128  0.0158  0.5258
 1150loPI   GL218390  11.636   8.837   5.984 -0.0973 -0.1057  0.2495
 1150loPI   C1A18391  11.582   9.450   6.226  0.1357  0.0754  0.0426
 1150loPI   C2A18392  11.542   9.882   6.436  0.0146 -0.0877 -0.0376
 1150loPI   C3A18393  11.409  10.141   6.700  0.1343  0.1175  0.0286
 1150loPI   C4A18394  11.219  10.105   7.124 -0.0178 -0.0327 -0.3428
 1150loPI   C5A18395  11.342  10.299   7.574  0.1074  0.1620  0.0010
 1150loPI   C6A18396  11.775  10.300   7.752  0.2542  0.2489  0.0513
 1150loPI   C1B18397  11.221   8.968   6.068 -0.3309 -0.0672 -0.2484
 1150loPI   C2B18398  11.089   9.124   6.506 -0.1542 -0.1746 -0.0570
 1150loPI   C3B18399  10.737   9.328   6.807 -0.2352  0.0917  0.0934
 1150loPI   C4B18400  10.306   9.439   6.907  0.1285 -0.0130  0.0780
 1151loPI    C118401   7.928  17.526   5.194  0.0829  0.1569  0.3108
 1151loPI    C218402   7.993  17.326   4.854 -0.3559  0.3414  0.1095
 1151loPI    C318403   8.137  17.696   4.899 -0.0521  0.2101  0.2447
 1151loPI   PO418404   8.069  17.413   5.363 -0.0893 -0.2940  0.0542
 1151loPI   GL118405   7.944  17.360   5.736  0.1215  0.0332 -0.0478
 1151loPI   GL218406   7.698  17.476   5.807  0.4879 -0.0660 -0.2001
 1151loPI   C1A18407   7.970  17.185   6.121  0.1200 -0.1893 -0.0458
 1151loPI   C2A18408   8.044  17.187   6.533  0.1481 -0.0498 -0.0453
 1151loPI   C3A18409   7.966  17.256   6.969 -0.0609 -0.2037  0.5095
 1151loPI   C4A18410   7.809  17.235   7.427  0.0909 -0.2316 -0.2492
 1151loPI   C5A18411   7.487  16.953   7.666 -0.0209 -0.0904 -0.0995
 1151loPI   C6A18412   7.492  16.610   7.847  0.1806 -0.0007 -0.1895
 1151loPI   C1B18413   7.641  17.558   6.286  0.0458 -0.1180  0.1970
 1151loPI   C2B18414   7.664  17.606   6.698 -0.0918  0.0701  0.2151
 1151loPI   C3B18415   7.630  17.707   7.091  0.0688  0.1218  0.4050
 1151loPI   C4B18416   7.601  17.767   7.514  0.0950 -0.0742  0.1777
 1152loPI    C118417  14.127   3.408   5.117 -0.2595  0.1477 -0.0585
 1152loPI    C218418  13.844   3.228   4.901 -0.2737  0.3024 -0.1706
 1152loPI    C318419  14.179   3.356   4.724 -0.1431  0.1419 -0.0427
 1152loPI   PO418420  13.999   3.269   5.400  0.1841  0.1459 -0.0037
 1152loPI   GL118421  13.994   3.223   5.869  0.1380 -0.0295 -0.0394
 1152loPI   GL218422  14.163   3.499   5.845 -0.1577  0.2170 -0.2874
 1152loPI   C1A18423  13.913   3.009   6.189  0.0501 -0.1190 -0.2768
 1152loPI   C2A18424  13.872   3.157   6.593 -0.1924  0.1559 -0.0580
 1152loPI   C3A18425  14.015   3.038   7.082 -0.3283  0.2298 -0.1714
 1152loPI   C4A18426  13.983   3.288   7.486  0.0181  0.0312  0.0027
 1152loPI   C5A18427  14.037   3.585   7.881  0.1199  0.1334  0.1566
 1152loPI   C6A18428  14.151   4.006   7.952  0.1988  0.0339 -0.0897
 1152loPI   C1B18429  14.118   3.502   6.291  0.1702 -0.1006  0.1405
 1152loPI   C2B18430  14.142   3.580   6.759 -0.0500 -0.1670 -0.1279
 1152loPI   C3B18431  14.211   3.485   7.126 -0.2764  0.2452  0.0469
 1152loPI   C4B18432  14.412   3.470   7.502 -0.1476 -0.1703 -0.0664
 1153loPI    C118433  13.875   1.857   5.206  0.0198  0.0149 -0.1340
 1153loPI    C218434  14.275   1.870   5.212  0.0235 -0.0758 -0.1684
 1153loPI    C318435  14.086   1.671   4.922 -0.0426 -0.1999 -0.0415
 1153loPI   PO418436  13.855   1.841   5.511 -0.1809 -0.0345  0.0114
 1153loPI   GL118437  13.962   1.636   5.900 -0.0371 -0.0359  0.3186
 1153loPI   GL218438  14.247   1.411   6.101  0.1233  0.1345  0.1233
 1153loPI   C1A18439  13.873   1.712   6.334 -0.0801  0.0709 -0.3071
 1153loPI   C2A18440  13.838   1.738   6.821  0.1790  0.0806  0.1285
 1153loPI   C3A18441  13.860   1.837   7.230 -0.1348 -0.3542  0.1259
 1153loPI   C4A18442  13.918   1.885   7.670  0.1935 -0.1783 -0.0407
 1153loPI   C5A18443  13.738   1.968   8.125  0.1440 -0.1446  0.1134
 1153loPI   C6A18444  13.398   1.729   8.410  0.3005  0.0061  0.1813
 1153loPI   C1B18445  14.154   1.323   6.553  0.1830  0.2516 -0.2820
 1153loPI   C2B18446  14.096   1.347   6.985  0.0887 -0.1744 -0.0451
 1153loPI   C3B18447  14.046   1.428   7.430  0.0367 -0.0316  0.1228
 1153loPI   C4B18448  13.844   1.430   7.770 -0.1362  0.2723  0.0097
 1154loPI    C118449  14.792  10.663   5.766  0.0057 -0.1595  0.1751
 1154loPI    C218450  14.858  10.938   6.049  0.1816  0.0823 -0.0953
 1154loPI    C318451  14.762  11.052   5.678  0.2412 -0.2229 -0.2075
 1154loPI   PO418452  14.945  10.509   5.772 -0.1234  0.0487 -0.0085
 1154loPI   GL118453  15.252  10.544   6.131 -0.1094 -0.0581  0.3618
 1154loPI   GL218454  15.520  10.518   5.976 -0.0594 -0.1385 -0.0106
 1154loPI   C1A18455  15.250  10.559   6.599  0.3686 -0.2592  0.1212
 1154loPI   C2A18456  15.169  10.463   7.047  0.1928 -0.1834  0.3468
 1154loPI   C3A18457  15.317  10.496   7.501 -0.0173 -0.1994 -0.0364
 1154loPI   C4A18458  15.364  10.411   7.942  0.2028  0.2364 -0.1157
 1154loPI   C5A18459  15.248  10.010   8.169  0.1005 -0.0946 -0.0042
 1154loPI   C6A18460  15.160   9.604   8.226 -0.3062 -0.0153  0.2223
 1154loPI   C1B18461  15.735  10.597   6.393 -0.0053  0.1834  0.4707
 1154loPI   C2B18462  15.761  10.527   6.791 -0.1844 -0.0966  0.2810
 1154loPI   C3B18463  15.713  10.519   7.259  0.2387 -0.0924 -0.2140
 1154loPI   C4B18464  15.755  10.388   7.666  0.0333 -0.0505  0.3754
 1155loPI    C118465   1.415   6.961   5.423 -0.1503 -0.0465 -0.1555
 1155loPI    C218466   1.380   6.795   5.061 -0.0493  0.0324 -0.2021
 1155loPI    C318467   1.239   7.163   5.127 -0.0635  0.0198 -0.1622
 1155loPI   PO418468   1.429   6.728   5.589  0.1236 -0.1189 -0.1013
 1155loPI   GL118469   1.519   6.513   5.973 -0.0112 -0.0081  0.0996
 1155loPI   GL218470   1.316   6.748   6.051  0.3308  0.0017 -0.0803
 1155loPI   C1A18471   1.633   6.419   6.399 -0.1085  0.1721 -0.0936
 1155loPI   C2A18472   1.582   6.435   6.863  0.1821 -0.2430  0.0282
 1155loPI   C3A18473   1.553   6.415   7.347 -0.1995 -0.0923 -0.2540
 1155loPI   C4A18474   1.562   6.550   7.753 -0.0670 -0.0643  0.2701
 1155loPI   C5A18475   1.611   6.823   8.037  0.0212  0.0910  0.1990
 1155loPI   C6A18476   1.750   7.155   7.955 -0.0067 -0.0263  0.1211
 1155loPI   C1B18477   1.262   6.832   6.465 -0.0049  0.0890  0.3328
 1155loPI   C2B18478   1.252   6.872   6.907 -0.3623 -0.0138  0.1715
 1155loPI   C3B18479   1.262   6.871   7.343  0.2323  0.0927  0.2129
 1155loPI   C4B18480   1.258   7.053   7.751 -0.1303 -0.1170  0.3619
 1156loPI    C118481   5.186  16.489   4.408  0.1135  0.2246 -0.1722
 1156loPI    C218482   4.986  16.170   4.273  0.1621  0.1190  0.0014
 1156loPI    C318483   5.089  16.463   4.021 -0.2197  0.1814 -0.0885
 1156loPI   PO418484   5.079  16.570   4.596  0.2554  0.0013 -0.0469
 1156loPI   GL118485   4.950  16.645   5.003  0.2190  0.1772  0.1837
 1156loPI   GL218486   4.885  16.372   5.223 -0.3078  0.2476 -0.3021
 1156loPI   C1A18487   4.957  16.888   5.432 -0.3137 -0.3511 -0.5039
 1156loPI   C2A18488   4.941  17.000   5.874  0.1975  0.0757  0.1554
 1156loPI   C3A18489   4.878  16.963   6.360 -0.1474 -0.0439 -0.2392
 1156loPI   C4A18490   4.848  16.996   6.765 -0.1652 -0.1169  0.0268
 1156loPI   C5A18491   4.909  16.937   7.149  0.2564 -0.3543 -0.0917
 1156loPI   C6A18492   5.018  16.873   7.515 -0.3326 -0.1765 -0.3607
 1156loPI   C1B18493   4.766  16.506   5.687  0.0306 -0.1088  0.0115
 1156loPI   C2B18494   4.756  16.506   6.179  0.4235  0.0795  0.0158
 1156loPI   C3B18495   4.707  16.559   6.536 -0.1898  0.3661  0.1367
 1156loPI   C4B18496   4.771  16.504   6.944  0.1403  0.1041 -0.0135
 1157loPI    C118497   1.460   5.489   5.211  0.4524  0.0166 -0.0640
 1157loPI    C218498   1.410   5.820   5.429 -0.4184 -0.1198 -0.0239
 1157loPI    C318499   1.497   5.848   5.040 -0.2814  0.1479  0.0237
 1157loPI   PO418500   1.285   5.342   5.370  0.0673  0.1133  0.2536
 1157loPI   GL118501   1.011   5.599   5.725 -0.0139 -0.2173  0.1974
 1157loPI   GL218502   1.208   5.424   5.871  0.0324 -0.3205  0.0327
 1157loPI   C1A18503   0.901   5.776   6.041  0.3005  0.1192  0.0707
 1157loPI   C2A18504   0.936   5.859   6.472  0.1349 -0.0078  0.0304
 1157loPI   C3A18505   0.874   5.882   6.942  0.0328 -0.0852 -0.3626
 1157loPI   C4A18506   0.920   5.911   7.405  0.0968  0.1332  0.1263
 1157loPI   C5A18507   0.831   5.862   7.802 -0.4929 -0.2053 -0.2261
 1157loPI   C6A18508   0.731   5.719   8.122 -0.0768 -0.1106 -0.1841
 1157loPI   C1B18509   1.270   5.442   6.288  0.0384 -0.0715  0.0080
 1157loPI   C2B18510   1.186   5.501   6.731 -0.1359  0.0029 -0.0150
 1157loPI   C3B18511   1.188   5.503   7.214  0.0378  0.1827  0.1087
 1157loPI   C4B18512   1.191   5.511   7.640 -0.2227  0.0578  0.1654
 1158loPI    C118513   5.437  14.292   4.573 -0.2370 -0.1075  0.2545
 1158loPI    C218514   5.281  14.449   4.240 -0.0982 -0.1354  0.1752
 1158loPI    C318515   5.440  14.082   4.233  0.1711 -0.0213  0.1990
 1158loPI   PO418516   5.478  14.379   4.854 -0.2880  0.3678 -0.2651
 1158loPI   GL118517   5.366  14.262   5.234 -0.0435  0.0249 -0.1191
 1158loPI   GL218518   5.500  14.592   5.504 -0.1255  0.1459 -0.0486
 1158loPI   C1A18519   5.169  14.178   5.670  0.0593 -0.0616 -0.3328
 1158loPI   C2A18520   5.162  14.267   6.092 -0.3274  0.2277  0.3062
 1158loPI   C3A18521   5.154  14.334   6.560 -0.1162  0.1290  0.0477
 1158loPI   C4A18522   4.955  14.238   6.976 -0.0470  0.0492 -0.0887
 1158loPI   C5A18523   4.884  13.814   6.968 -0.0853 -0.0575 -0.0302
 1158loPI   C6A18524   4.632  13.482   7.219 -0.2210 -0.1835  0.0656
 1158loPI   C1B18525   5.411  14.737   5.929 -0.0400  0.2060  0.1358
 1158loPI   C2B18526   5.338  14.754   6.398  0.2088 -0.0462  0.1275
 1158loPI   C3B18527   5.247  14.802   6.863  0.1602 -0.0198  0.5290
 1158loPI   C4B18528   5.385  14.935   7.313 -0.0268 -0.1826 -0.0168
 1159loPI    C118529   8.866   6.271   5.094  0.0635  0.0138 -0.1582
 1159loPI    C218530   8.738   5.897   5.037 -0.2906  0.1256 -0.1179
 1159loPI    C318531   8.714   6.164   4.740  0.0076  0.1060 -0.1625
 1159loPI   PO418532   8.800   6.385   5.326  0.0073  0.0409 -0.1836
 1159loPI   GL118533   8.587   6.419   5.697  0.1490  0.1834 -0.6154
 1159loPI   GL218534   8.972   6.361   5.798 -0.1176  0.0621  0.1490
 1159loPI   C1A18535   8.619   6.376   6.265  0.0420  0.1945 -0.0445
 1159loPI   C2A18536   8.557   6.217   6.656  0.5368  0.0914  0.3433
 1159loPI   C3A18537   8.377   6.222   7.057 -0.0229 -0.2056  0.4691
 1159loPI   C4A18538   8.061   6.346   7.414 -0.1310 -0.1262 -0.0573
 1159loPI   C5A18539   7.713   6.236   7.532  0.0867  0.0330 -0.0445
 1159loPI   C6A18540   7.337   6.112   7.638  0.0506  0.2254  0.3146
 1159loPI   C1B18541   9.032   6.054   6.128  0.0257  0.2908 -0.1455
 1159loPI   C2B18542   9.046   6.135   6.614 -0.2959 -0.1986 -0.2059
 1159loPI   C3B18543   8.978   6.101   7.083  0.1939 -0.2017  0.1230
 1159loPI   C4B18544   9.015   5.916   7.474  0.0614  0.0855  0.1714
 1160loPI    C118545   6.996   7.796   5.048 -0.1641 -0.0756 -0.0221
 1160loPI    C218546   7.249   7.998   4.813  0.0621 -0.0919  0.2037
 1160loPI    C318547   7.092   7.653   4.687 -0.3057  0.2027 -0.1734
 1160loPI   PO418548   6.809   8.008   5.153  0.3141 -0.2908 -0.0208
 1160loPI   GL118549   6.570   8.031   5.527 -0.1546  0.1162  0.1605
 1160loPI   GL218550   6.869   8.045   5.636 -0.2673 -0.1268 -0.1696
 1160loPI   C1A18551   6.306   8.096   5.895 -0.1672 -0.2223 -0.1352
 1160loPI   C2A18552   6.103   8.127   6.279  0.2960  0.0261 -0.2050
 1160loPI   C3A18553   6.099   8.223   6.749 -0.0698 -0.0723  0.0296
 1160loPI   C4A18554   6.073   8.225   7.263 -0.2862  0.1351  0.3124
 1160loPI   C5A18555   5.947   8.294   7.658  0.1803 -0.0242 -0.3055
 1160loPI   C6A18556   6.040   8.602   8.000 -0.1042  0.0493 -0.1807
 1160loPI   C1B18557   6.801   8.034   5.990  0.0267 -0.0775 -0.0887
 1160loPI   C2B18558   6.722   8.230   6.276  0.1123  0.2889  0.0138
 1160loPI   C3B18559   6.584   8.027   6.594  0.0120  0.1946 -0.0617
 1160loPI   C4B18560   6.608   8.148   6.927 -0.0178  0.1764 -0.1097
 1161loPI    C118561   6.785   8.482   5.220 -0.1128 -0.1138  0.0037
 1161loPI    C218562   6.991   8.401   4.887  0.2080  0.1318  0.1377
 1161loPI    C318563   6.666   8.634   4.870 -0.0432 -0.2235 -0.0683
 1161loPI   PO418564   6.886   8.504   5.422 -0.1316 -0.3083  0.3320
 1161loPI   GL118565   7.017   8.505   5.820  0.2283  0.1014 -0.0474
 1161loPI   GL218566   6.664   8.608   5.896  0.2855 -0.2042 -0.1113
 1161loPI   C1A18567   7.457   8.398   5.868 -0.1239 -0.2009  0.1071
 1161loPI   C2A18568   7.751   8.513   6.235  0.0553  0.1189 -0.0973
 1161loPI   C3A18569   7.674   8.268   6.468 -0.2323  0.1455 -0.2289
 1161loPI   C4A18570   7.810   8.532   6.820  0.1822  0.2486  0.2225
 1161loPI   C5A18571   7.921   8.418   7.283  0.0892 -0.2605  0.1172
 1161loPI   C6A18572   7.847   8.526   7.704 -0.0926  0.1085 -0.1726
 1161loPI   C1B18573   6.800   8.776   6.220  0.1241  0.0430 -0.0610
 1161loPI   C2B18574   6.759   8.961   6.613 -0.2105 -0.2797  0.1743
 1161loPI   C3B18575   6.611   8.902   7.060 -0.1449 -0.0703 -0.2971
 1161loPI   C4B18576   6.321   8.950   7.426  0.2780 -0.1201 -0.0706
 1162loPI    C118577  16.136   8.997   5.146  0.2083 -0.0739  0.2294
 1162loPI    C218578  16.396   8.748   4.971 -0.0275 -0.0895 -0.1081
 1162loPI    C318579  16.007   8.655   4.985 -0.0912  0.1729 -0.0708
 1162loPI   PO418580  16.249   9.034   5.424  0.0440 -0.2213  0.0058
 1162loPI   GL118581  16.304   8.958   5.759 -0.0113 -0.0896 -0.0504
 1162loPI   GL218582  16.472   8.812   6.026  0.0670  0.0601  0.0248
 1162loPI   C1A18583  16.001   8.917   6.077  0.0292 -0.1788  0.0229
 1162loPI   C2A18584  15.902   8.852   6.544  0.1490 -0.0810  0.2476
 1162loPI   C3A18585  15.996   8.785   6.959 -0.1215  0.0637 -0.4389
 1162loPI   C4A18586  16.017   8.809   7.380  0.0324  0.2484 -0.2192
 1162loPI   C5A18587  16.025   8.693   7.781 -0.0200  0.1807 -0.1365
 1162loPI   C6A18588  15.790   8.798   8.229 -0.2474  0.2199 -0.0655
 1162loPI   C1B18589  16.265   8.518   6.318 -0.4167 -0.3130  0.0867
 1162loPI   C2B18590  16.257   8.460   6.761  0.0958  0.0694 -0.0142
 1162loPI   C3B18591  16.285   8.428   7.211  0.0906  0.0890 -0.2399
 1162loPI   C4B18592  16.281   8.313   7.633 -0.2128 -0.0758 -0.1003
 1163loPI    C118593   9.932  15.761   5.035 -0.0994 -0.1803 -0.0553
 1163loPI    C218594  10.314  15.647   5.010 -0.1002 -0.1698 -0.1190
 1163loPI    C318595  10.084  15.648   4.683 -0.0890  0.0529 -0.1273
 1163loPI   PO418596   9.943  15.880   5.212  0.0352 -0.1096 -0.1671
 1163loPI   GL118597   9.781  16.001   5.617 -0.0246 -0.2959 -0.2423
 1163loPI   GL218598   9.837  15.684   5.835 -0.0921 -0.3668 -0.2624
 1163loPI   C1A18599   9.762  16.279   5.925 -0.0187 -0.2160 -0.0176
 1163loPI   C2A18600   9.672  16.281   6.374 -0.0918 -0.0372  0.2010
 1163loPI   C3A18601   9.543  16.355   6.813 -0.4570 -0.3826 -0.0841
 1163loPI   C4A18602   9.454  16.411   7.230  0.0498  0.0214  0.1215
 1163loPI   C5A18603   9.405  16.260   7.682 -0.0998 -0.1102 -0.4670
 1163loPI   C6A18604   9.441  15.944   8.159 -0.1752 -0.0079 -0.0982
 1163loPI   C1B18605   9.886  15.891   6.226 -0.3740 -0.0313  0.1242
 1163loPI   C2B18606   9.896  15.929   6.684 -0.0113 -0.2107  0.0359
 1163loPI   C3B18607   9.756  15.943   7.180  0.0338  0.1238 -0.0476
 1163loPI   C4B18608   9.775  15.900   7.627 -0.2141  0.0992 -0.1648
 1164loPI    C118609  17.413   6.838   5.224  0.3033 -0.2461 -0.0045
 1164loPI    C218610  17.254   6.510   5.059 -0.1104 -0.0403 -0.0255
 1164loPI    C318611  17.395   6.804   4.826  0.3053 -0.2191 -0.0070
 1164loPI   PO418612  17.596   6.740   5.379 -0.2173 -0.2528  0.0322
 1164loPI   GL118613  17.929   6.877   5.654  0.0500 -0.0539  0.0905
 1164loPI   GL218614  17.945   6.524   5.701 -0.1956 -0.1570  0.1129
 1164loPI   C1A18615  17.757   6.954   6.094 -0.1341 -0.1837 -0.1263
 1164loPI   C2A18616  17.649   7.004   6.456 -0.0876  0.0533 -0.0568
 1164loPI   C3A18617  17.713   7.039   6.915 -0.1827 -0.3011  0.1291
 1164loPI   C4A18618  17.741   7.130   7.276  0.1133 -0.2337 -0.1830
 1164loPI   C5A18619  17.875   7.107   7.883  0.2004  0.1405  0.1295
 1164loPI   C6A18620  18.200   6.821   7.990  0.3007 -0.0966 -0.0609
 1164loPI   C1B18621  18.087   6.579   6.116  0.4427 -0.1805  0.2937
 1164loPI   C2B18622  17.906   6.602   6.497 -0.3588  0.0376 -0.1619
 1164loPI   C3B18623  18.030   6.666   6.978 -0.1156  0.2098  0.1004
 1164loPI   C4B18624  18.036   6.667   7.446 -0.1103 -0.2669 -0.0992
 1165loPI    C118625  16.285   8.523   5.395  0.0864 -0.0052 -0.0732
 1165loPI    C218626  15.956   8.297   5.376  0.0240  0.0657  0.1411
 1165loPI    C318627  15.927   8.684   5.471  0.1479  0.1245 -0.0563
 1165loPI   PO418628  16.466   8.298   5.534  0.2844 -0.3540 -0.2660
 1165loPI   GL118629  16.618   8.234   5.889  0.1600 -0.1796  0.0118
 1165loPI   GL218630  16.597   8.076   6.119  0.2340  0.0467  0.1770
 1165loPI   C1A18631  16.144   8.027   6.214  0.2014 -0.0688  0.0051
 1165loPI   C2A18632  15.989   8.060   6.582 -0.2649  0.1944  0.1671
 1165loPI   C3A18633  16.125   8.005   7.073 -0.1546  0.0522 -0.0569
 1165loPI   C4A18634  16.055   7.894   7.463  0.2359 -0.1036  0.1456
 1165loPI   C5A18635  16.105   7.834   7.878 -0.2046 -0.0386  0.1338
 1165loPI   C6A18636  16.305   7.873   8.350 -0.2337  0.0516 -0.3791
 1165loPI   C1B18637  16.603   8.120   6.549 -0.2243 -0.2576  0.3583
 1165loPI   C2B18638  16.723   8.294   6.867 -0.0481 -0.0168 -0.2230
 1165loPI   C3B18639  16.811   8.393   7.240  0.0716 -0.2356 -0.2242
 1165loPI   C4B18640  16.842   8.382   7.670  0.4973  0.1735 -0.1818
 1166loPI    C118641   8.636  14.531   5.634 -0.2347  0.0176 -0.0671
 1166loPI    C218642   8.886  14.277   5.452 -0.0077  0.1557  0.0474
 1166loPI    C318643   8.734  14.588   5.251 -0.0277  0.1149 -0.0008
 1166loPI   PO418644   8.578  14.478   5.781 -0.0848 -0.0644 -0.0214
 1166loPI   GL118645   8.573  14.453   6.154  0.2167 -0.0576  0.0836
 1166loPI   GL218646   8.858  14.115   6.103  0.2195  0.0107  0.0761
 1166loPI   C1A18647   8.651  14.453   6.552 -0.1049  0.1691  0.1386
 1166loPI   C2A18648   8.568  14.515   6.913  0.1973  0.2735 -0.1047
 1166loPI   C3A18649   8.623  14.491   7.312 -0.1839 -0.3508  0.0455
 1166loPI   C4A18650   8.616  14.647   7.770  0.1339  0.3014  0.0638
 1166loPI   C5A18651   9.055  14.453   8.051  0.2745  0.2685 -0.0714
 1166loPI   C6A18652   9.324  14.195   8.399 -0.0259 -0.1124 -0.0125
 1166loPI   C1B18653   8.637  13.943   6.528  0.1440  0.0905 -0.2127
 1166loPI   C2B18654   8.517  14.021   6.914 -0.0180  0.0135 -0.2432
 1166loPI   C3B18655   8.626  14.016   7.334 -0.1549  0.2113  0.1747
 1166loPI   C4B18656   8.829  14.095   7.814 -0.1090  0.2030 -0.2055
 1167loPI    C118657   8.398   1.321   4.966 -0.1271 -0.1725 -0.1564
 1167loPI    C218658   8.455   1.714   5.018 -0.0313 -0.1710 -0.2690
 1167loPI    C318659   8.140   1.583   4.808 -0.1523 -0.1608 -0.0963
 1167loPI   PO418660   8.424   1.151   5.254  0.1150  0.0491  0.1661
 1167loPI   GL118661   8.474   1.032   5.701 -0.2303  0.1733 -0.0476
 1167loPI   GL218662   8.588   0.823   5.837  0.3140  0.1301 -0.0207
 1167loPI   C1A18663   8.375   1.405   5.952  0.1183  0.3768 -0.1306
 1167loPI   C2A18664   8.346   1.541   6.413 -0.1810  0.1270 -0.0976
 1167loPI   C3A18665   8.364   1.679   6.880  0.4355 -0.2517 -0.1396
 1167loPI   C4A18666   8.401   1.684   7.316  0.1674 -0.0280 -0.3678
 1167loPI   C5A18667   8.546   1.623   7.805  0.1989 -0.0877  0.2144
 1167loPI   C6A18668   9.022   1.859   7.911 -0.0800  0.0741 -0.0474
 1167loPI   C1B18669   8.599   1.085   6.263  0.0986  0.0029  0.1508
 1167loPI   C2B18670   8.621   1.238   6.685  0.0295  0.2872  0.0604
 1167loPI   C3B18671   8.534   1.247   7.153  0.0426  0.2433 -0.0086
 1167loPI   C4B18672   8.706   1.172   7.544 -0.0585 -0.1825 -0.1142
 1168loPI    C118673   0.693   7.534   5.120 -0.0608  0.4373  0.0192
 1168loPI    C218674   0.835   7.296   4.831 -0.0717  0.1315  0.2615
 1168loPI    C318675   0.513   7.523   4.763  0.0466  0.2154 -0.0302
 1168loPI   PO418676   0.810   7.389   5.331  0.1826 -0.2890  0.1898
 1168loPI   GL118677   0.656   7.416   5.807  0.3093 -0.1084 -0.2155
 1168loPI   GL218678   0.519   7.155   5.990 -0.2297 -0.1779  0.0234
 1168loPI   C1A18679   0.657   7.547   6.297  0.2628  0.0548 -0.2749
 1168loPI   C2A18680   0.593   7.555   6.727 -0.1922  0.0113 -0.0900
 1168loPI   C3A18681   0.501   7.707   7.127  0.3331 -0.0442 -0.1118
 1168loPI   C4A18682   0.588   7.670   7.527  0.0269 -0.0939 -0.1300
 1168loPI   C5A18683   0.710   7.822   7.941  0.2237  0.1267  0.0715
 1168loPI   C6A18684   0.683   7.679   8.360 -0.0433  0.0345  0.1484
 1168loPI   C1B18685   0.310   7.161   6.478 -0.2154 -0.0447  0.1022
 1168loPI   C2B18686   0.336   7.143   6.850 -0.0946  0.1088  0.0855
 1168loPI   C3B18687   0.416   7.213   7.301 -0.1795  0.0275  0.1417
 1168loPI   C4B18688   0.448   7.246   7.720 -0.2165  0.2306 -0.0809
 1169loPI    C118689   0.768   6.870   5.111  0.0532 -0.0882 -0.0291
 1169loPI    C218690   0.983   6.846   4.774 -0.0323 -0.0713 -0.0852
 1169loPI    C318691   0.584   6.856   4.756 -0.0379 -0.0947  0.0183
 1169loPI   PO418692   0.948   6.805   5.301  0.0120  0.1200 -0.0571
 1169loPI   GL118693   0.953   6.889   5.709 -0.2444  0.3393 -0.2922
 1169loPI   GL218694   1.097   7.192   5.689 -0.2615  0.1736 -0.0431
 1169loPI   C1A18695   0.717   6.720   6.122 -0.0506 -0.0851  0.2692
 1169loPI   C2A18696   0.727   6.839   6.549  0.1791  0.1444  0.3277
 1169loPI   C3A18697   0.716   6.803   6.951  0.0066 -0.1529  0.0452
 1169loPI   C4A18698   0.721   6.814   7.378 -0.2716  0.1518  0.0099
 1169loPI   C5A18699   0.711   6.807   7.775  0.0516 -0.1365 -0.4906
 1169loPI   C6A18700   0.485   6.835   8.149  0.0741  0.2943 -0.2376
 1169loPI   C1B18701   1.007   7.174   6.201 -0.1305  0.0194  0.5157
 1169loPI   C2B18702   0.942   7.249   6.586 -0.1965  0.0625  0.1187
 1169loPI   C3B18703   0.901   7.279   6.972 -0.0246 -0.4254 -0.0898
 1169loPI   C4B18704   0.974   7.293   7.463  0.1729  0.0395 -0.0258
 1170loPI    C118705   1.410  13.339   5.130  0.1491 -0.1045  0.0121
 1170loPI    C218706   1.673  13.537   4.904  0.1077 -0.0529  0.0091
 1170loPI    C318707   1.379  13.328   4.732 -0.0530  0.1627  0.0175
 1170loPI   PO418708   1.511  13.175   5.321 -0.2816  0.1078  0.0228
 1170loPI   GL118709   1.674  12.995   5.663  0.1977  0.1676 -0.2449
 1170loPI   GL218710   1.525  12.678   5.539  0.1242 -0.1142 -0.4650
 1170loPI   C1A18711   1.670  13.111   6.043  0.0414  0.1224 -0.0725
 1170loPI   C2A18712   1.653  13.095   6.387  0.2062  0.0801  0.2350
 1170loPI   C3A18713   1.585  13.123   6.824  0.3890 -0.2183  0.0930
 1170loPI   C4A18714   1.632  13.190   7.199 -0.0533 -0.1286 -0.1050
 1170loPI   C5A18715   1.569  13.140   7.561  0.1133  0.0028 -0.0735
 1170loPI   C6A18716   1.400  12.752   7.754  0.1124 -0.3532  0.0555
 1170loPI   C1B18717   1.455  12.643   5.975 -0.1494  0.1576  0.1569
 1170loPI   C2B18718   1.375  12.631   6.365 -0.2161  0.0793 -0.4067
 1170loPI   C3B18719   1.346  12.706   6.778  0.1934  0.1359  0.0952
 1170loPI   C4B18720   1.357  12.741   7.230  0.2266  0.0773  0.1888
 1171loPI    C118721   9.201  14.555   5.047  0.0437  0.0802 -0.0092
 1171loPI    C218722   8.983  14.881   4.969 -0.0282  0.0198 -0.0631
 1171loPI    C318723   8.991  14.579   4.707 -0.0243 -0.0546  0.0224
 1171loPI   PO418724   9.244  14.612   5.320  0.0362 -0.2395 -0.0202
 1171loPI   GL118725   9.324  14.426   5.707  0.0862  0.2482 -0.0194
 1171loPI   GL218726   9.085  14.510   5.865  0.4862 -0.0274 -0.1084
 1171loPI   C1A18727   9.529  14.647   6.031  0.2965 -0.1657 -0.0479
 1171loPI   C2A18728   9.477  14.853   6.376  0.0539 -0.4298  0.0193
 1171loPI   C3A18729   9.369  15.055   6.786  0.2331 -0.2763 -0.0739
 1171loPI   C4A18730   9.255  15.064   7.346 -0.1726 -0.1627 -0.0737
 1171loPI   C5A18731   9.434  14.899   7.772 -0.0958  0.3304 -0.0003
 1171loPI   C6A18732   9.369  15.104   8.144  0.0378  0.4082  0.0318
 1171loPI   C1B18733   9.086  14.498   6.228 -0.0610  0.2375 -0.4219
 1171loPI   C2B18734   9.091  14.604   6.662  0.0460  0.0044  0.0200
 1171loPI   C3B18735   9.026  14.688   7.094 -0.1788 -0.0351 -0.0382
 1171loPI   C4B18736   9.037  14.634   7.517  0.1681 -0.0961 -0.1710
 1172loPI    C118737  13.854   6.905   5.566  0.0478 -0.0048  0.0241
 1172loPI    C218738  13.958   6.763   5.207 -0.1526 -0.0740 -0.0082
 1172loPI    C318739  13.778   7.119   5.237 -0.0774 -0.0389  0.0302
 1172loPI   PO418740  13.652   6.742   5.681 -0.3258  0.2531 -0.1028
 1172loPI   GL118741  13.534   6.218   5.891 -0.1491 -0.1410 -0.3108
 1172loPI   GL218742  13.467   6.479   6.097  0.2369 -0.1304 -0.2443
 1172loPI   C1A18743  13.949   6.179   6.125  0.0719 -0.0695  0.1411
 1172loPI   C2A18744  14.124   6.161   6.512  0.2428 -0.0884 -0.0500
 1172loPI   C3A18745  14.139   6.275   6.923  0.0951 -0.0580 -0.2572
 1172loPI   C4A18746  14.099   6.281   7.384 -0.2286 -0.1410  0.0160
 1172loPI   C5A18747  14.005   6.318   7.798 -0.1708  0.2684 -0.1005
 1172loPI   C6A18748  13.958   6.229   8.067 -0.1323 -0.1396  0.3033
 1172loPI   C1B18749  13.629   6.237   6.496 -0.0167 -0.0116 -0.2707
 1172loPI   C2B18750  13.502   6.104   6.992 -0.2540 -0.1957 -0.1678
 1172loPI   C3B18751  13.598   6.100   7.446 -0.0225  0.2649 -0.1890
 1172loPI   C4B18752  13.468   6.135   7.876 -0.0477 -0.1414 -0.1451
 1173loPI    C118753   2.663   1.891   5.107 -0.0248 -0.1546 -0.1379
 1173loPI    C218754   2.596   1.537   5.279 -0.0418 -0.1177 -0.0681
 1173loPI    C318755   2.591   1.570   4.880 -0.0404 -0.1957 -0.0748
 1173loPI   PO418756   2.745   2.004   5.291  0.0071 -0.0442  0.2741
 1173loPI   GL118757   2.831   2.062   5.652  0.1294 -0.0501 -0.1723
 1173loPI   GL218758   2.959   1.824   5.691 -0.3590 -0.1185 -0.3141
 1173loPI   C1A18759   2.861   2.350   5.898  0.2870  0.0899 -0.0299
 1173loPI   C2A18760   2.834   2.475   6.362  0.1094  0.1253  0.1250
 1173loPI   C3A18761   2.920   2.578   6.701  0.0468  0.3222  0.1626
 1173loPI   C4A18762   2.877   2.625   7.098 -0.2274 -0.0323  0.0655
 1173loPI   C5A18763   2.859   2.479   7.533  0.1451  0.1770 -0.0147
 1173loPI   C6A18764   2.823   2.258   7.940 -0.2124  0.1953 -0.0153
 1173loPI   C1B18765   3.079   1.921   6.111  0.0174 -0.1145 -0.0058
 1173loPI   C2B18766   3.166   2.110   6.570  0.2481  0.2724 -0.0054
 1173loPI   C3B18767   3.125   2.108   7.005 -0.0103  0.0907  0.2401
 1173loPI   C4B18768   3.132   1.982   7.550 -0.2341 -0.4032 -0.0398
 1174loPI    C118769   9.734   9.130   5.033  0.1941 -0.0610  0.0945
 1174loPI    C218770   9.826   8.882   4.734 -0.0745 -0.0553  0.0047
 1174loPI    C318771  10.102   9.133   4.877  0.1065 -0.1813 -0.1182
 1174loPI   PO418772   9.665   9.002   5.310 -0.1619 -0.3635  0.1217
 1174loPI   GL118773   9.712   9.132   5.685  0.3392  0.1006  0.5101
 1174loPI   GL218774   9.501   9.387   5.722  0.0430 -0.1362  0.0083
 1174loPI   C1A18775   9.896   9.214   6.016 -0.2014  0.0006  0.0487
 1174loPI   C2A18776   9.933   9.318   6.500 -0.0822 -0.1585 -0.1285
 1174loPI   C3A18777   9.793   9.320   6.906  0.0496 -0.2220 -0.0273
 1174loPI   C4A18778   9.601   9.158   7.290 -0.0205  0.0989 -0.0336
 1174loPI   C5A18779   9.518   9.167   7.661 -0.1316  0.0965 -0.0091
 1174loPI   C6A18780   9.603   8.798   7.944 -0.0619  0.0511  0.1820
 1174loPI   C1B18781   9.330   9.306   6.144  0.2757 -0.1940 -0.0618
 1174loPI   C2B18782   9.036   9.140   6.438 -0.0823  0.1278 -0.0404
 1174loPI   C3B18783   8.811   9.071   6.811 -0.0433 -0.0651 -0.1521
 1174loPI   C4B18784   8.879   8.934   7.180  0.2476  0.1563 -0.0587
 1175loPI    C118785   1.455   8.136   5.043 -0.1043 -0.0690 -0.1553
 1175loPI    C218786   1.631   7.988   4.716 -0.0177 -0.0702 -0.1088
 1175loPI    C318787   1.779   8.316   4.891 -0.1565  0.0210 -0.1603
 1175loPI   PO418788   1.464   7.910   5.203  0.1501  0.3396  0.0252
 1175loPI   GL118789   1.470   7.913   5.748  0.1343  0.2095  0.0356
 1175loPI   GL218790   1.302   8.171   5.918  0.0195 -0.2362 -0.0319
 1175loPI   C1A18791   1.287   7.602   5.893  0.1538  0.2227  0.3309
 1175loPI   C2A18792   1.163   7.712   6.291  0.1595  0.1770  0.0126
 1175loPI   C3A18793   1.101   7.791   6.682 -0.0871  0.0844  0.1002
 1175loPI   C4A18794   1.135   7.720   7.098 -0.3591 -0.1630  0.2536
 1175loPI   C5A18795   1.137   7.739   7.457 -0.0730  0.2111  0.3268
 1175loPI   C6A18796   1.180   7.571   7.875  0.1531  0.1078 -0.0583
 1175loPI   C1B18797   1.592   8.206   6.201  0.2318  0.3148  0.1365
 1175loPI   C2B18798   1.866   8.249   6.611  0.1875  0.4525  0.0405
 1175loPI   C3B18799   1.896   8.247   7.091 -0.1236 -0.0030  0.2678
 1175loPI   C4B18800   1.865   8.247   7.461  0.1841  0.0534  0.2492
 1176loPI    C118801  13.793  12.093   5.612 -0.2571 -0.2393 -0.0254
 1176loPI    C218802  13.771  11.871   5.280 -0.1327 -0.1716 -0.0798
 1176loPI    C318803  13.527  12.185   5.327 -0.2381 -0.2573 -0.0488
 1176loPI   PO418804  13.811  11.933   5.782 -0.1822  0.1330 -0.1216
 1176loPI   GL118805  14.002  11.937   6.053  0.1638 -0.1677 -0.1107
 1176loPI   GL218806  14.138  11.680   6.061  0.4035 -0.2850 -0.0687
 1176loPI   C1A18807  13.919  11.834   6.499  0.0307  0.1824 -0.2423
 1176loPI   C2A18808  13.613  11.656   6.799  0.2023 -0.0475  0.0210
 1176loPI   C3A18809  13.284  11.591   6.834 -0.0187 -0.0867  0.0891
 1176loPI   C4A18810  12.928  11.572   7.273 -0.0621 -0.1020 -0.1114
 1176loPI   C5A18811  12.985  11.196   7.523  0.3478  0.3100 -0.0752
 1176loPI   C6A18812  13.386  11.029   7.720 -0.3275 -0.0987  0.0028
 1176loPI   C1B18813  14.419  11.702   6.347 -0.0965 -0.0728  0.1109
 1176loPI   C2B18814  14.497  11.777   6.799  0.2712  0.2533  0.0257
 1176loPI   C3B18815  14.544  11.861   7.236 -0.1086  0.1454  0.2486
 1176loPI   C4B18816  14.601  11.847   7.642 -0.0030 -0.1040  0.3817
 1177loPI    C118817  17.720   0.652   5.144 -0.0625  0.2038 -0.2938
 1177loPI    C218818  17.416   0.629   4.884 -0.0131  0.0001 -0.3355
 1177loPI    C318819  17.793   0.651   4.751 -0.0015  0.1308 -0.2826
 1177loPI   PO418820  17.696   0.802   5.228  0.3757 -0.1743  0.3077
 1177loPI   GL118821  17.716   0.769   5.610 -0.0110 -0.0574  0.1427
 1177loPI   GL218822  17.937   0.920   5.756 -0.0183  0.1131 -0.1038
 1177loPI   C1A18823  17.579   0.571   5.961  0.3385 -0.1017 -0.1375
 1177loPI   C2A18824  17.615   0.495   6.390 -0.1908  0.1715  0.0029
 1177loPI   C3A18825  17.648   0.557   6.852  0.0838 -0.1191 -0.0933
 1177loPI   C4A18826  17.677   0.425   7.223  0.2307 -0.3032 -0.0003
 1177loPI   C5A18827  17.992   0.432   7.473 -0.2539 -0.2183 -0.2429
 1177loPI   C6A18828  18.331   0.519   7.784 -0.2908 -0.0237  0.0385
 1177loPI   C1B18829  17.687   1.180   6.002 -0.2662 -0.1298  0.1687
 1177loPI   C2B18830  17.604   1.253   6.432 -0.0228  0.1863  0.2871
 1177loPI   C3B18831  17.628   1.415   6.827 -0.0211  0.2380 -0.2322
 1177loPI   C4B18832  17.589   1.371   7.285  0.0139  0.0480  0.2729
 1178loPI    C118833   1.768  17.599   4.874  0.0024 -0.1822 -0.1875
 1178loPI    C218834   1.826  17.319   4.594  0.0886 -0.1143 -0.2383
 1178loPI    C318835   2.070  17.635   4.613  0.0297 -0.0743 -0.1415
 1178loPI   PO418836   1.685  17.459   5.091 -0.2667 -0.0656 -0.3235
 1178loPI   GL118837   1.597  17.257   5.411  0.1994 -0.2844  0.1766
 1178loPI   GL218838   1.662  16.882   5.495 -0.0623 -0.3649 -0.0583
 1178loPI   C1A18839   1.597  17.252   5.916 -0.2816  0.1260 -0.0386
 1178loPI   C2A18840   1.609  17.404   6.305  0.1518  0.0557 -0.1507
 1178loPI   C3A18841   1.683  17.603   6.704 -0.0850  0.0539  0.2740
 1178loPI   C4A18842   1.614  17.742   7.092  0.1048 -0.0597 -0.0585
 1178loPI   C5A18843   1.436  17.887   7.496 -0.0996 -0.0034 -0.2617
 1178loPI   C6A18844   1.588  18.209   7.770  0.1384 -0.4680 -0.1401
 1178loPI   C1B18845   1.843  16.707   5.847 -0.2230 -0.0498  0.0172
 1178loPI   C2B18846   1.791  16.859   6.234  0.0982  0.0502  0.1959
 1178loPI   C3B18847   1.826  16.682   6.639  0.2109  0.0412 -0.0515
 1178loPI   C4B18848   1.790  16.805   6.998 -0.0563 -0.0853  0.1338
 1179loPI    C118849  10.697   9.333   5.233  0.0123  0.2059 -0.0061
 1179loPI    C218850  10.676   9.667   5.014 -0.0358  0.0254 -0.2812
 1179loPI    C318851  10.569   9.316   4.854 -0.1935 -0.0921  0.0732
 1179loPI   PO418852  10.541   9.403   5.428 -0.0343 -0.2182 -0.2773
 1179loPI   GL118853  10.350   9.302   5.840 -0.0321 -0.1448  0.0373
 1179loPI   GL218854  10.296   8.978   5.916 -0.1572  0.0227  0.4324
 1179loPI   C1A18855  10.202   9.596   6.182  0.1975 -0.2755  0.1192
 1179loPI   C2A18856  10.539   9.703   6.537 -0.0925  0.0831 -0.3829
 1179loPI   C3A18857  10.738   9.861   6.886  0.1848 -0.0530  0.2453
 1179loPI   C4A18858  10.791  10.033   7.279 -0.2599 -0.0028 -0.0185
 1179loPI   C5A18859  10.792  10.245   7.599 -0.1293 -0.0572 -0.0508
 1179loPI   C6A18860  10.943  10.382   7.911  0.1393 -0.1205 -0.2716
 1179loPI   C1B18861  10.210   8.869   6.263 -0.2440  0.0759 -0.1654
 1179loPI   C2B18862   9.925   8.637   6.418 -0.3285  0.0729  0.2580
 1179loPI   C3B18863   9.850   8.573   6.865  0.0995 -0.2388  0.1276
 1179loPI   C4B18864   9.863   8.649   7.371  0.2907  0.2628  0.1391
 1180loPI    C118865  12.471   4.176   5.161  0.0070  0.0580  0.0882
 1180loPI    C218866  12.091   4.300   5.183  0.0150  0.0821  0.0913
 1180loPI    C318867  12.287   4.312   4.834 -0.0348 -0.0709  0.0576
 1180loPI   PO418868  12.485   3.998   5.257  0.0206  0.1941  0.0704
 1180loPI   GL118869  12.414   3.789   5.654 -0.1664  0.1771 -0.0741
 1180loPI   GL218870  12.379   4.079   5.712 -0.1758 -0.2213 -0.0537
 1180loPI   C1A18871  12.625   3.649   5.979 -0.1067  0.1453  0.0542
 1180loPI   C2A18872  12.944   3.421   6.196  0.1981 -0.3975  0.1013
 1180loPI   C3A18873  12.900   3.394   6.662 -0.2454 -0.0029  0.1577
 1180loPI   C4A18874  12.977   3.457   7.071 -0.0001 -0.1351  0.2915
 1180loPI   C5A18875  12.939   3.518   7.510  0.2312 -0.0198 -0.0016
 1180loPI   C6A18876  12.648   3.589   7.936  0.0366 -0.0901  0.0084
 1180loPI   C1B18877  12.396   4.110   6.142  0.2466  0.0435 -0.1211
 1180loPI   C2B18878  12.220   4.070   6.614  0.4791 -0.2593  0.0762
 1180loPI   C3B18879  12.215   4.205   7.033  0.1311 -0.1564  0.1725
 1180loPI   C4B18880  12.252   4.301   7.406 -0.2186 -0.2643  0.2500
 1181loPI    C118881  18.129   6.851   5.206  0.1063  0.1365 -0.1368
 1181loPI    C218882  17.866   7.152   5.226  0.1206  0.1478 -0.1180
 1181loPI    C318883  17.917   6.953   4.883 -0.0194  0.0490 -0.0826
 1181loPI   PO418884  18.370   6.957   5.384 -0.0698 -0.1298 -0.2106
 1181loPI   GL118885  18.344   7.052   5.914 -0.3636 -0.0084 -0.0311
 1181loPI   GL218886  18.519   6.786   5.788 -0.3238  0.0477  0.0488
 1181loPI   C1A18887  18.188   7.136   6.250 -0.0190 -0.2551 -0.0387
 1181loPI   C2A18888  18.184   7.048   6.655  0.1286  0.4235  0.2112
 1181loPI   C3A18889  18.222   7.046   7.134  0.1421  0.1712 -0.3213
 1181loPI   C4A18890  18.248   7.192   7.541  0.1577 -0.1244 -0.3167
 1181loPI   C5A18891  18.364   7.322   7.974 -0.1302  0.1042  0.3719
 1181loPI   C6A18892  18.288   7.593   8.337 -0.0902 -0.1160  0.0774
 1181loPI   C1B18893  18.552   6.667   6.187  0.1298 -0.1055 -0.3896
 1181loPI   C2B18894  18.427   6.640   6.605 -0.1913 -0.0272  0.0578
 1181loPI   C3B18895  18.575   6.735   7.074  0.6260  0.2099  0.1378
 1181loPI   C4B18896  18.527   6.784   7.532  0.3820  0.1493 -0.0356
 1182loPI    C118897   6.314   4.231   4.985 -0.3607  0.1851 -0.0353
 1182loPI    C218898   6.545   4.525   4.843 -0.1293 -0.0787 -0.2156
 1182loPI    C318899   6.307   4.321   4.595 -0.2586 -0.0720 -0.0982
 1182loPI   PO418900   6.398   4.318   5.277  0.0507  0.1994 -0.2249
 1182loPI   GL118901   6.378   4.373   5.688 -0.0084 -0.0461  0.1837
 1182loPI   GL218902   6.649   4.059   5.746 -0.1044 -0.0392 -0.0666
 1182loPI   C1A18903   6.419   4.602   6.138  0.2571  0.2528 -0.2898
 1182loPI   C2A18904   6.282   4.518   6.514 -0.0472  0.0959 -0.1426
 1182loPI   C3A18905   6.218   4.559   6.963 -0.1343 -0.2031 -0.0551
 1182loPI   C4A18906   6.241   4.752   7.268  0.0468  0.0255  0.0259
 1182loPI   C5A18907   6.383   4.947   7.606  0.1140 -0.0579 -0.0089
 1182loPI   C6A18908   6.628   5.247   7.760  0.0782  0.1143 -0.2126
 1182loPI   C1B18909   6.579   4.168   6.247 -0.0034  0.0775  0.0934
 1182loPI   C2B18910   6.536   4.159   6.723 -0.1424  0.2608 -0.1681
 1182loPI   C3B18911   6.575   4.265   7.156  0.3903 -0.1142 -0.2572
 1182loPI   C4B18912   6.630   4.549   7.550  0.2315  0.1441 -0.0975
 1183loPI    C118913   1.548  14.033   5.143  0.0479 -0.0904 -0.0818
 1183loPI    C218914   1.787  14.116   4.834  0.0399 -0.0611 -0.0802
 1183loPI    C318915   1.472  14.350   4.911  0.1183  0.0097  0.0300
 1183loPI   PO418916   1.477  13.797   5.329  0.0704 -0.0422 -0.1088
 1183loPI   GL118917   1.223  13.857   5.660  0.2551  0.1811  0.1233
 1183loPI   GL218918   1.267  14.178   5.811  0.0772 -0.3898  0.1111
 1183loPI   C1A18919   1.040  13.918   6.112 -0.3688 -0.2323 -0.0076
 1183loPI   C2A18920   1.087  13.963   6.548  0.1211  0.1260 -0.0013
 1183loPI   C3A18921   1.022  14.028   6.975 -0.1530  0.1927 -0.1845
 1183loPI   C4A18922   1.061  13.968   7.415  0.1419 -0.2779  0.1554
 1183loPI   C5A18923   1.346  13.949   7.771 -0.4370  0.1187 -0.0224
 1183loPI   C6A18924   1.635  13.913   8.138 -0.2590 -0.2118 -0.1681
 1183loPI   C1B18925   1.193  14.420   6.165  0.0724 -0.2154  0.1633
 1183loPI   C2B18926   1.208  14.484   6.608  0.0316 -0.4429 -0.1064
 1183loPI   C3B18927   1.168  14.461   7.117 -0.2411  0.2475  0.1582
 1183loPI   C4B18928   1.257  14.405   7.516 -0.1230 -0.4242  0.0310
 1184loPI    C118929  12.965  14.399   5.390  0.2748  0.1869  0.2405
 1184loPI    C218930  12.717  14.218   5.647 -0.0774  0.2747 -0.0296
 1184loPI    C318931  12.921  14.002   5.379 -0.1267  0.2337 -0.0341
 1184loPI   PO418932  13.063  14.543   5.543 -0.2318  0.4640 -0.2449
 1184loPI   GL118933  13.017  14.511   5.968  0.1466 -0.0029  0.0218
 1184loPI   GL218934  12.796  14.713   5.911 -0.3228 -0.1310  0.1616
 1184loPI   C1A18935  13.188  14.685   6.307 -0.2161 -0.1281 -0.0656
 1184loPI   C2A18936  13.332  14.633   6.805  0.0778 -0.4515  0.2560
 1184loPI   C3A18937  13.269  14.801   7.209 -0.2813  0.0691  0.1948
 1184loPI   C4A18938  12.940  14.872   7.602 -0.1171 -0.1918  0.0012
 1184loPI   C5A18939  12.814  14.975   7.982  0.0051  0.0208  0.0797
 1184loPI   C6A18940  12.473  15.153   8.263 -0.0945 -0.2906  0.0239
 1184loPI   C1B18941  12.547  14.874   6.257 -0.0946  0.0670  0.2821
 1184loPI   C2B18942  12.412  15.088   6.582 -0.2253 -0.0526 -0.0971
 1184loPI   C3B18943  12.447  15.150   7.036  0.1265  0.2851 -0.1896
 1184loPI   C4B18944  12.580  15.235   7.495 -0.3651  0.0948  0.0313
 1185loPI    C118945  15.556  15.395   5.255 -0.0359 -0.0063 -0.1160
 1185loPI    C218946  15.926  15.360   5.403 -0.1506 -0.1910  0.1355
 1185loPI    C318947  15.859  15.295   5.014  0.1418  0.2241  0.0084
 1185loPI   PO418948  15.483  15.571   5.403 -0.1819  0.1948 -0.2806
 1185loPI   GL118949  15.520  15.572   5.840 -0.0660 -0.0237 -0.0077
 1185loPI   GL218950  15.745  15.327   5.876 -0.0470 -0.2666 -0.0113
 1185loPI   C1A18951  15.321  15.701   6.279 -0.2077  0.1433  0.1857
 1185loPI   C2A18952  15.316  15.732   6.685  0.1401  0.0825 -0.2292
 1185loPI   C3A18953  15.362  15.805   7.123 -0.2533 -0.0500  0.0508
 1185loPI   C4A18954  15.363  15.812   7.578 -0.2482  0.1473  0.1609
 1185loPI   C5A18955  15.518  15.753   8.074 -0.0123 -0.3192  0.0072
 1185loPI   C6A18956  15.673  15.464   8.304  0.1046  0.1294 -0.1176
 1185loPI   C1B18957  15.646  15.307   6.292  0.0402  0.2701 -0.1947
 1185loPI   C2B18958  15.744  15.400   6.601  0.0982  0.0907 -0.1040
 1185loPI   C3B18959  15.654  15.404   6.942  0.1697  0.0229 -0.4716
 1185loPI   C4B18960  15.640  15.457   7.359 -0.2319  0.1970  0.2272
 1186loPI    C118961  17.143   3.537   5.178  0.0987 -0.1966  0.0995
 1186loPI    C218962  17.423   3.394   4.931  0.0015 -0.1476 -0.0403
 1186loPI    C318963  17.052   3.244   4.921 -0.0925  0.0887 -0.1655
 1186loPI   PO418964  17.227   3.492   5.421 -0.1544 -0.0325  0.1569
 1186loPI   GL118965  17.156   3.294   5.793  0.2941  0.0181 -0.0928
 1186loPI   GL218966  17.380   3.342   5.946  0.0659  0.3140 -0.0517
 1186loPI   C1A18967  16.907   3.221   6.246 -0.1873 -0.2743  0.0926
 1186loPI   C2A18968  16.899   3.129   6.648  0.3237 -0.0842 -0.2166
 1186loPI   C3A18969  17.000   2.916   7.077 -0.3369  0.0423  0.4153
 1186loPI   C4A18970  17.407   2.714   7.183  0.2832  0.0176  0.0559
 1186loPI   C5A18971  17.601   2.291   7.078 -0.0909 -0.0086  0.1147
 1186loPI   C6A18972  17.579   2.199   6.674  0.0614  0.2485 -0.2921
 1186loPI   C1B18973  17.550   3.614   6.191  0.0265  0.1741  0.2039
 1186loPI   C2B18974  17.704   4.007   6.438 -0.2106 -0.1884 -0.1580
 1186loPI   C3B18975  17.739   4.364   6.666  0.2238  0.1698  0.0632
 1186loPI   C4B18976  17.449   4.620   6.840 -0.2696  0.1400  0.0097
 1187loPI    C118977   2.427   9.072   5.119 -0.0831 -0.0777  0.0081
 1187loPI    C218978   2.544   9.031   5.500  0.1939  0.1727 -0.0466
 1187loPI    C318979   2.588   8.727   5.243 -0.1319 -0.0493  0.1524
 1187loPI   PO418980   2.366   9.368   5.161 -0.1777  0.1355 -0.0122
 1187loPI   GL118981   2.241   9.579   5.661 -0.0568  0.0157  0.0839
 1187loPI   GL218982   2.543   9.541   5.671  0.1981 -0.1409  0.4410
 1187loPI   C1A18983   2.119   9.328   6.016  0.1485 -0.0030 -0.1002
 1187loPI   C2A18984   2.247   9.223   6.329 -0.1678 -0.1579  0.0381
 1187loPI   C3A18985   2.307   9.207   6.708 -0.1300 -0.0325 -0.0991
 1187loPI   C4A18986   2.256   9.238   7.152 -0.1128 -0.1454 -0.1727
 1187loPI   C5A18987   2.276   9.258   7.622 -0.1280  0.0324 -0.0069
 1187loPI   C6A18988   2.020   9.225   8.034  0.0219 -0.0434  0.0259
 1187loPI   C1B18989   2.539   9.681   6.099 -0.0277  0.1764  0.0389
 1187loPI   C2B18990   2.388   9.676   6.456  0.0693  0.0433  0.2023
 1187loPI   C3B18991   2.475   9.641   6.890  0.2613  0.0076 -0.0192
 1187loPI   C4B18992   2.437   9.759   7.245 -0.0387  0.0488  0.1859
 1188loPI    C118993   5.038   1.752   4.773 -0.0138 -0.0274  0.2045
 1188loPI    C218994   5.410   1.750   4.626 -0.0325 -0.0463  0.1574
 1188loPI    C318995   5.226   2.097   4.699 -0.1356 -0.0330 -0.1520
 1188loPI   PO418996   5.079   1.562   5.053 -0.1547 -0.0979  0.1636
 1188loPI   GL118997   5.185   1.679   5.473 -0.0320 -0.0542  0.2511
 1188loPI   GL218998   4.896   1.788   5.775 -0.1048 -0.3887 -0.2557
 1188loPI   C1A18999   5.356   1.746   5.900  0.2084  0.1740 -0.0437
 1188loPI   C2A19000   5.487   1.847   6.296  0.3177 -0.0670 -0.2743
 1188loPI   C3A19001   5.523   1.810   6.704  0.1383  0.0676  0.0425
 1188loPI   C4A19002   5.520   1.968   7.127  0.0188  0.4728 -0.0345
 1188loPI   C5A19003   5.503   2.099   7.490 -0.2462  0.1068  0.2150
 1188loPI   C6A19004   5.640   2.105   7.904 -0.2490  0.2158 -0.1047
 1188loPI   C1B19005   5.017   1.710   6.232  0.0894 -0.1804 -0.0452
 1188loPI   C2B19006   5.024   1.855   6.622  0.0998  0.1999 -0.0942
 1188loPI   C3B19007   5.062   1.892   6.958 -0.0126  0.0714  0.1608
 1188loPI   C4B19008   5.028   1.930   7.360 -0.0346  0.0402 -0.0334
 1189loPI    C119009   5.849   6.062   5.091  0.3068 -0.1318  0.2665
 1189loPI    C219010   5.969   6.265   4.768 -0.0435 -0.1668  0.1097
 1189loPI    C319011   6.159   5.930   4.876  0.0301 -0.1952 -0.1032
 1189loPI   PO419012   5.806   6.196   5.353 -0.0322  0.0348  0.1959
 1189loPI   GL119013   5.606   6.140   5.685  0.0216  0.1271  0.0822
 1189loPI   GL219014   5.476   5.804   5.765 -0.0464 -0.1557  0.3666
 1189loPI   C1A19015   5.565   6.286   6.027 -0.2494  0.0022  0.0772
 1189loPI   C2A19016   5.479   6.458   6.440 -0.1048 -0.0635 -0.0733
 1189loPI   C3A19017   5.495   6.463   6.912  0.1257  0.1033  0.3311
 1189loPI   C4A19018   5.508   6.574   7.355 -0.3769  0.0030  0.1299
 1189loPI   C5A19019   5.768   6.479   7.765  0.0055  0.5547  0.1076
 1189loPI   C6A19020   5.913   6.135   8.010  0.2850 -0.1036  0.1419
 1189loPI   C1B19021   5.359   5.876   6.211  0.0583 -0.1341 -0.3488
 1189loPI   C2B19022   5.269   6.046   6.595 -0.1207  0.0472  0.0819
 1189loPI   C3B19023   5.292   5.990   7.043 -0.0551 -0.0111  0.1400
 1189loPI   C4B19024   5.305   6.152   7.481  0.0238 -0.1013 -0.0939
 1190loPI    C119025  15.922  17.724   5.298  0.0091 -0.0384 -0.0730
 1190loPI    C219026  15.755  17.629   4.947 -0.0048 -0.2663 -0.0060
 1190loPI    C319027  16.090  17.848   4.957 -0.1180 -0.0842 -0.1527
 1190loPI   PO419028  15.678  17.891   5.438  0.1729  0.2349 -0.0128
 1190loPI   GL119029  15.706  17.798   5.885 -0.1312  0.1323  0.1228
 1190loPI   GL219030  15.644  17.501   5.804 -0.2632 -0.1597  0.0369
 1190loPI   C1A19031  15.736  17.713   6.317 -0.3087  0.0163  0.1422
 1190loPI   C2A19032  15.708  17.677   6.754  0.0127 -0.1956  0.0373
 1190loPI   C3A19033  15.696  17.756   7.286 -0.2311 -0.1308 -0.0153
 1190loPI   C4A19034  15.801  17.461   7.688  0.2711  0.0519 -0.0631
 1190loPI   C5A19035  15.654  17.208   8.071  0.0416  0.0985  0.2327
 1190loPI   C6A19036  15.618  16.983   8.429 -0.1336  0.1202  0.3609
 1190loPI   C1B19037  16.042  17.257   5.993 -0.1229 -0.1058  0.2290
 1190loPI   C2B19038  15.971  17.204   6.369  0.3627  0.0948  0.3266
 1190loPI   C3B19039  16.061  17.273   6.794  0.1207 -0.0295  0.0254
 1190loPI   C4B19040  15.988  17.245   7.293  0.0680 -0.2078  0.2677
 1191loPI    C119041  17.912  16.065   4.558 -0.0773 -0.2451 -0.2193
 1191loPI    C219042  18.163  16.377   4.553 -0.2446 -0.1057 -0.0535
 1191loPI    C319043  18.090  16.173   4.217 -0.1896  0.0788 -0.1785
 1191loPI   PO419044  18.077  15.914   4.769  0.2943  0.0029 -0.0150
 1191loPI   GL119045  18.168  15.869   5.206 -0.1915  0.0958 -0.0714
 1191loPI   GL219046  18.380  15.823   5.431  0.1641 -0.2980 -0.1652
 1191loPI   C1A19047  18.212  16.282   5.585 -0.1680 -0.0353 -0.0352
 1191loPI   C2A19048  18.177  16.621   5.889 -0.0379 -0.1477 -0.0134
 1191loPI   C3A19049  18.154  16.615   6.274  0.1028  0.1120 -0.2794
 1191loPI   C4A19050  18.172  16.558   6.713  0.0046  0.0737 -0.1580
 1191loPI   C5A19051  18.091  16.582   7.149  0.4012 -0.3945 -0.0869
 1191loPI   C6A19052  18.127  16.434   7.643  0.0996  0.1599  0.0429
 1191loPI   C1B19053  18.269  15.814   5.867  0.1286 -0.1337 -0.0089
 1191loPI   C2B19054  18.185  15.716   6.353  0.1932  0.1464  0.1307
 1191loPI   C3B19055  18.199  15.618   6.810 -0.1589 -0.3539 -0.0616
 1191loPI   C4B19056  18.211  15.689   7.254  0.4069  0.0451  0.0672
 1192loPI    C119057   3.458   7.785   5.235  0.1694 -0.0715  0.2224
 1192loPI    C219058   3.781   7.635   5.052  0.0384 -0.1374  0.0421
 1192loPI    C319059   3.590   7.950   4.895 -0.0498 -0.1672  0.0888
 1192loPI   PO419060   3.260   7.592   5.378  0.1212  0.1494 -0.0788
 1192loPI   GL119061   3.279   7.259   5.775 -0.0268 -0.1268  0.1923
 1192loPI   GL219062   3.137   6.943   5.773  0.0446  0.0618 -0.1942
 1192loPI   C1A19063   3.021   7.455   6.033 -0.1799 -0.1572  0.2046
 1192loPI   C2A19064   3.054   7.487   6.470  0.1258 -0.3251  0.3275
 1192loPI   C3A19065   2.937   7.477   6.862 -0.0397  0.2408  0.0481
 1192loPI   C4A19066   2.919   7.570   7.128  0.0835  0.1728 -0.0227
 1192loPI   C5A19067   3.069   7.414   7.482 -0.0729 -0.2153  0.3732
 1192loPI   C6A19068   3.372   7.095   7.629  0.0008  0.1486  0.0428
 1192loPI   C1B19069   3.088   7.006   6.165  0.1804  0.1045 -0.4493
 1192loPI   C2B19070   2.863   7.058   6.510  0.0173 -0.2797  0.0593
 1192loPI   C3B19071   2.710   7.007   6.824 -0.0664  0.2464 -0.2141
 1192loPI   C4B19072   2.860   7.041   7.289 -0.0211 -0.0041  0.2130
 1193loPI    C119073   2.308   7.520   5.019  0.1840 -0.0781  0.1518
 1193loPI    C219074   2.522   7.823   4.870 -0.0390  0.0555  0.0978
 1193loPI    C319075   2.472   7.490   4.655 -0.1267  0.1382 -0.0108
 1193loPI   PO419076   2.344   7.449   5.161 -0.0742 -0.1320 -0.0372
 1193loPI   GL119077   2.348   7.410   5.564 -0.0613 -0.1082  0.6179
 1193loPI   GL219078   2.515   7.454   5.735  0.2950 -0.2540 -0.2223
 1193loPI   C1A19079   2.173   7.411   6.101  0.1312 -0.2300  0.0779
 1193loPI   C2A19080   1.967   7.382   6.530  0.1156  0.1138 -0.3422
 1193loPI   C3A19081   1.928   7.301   6.976 -0.1598 -0.4016  0.1206
 1193loPI   C4A19082   1.991   7.450   7.440  0.1697 -0.0053 -0.0653
 1193loPI   C5A19083   2.122   7.422   7.846  0.1451 -0.0663  0.0371
 1193loPI   C6A19084   2.282   7.260   8.151  0.0383  0.1680 -0.3230
 1193loPI   C1B19085   2.618   7.725   6.145  0.1642  0.2486 -0.5191
 1193loPI   C2B19086   2.780   7.929   6.482  0.3853 -0.0922  0.0186
 1193loPI   C3B19087   2.622   7.978   6.892 -0.3055 -0.1105 -0.2619
 1193loPI   C4B19088   2.671   8.002   7.356  0.0308 -0.0682 -0.0048
 1194loPI    C119089   6.266  16.061   4.891  0.0357  0.2049  0.0220
 1194loPI    C219090   5.981  16.337   4.937 -0.0805  0.1009 -0.0645
 1194loPI    C319091   6.051  16.181   4.576 -0.0788 -0.0502  0.0004
 1194loPI   PO419092   6.251  15.937   5.077  0.0299  0.2449 -0.0479
 1194loPI   GL119093   6.192  16.114   5.473  0.2785 -0.0813 -0.1060
 1194loPI   GL219094   5.842  16.167   5.431 -0.0752 -0.1347  0.0275
 1194loPI   C1A19095   5.998  16.169   5.936 -0.1882  0.1441  0.2921
 1194loPI   C2A19096   5.981  16.182   6.349  0.0477  0.0887 -0.1624
 1194loPI   C3A19097   5.985  16.194   6.802  0.3166  0.3462  0.0425
 1194loPI   C4A19098   5.845  16.151   7.185  0.0966  0.1263  0.2498
 1194loPI   C5A19099   5.500  15.998   7.387 -0.1481  0.1709  0.0939
 1194loPI   C6A19100   5.379  15.852   7.759  0.1781 -0.0294 -0.2669
 1194loPI   C1B19101   5.530  16.052   5.760 -0.1877  0.0983  0.2208
 1194loPI   C2B19102   5.439  16.104   6.161  0.1012  0.2469 -0.0120
 1194loPI   C3B19103   5.472  16.176   6.576  0.2707  0.0351  0.1726
 1194loPI   C4B19104   5.400  16.148   6.910 -0.2190 -0.0260 -0.1310
 1195loPI    C119105  13.679   1.352   4.775  0.0122 -0.1351 -0.0102
 1195loPI    C219106  13.697   1.085   4.478  0.3014 -0.0722 -0.0521
 1195loPI    C319107  13.651   1.474   4.395 -0.5004 -0.1344  0.0203
 1195loPI   PO419108  13.588   1.321   5.050  0.1868  0.2140 -0.1877
 1195loPI   GL119109  13.429   1.457   5.454  0.0609 -0.1108  0.5297
 1195loPI   GL219110  13.625   1.343   5.673  0.2428  0.1178 -0.0718
 1195loPI   C1A19111  13.360   1.653   5.959 -0.1948  0.2644 -0.0727
 1195loPI   C2A19112  13.325   1.612   6.374 -0.0781  0.1395 -0.2242
 1195loPI   C3A19113  13.315   1.741   6.764  0.1566 -0.1115  0.2257
 1195loPI   C4A19114  13.337   1.726   7.128  0.0194 -0.0199 -0.0142
 1195loPI   C5A19115  13.462   1.729   7.511 -0.0729  0.1724 -0.1125
 1195loPI   C6A19116  13.302   1.756   7.871 -0.1510  0.0707  0.0716
 1195loPI   C1B19117  13.622   1.292   6.194  0.0914 -0.0877  0.2140
 1195loPI   C2B19118  13.685   1.309   6.655 -0.0127  0.0404  0.3122
 1195loPI   C3B19119  13.595   1.236   7.109 -0.1063 -0.0287  0.3253
 1195loPI   C4B19120  13.475   1.149   7.572  0.0047 -0.0295  0.3467
 1196loPI    C119121  15.232   3.285   5.071  0.0814  0.1691 -0.0419
 1196loPI    C219122  15.161   3.502   4.743 -0.1206  0.1854  0.0108
 1196loPI    C319123  15.266   3.118   4.709 -0.0898  0.2010 -0.0737
 1196loPI   PO419124  15.429   3.336   5.219 -0.0542 -0.0433 -0.0452
 1196loPI   GL119125  15.484   3.539   5.511 -0.0710  0.0220  0.0608
 1196loPI   GL219126  15.574   3.786   5.668 -0.0242  0.0683 -0.0801
 1196loPI   C1A19127  15.526   3.346   5.920  0.1176 -0.4843 -0.1373
 1196loPI   C2A19128  15.590   3.271   6.376 -0.1841 -0.2961  0.0251
 1196loPI   C3A19129  15.436   3.297   6.758  0.2067  0.1241 -0.1059
 1196loPI   C4A19130  15.529   3.282   7.115  0.0580  0.5082  0.1055
 1196loPI   C5A19131  15.364   3.252   7.476  0.2832 -0.0568 -0.1285
 1196loPI   C6A19132  15.439   3.191   7.876 -0.1608 -0.0763 -0.0998
 1196loPI   C1B19133  15.617   3.838   6.137 -0.0226 -0.0362 -0.0182
 1196loPI   C2B19134  15.601   3.791   6.562  0.2654 -0.1400  0.1847
 1196loPI   C3B19135  15.692   3.815   6.988  0.2343 -0.1104  0.0342
 1196loPI   C4B19136  15.753   3.620   7.378  0.0076  0.1486 -0.0497
 1197loPI    C119137   7.391   9.348   5.184  0.0483  0.1755 -0.2394
 1197loPI    C219138   7.480   9.069   4.912 -0.1199  0.0468 -0.1646
 1197loPI    C319139   7.532   9.456   4.825  0.2192 -0.0098 -0.2296
 1197loPI   PO419140   7.344   9.163   5.403  0.0748 -0.5370  0.0672
 1197loPI   GL119141   7.462   9.081   5.791 -0.4443 -0.1430 -0.1568
 1197loPI   GL219142   7.726   8.998   5.951 -0.2398  0.1769  0.1439
 1197loPI   C1A19143   7.267   8.802   6.115  0.0651  0.2127 -0.1763
 1197loPI   C2A19144   7.251   8.647   6.498  0.4975  0.3861  0.0759
 1197loPI   C3A19145   7.346   8.675   6.894  0.0959  0.0975  0.0041
 1197loPI   C4A19146   7.033   8.745   7.194  0.1672  0.1065 -0.2444
 1197loPI   C5A19147   6.636   8.467   7.273  0.1230  0.2088  0.0382
 1197loPI   C6A19148   6.428   8.513   7.539  0.0030 -0.0870 -0.1180
 1197loPI   C1B19149   7.712   8.961   6.328  0.1022 -0.0689 -0.3062
 1197loPI   C2B19150   7.694   9.151   6.658  0.3057  0.0428  0.0743
 1197loPI   C3B19151   7.673   8.980   7.093 -0.0389 -0.1137 -0.0088
 1197loPI   C4B19152   7.478   8.727   7.439  0.2259  0.1602 -0.1066
 1198loPI    C119153  13.342  18.384   5.320  0.1736  0.0301  0.2170
 1198loPI    C219154  13.493  18.472   4.960 -0.0023  0.1551  0.1721
 1198loPI    C319155  13.427  18.091   5.062 -0.1198  0.1291  0.0022
 1198loPI   PO419156  13.367  18.541   5.492 -0.1154 -0.0308 -0.0828
 1198loPI   GL119157  13.296  18.665   5.908  0.3440  0.0675  0.2098
 1198loPI   GL219158  13.296  18.270   5.873 -0.1401  0.0487 -0.1353
 1198loPI   C1A19159  13.289  18.673   6.418  0.2138 -0.0090 -0.1304
 1198loPI   C2A19160  13.221  18.708   6.873 -0.1405  0.1354  0.1253
 1198loPI   C3A19161  13.045  18.626   7.241  0.2423 -0.0744 -0.1235
 1198loPI   C4A19162  12.816  18.724   7.538 -0.1631 -0.1097 -0.2802
 1198loPI   C5A19163  12.834  18.929   7.890  0.3352 -0.1356  0.1554
 1198loPI   C6A19164  12.512  19.106   8.079 -0.0381 -0.3875  0.1660
 1198loPI   C1B19165  13.490  18.315   6.239 -0.1162 -0.0971 -0.1038
 1198loPI   C2B19166  13.565  18.278   6.656 -0.1418  0.1452 -0.4810
 1198loPI   C3B19167  13.544  18.320   7.107 -0.0298  0.3427 -0.1032
 1198loPI   C4B19168  13.540  18.277   7.520  0.1629  0.3580 -0.0568
 1199loPI    C119169  11.264  12.344   5.221 -0.1414 -0.0788  0.1648
 1199loPI    C219170  11.144  12.625   5.479 -0.1825 -0.0819  0.1489
 1199loPI    C319171  11.032  12.645   5.095 -0.2355 -0.1528  0.1606
 1199loPI   PO419172  11.563  12.292   5.285 -0.0180  0.2116  0.0058
 1199loPI   GL119173  11.698  12.064   5.642 -0.0631  0.0018 -0.2002
 1199loPI   GL219174  11.318  12.148   5.702 -0.0928  0.5666 -0.0578
 1199loPI   C1A19175  11.933  11.991   6.029  0.1665  0.3781  0.1029
 1199loPI   C2A19176  11.914  12.004   6.464 -0.2313 -0.1091 -0.1665
 1199loPI   C3A19177  11.819  11.899   6.903 -0.2086 -0.1215 -0.4672
 1199loPI   C4A19178  11.972  11.841   7.282  0.0533 -0.0829  0.1343
 1199loPI   C5A19179  12.161  11.795   7.751 -0.0338 -0.0559 -0.1305
 1199loPI   C6A19180  11.883  11.787   8.157  0.0481 -0.3678 -0.0854
 1199loPI   C1B19181  11.470  12.277   6.119 -0.2270 -0.1185 -0.0943
 1199loPI   C2B19182  11.425  12.174   6.578  0.1667 -0.3870 -0.2551
 1199loPI   C3B19183  11.324  12.209   6.942  0.0436  0.3369  0.0854
 1199loPI   C4B19184  11.405  12.341   7.419 -0.0326 -0.0329  0.1442
 1200loPI    C119185   8.431  17.925   5.239 -0.0453 -0.0732  0.1500
 1200loPI    C219186   8.400  18.140   4.904 -0.1336 -0.1039  0.1385
 1200loPI    C319187   8.634  18.268   5.202 -0.2388  0.0432  0.1590
 1200loPI   PO419188   8.258  17.861   5.347 -0.3666 -0.1279 -0.3292
 1200loPI   GL119189   7.949  17.839   5.593  0.2722  0.0560  0.1306
 1200loPI   GL219190   7.677  17.954   5.531  0.1571 -0.0150  0.0903
 1200loPI   C1A19191   7.974  17.887   5.937 -0.0837  0.0942  0.0605
 1200loPI   C2A19192   7.901  17.935   6.378  0.0636  0.0766  0.0571
 1200loPI   C3A19193   7.857  18.141   6.770 -0.1395  0.0972  0.2992
 1200loPI   C4A19194   7.832  18.234   7.187  0.2098  0.1650  0.0085
 1200loPI   C5A19195   7.725  18.333   7.623  0.1850 -0.2496  0.1602
 1200loPI   C6A19196   7.769  18.717   7.978 -0.1476  0.1997 -0.0279
 1200loPI   C1B19197   7.445  17.995   5.950 -0.1336 -0.1948  0.0167
 1200loPI   C2B19198   7.376  18.046   6.424 -0.1304  0.0273  0.0200
 1200loPI   C3B19199   7.370  18.035   6.857 -0.0031  0.2426  0.3872
 1200loPI   C4B19200   7.378  18.149   7.349  0.0368  0.1635  0.0855
 1201loPI    C119201  12.409  13.821   5.286  0.0307 -0.0012  0.0526
 1201loPI    C219202  12.084  14.029   5.179 -0.0159 -0.0843  0.0315
 1201loPI    C319203  12.321  13.871   4.899 -0.0226 -0.1242  0.0482
 1201loPI   PO419204  12.396  13.887   5.559  0.0047  0.0507  0.0559
 1201loPI   GL119205  12.328  13.830   5.987 -0.3970  0.0078  0.1381
 1201loPI   GL219206  12.101  13.921   5.941 -0.2255 -0.1585  0.0973
 1201loPI   C1A19207  12.553  13.572   6.295 -0.1508 -0.0743  0.1787
 1201loPI   C2A19208  12.601  13.589   6.657  0.0791  0.2821 -0.3750
 1201loPI   C3A19209  12.725  13.753   7.043 -0.0524 -0.3356 -0.0612
 1201loPI   C4A19210  13.013  13.880   7.393 -0.1768 -0.1142 -0.0151
 1201loPI   C5A19211  13.191  14.019   7.714 -0.1696 -0.1105 -0.1632
 1201loPI   C6A19212  13.457  14.096   8.079 -0.2168  0.2455 -0.2065
 1201loPI   C1B19213  11.909  14.085   6.271 -0.0600  0.0237 -0.1202
 1201loPI   C2B19214  11.867  13.943   6.684 -0.0730  0.0692  0.3394
 1201loPI   C3B19215  12.164  14.109   6.932 -0.1720 -0.1296 -0.3043
 1201loPI   C4B19216  12.569  14.241   7.065  0.0494  0.1454 -0.0134
 1202loPI    C119217  12.835   3.657   5.376 -0.0387 -0.2466  0.1728
 1202loPI    C219218  12.819   3.291   5.216  0.2659 -0.1540 -0.0808
 1202loPI    C319219  12.745   3.612   4.989  0.2240 -0.0450  0.0848
 1202loPI   PO419220  13.128   3.592   5.552  0.0824  0.0918 -0.2031
 1202loPI   GL119221  13.251   3.780   5.976 -0.1022 -0.1545  0.0565
 1202loPI   GL219222  12.908   4.014   5.818 -0.3479 -0.1831 -0.1021
 1202loPI   C1A19223  13.293   3.721   6.449  0.2592  0.3297  0.0080
 1202loPI   C2A19224  13.469   3.588   6.785  0.2523 -0.1508  0.1704
 1202loPI   C3A19225  13.696   3.417   7.094  0.2074  0.1668  0.3346
 1202loPI   C4A19226  13.547   3.589   7.500 -0.2767  0.1474 -0.1630
 1202loPI   C5A19227  13.259   3.640   7.894 -0.1410  0.0440 -0.0738
 1202loPI   C6A19228  12.967   3.971   8.076 -0.1815 -0.0562  0.0355
 1202loPI   C1B19229  12.910   4.029   6.266 -0.1385  0.2817  0.4928
 1202loPI   C2B19230  12.599   3.823   6.498 -0.1782  0.2723  0.1453
 1202loPI   C3B19231  12.617   3.833   6.993  0.2397 -0.0412 -0.0370
 1202loPI   C4B19232  12.653   3.914   7.408  0.1065  0.0395 -0.0281
 1203loPI    C119233   0.401  16.152   5.297  0.0089  0.1297 -0.0902
 1203loPI    C219234   0.518  16.236   4.924 -0.1824 -0.0252 -0.1868
 1203loPI    C319235   0.129  16.220   5.012 -0.1388 -0.0647  0.0024
 1203loPI   PO419236   0.610  16.051   5.432 -0.2718  0.2265  0.2335
 1203loPI   GL119237   0.591  16.306   5.817  0.1267  0.1462  0.1605
 1203loPI   GL219238   0.283  16.225   5.828 -0.3078  0.2050  0.1493
 1203loPI   C1A19239   0.603  16.212   6.268  0.0391 -0.2449 -0.1057
 1203loPI   C2A19240   0.577  16.159   6.675 -0.3358  0.2123  0.1947
 1203loPI   C3A19241   0.581  16.144   7.024  0.1631 -0.0573 -0.3105
 1203loPI   C4A19242   0.626  16.129   7.509  0.1348 -0.4968  0.1043
 1203loPI   C5A19243   0.554  16.242   7.916 -0.1128 -0.2523  0.1388
 1203loPI   C6A19244   0.722  16.059   8.159 -0.2137 -0.2199  0.1869
 1203loPI   C1B19245   0.127  16.197   6.226  0.1634 -0.0191 -0.0490
 1203loPI   C2B19246   0.061  16.080   6.629  0.1491  0.0005  0.0492
 1203loPI   C3B19247   0.085  16.127   6.970  0.0360  0.0541 -0.0664
 1203loPI   C4B19248   0.174  16.102   7.396  0.2216  0.1429  0.1123
 1204loPI    C119249  11.484  14.100   5.043 -0.0863 -0.0479 -0.1402
 1204loPI    C219250  11.710  13.816   4.875  0.0872  0.1442 -0.2348
 1204loPI    C319251  11.367  13.926   4.702 -0.0684 -0.1292 -0.1049
 1204loPI   PO419252  11.578  14.027   5.340  0.0749  0.0976  0.0477
 1204loPI   GL119253  11.610  14.110   5.798  0.1140 -0.0741  0.1002
 1204loPI   GL219254  11.729  14.426   5.931  0.0039  0.1267 -0.0229
 1204loPI   C1A19255  11.427  14.148   6.215  0.0664  0.0273 -0.1439
 1204loPI   C2A19256  11.097  14.008   6.502 -0.1451 -0.1369  0.0428
 1204loPI   C3A19257  10.788  14.114   6.885  0.0582  0.2383 -0.2048
 1204loPI   C4A19258  10.655  14.093   7.287  0.1955 -0.2702 -0.0626
 1204loPI   C5A19259  10.316  14.209   7.639  0.0599 -0.2558  0.0695
 1204loPI   C6A19260  10.319  14.353   8.004  0.0239  0.1257  0.4987
 1204loPI   C1B19261  11.751  14.639   6.328 -0.0501  0.2928  0.1802
 1204loPI   C2B19262  11.825  14.444   6.708  0.0087 -0.3107  0.0800
 1204loPI   C3B19263  11.646  14.301   7.001  0.2792  0.0147 -0.1657
 1204loPI   C4B19264  11.460  14.428   7.398  0.0505  0.2507 -0.0984
 1205loPI    C119265  14.750   4.354   5.065 -0.1533 -0.0421 -0.2872
 1205loPI    C219266  14.373   4.318   5.192 -0.1100 -0.2397 -0.2113
 1205loPI    C319267  14.453   4.314   4.800 -0.1892 -0.1690 -0.2284
 1205loPI   PO419268  14.912   4.527   5.162  0.3905  0.2867  0.0804
 1205loPI   GL119269  14.913   4.584   5.612 -0.0457 -0.0914  0.2189
 1205loPI   GL219270  14.619   4.439   5.664  0.1827 -0.0383 -0.1562
 1205loPI   C1A19271  14.860   4.616   6.031  0.0208 -0.0213 -0.0658
 1205loPI   C2A19272  14.908   4.569   6.422 -0.0498  0.0510 -0.0209
 1205loPI   C3A19273  15.078   4.600   6.828  0.3238  0.1727 -0.3654
 1205loPI   C4A19274  15.087   4.624   7.253 -0.1596  0.3116 -0.1088
 1205loPI   C5A19275  15.063   4.643   7.728 -0.0252 -0.0695 -0.0818
 1205loPI   C6A19276  14.781   4.758   8.074 -0.1352  0.3567 -0.0249
 1205loPI   C1B19277  14.640   4.054   5.878  0.1796 -0.0810 -0.2139
 1205loPI   C2B19278  14.760   4.088   6.351 -0.0975  0.1089 -0.2373
 1205loPI   C3B19279  14.807   4.080   6.744  0.1376 -0.0469 -0.2707
 1205loPI   C4B19280  14.929   4.066   7.240  0.1715  0.1317 -0.1325
 1206loPI    C119281   0.294   9.636   5.242 -0.0039  0.2059  0.0213
 1206loPI    C219282   0.147   9.325   5.037 -0.0091  0.0772  0.2172
 1206loPI    C319283   0.019   9.696   4.957  0.3514  0.0908 -0.3564
 1206loPI   PO419284   0.287   9.577   5.443  0.2567  0.3087  0.1984
 1206loPI   GL119285   0.109   9.477   5.782  0.0286  0.0086 -0.0937
 1206loPI   GL219286  -0.101   9.302   5.911 -0.0732  0.3531  0.0787
 1206loPI   C1A19287   0.131   9.756   6.064 -0.0557  0.0573 -0.1723
 1206loPI   C2A19288   0.096   9.860   6.439 -0.0866 -0.4292 -0.1061
 1206loPI   C3A19289   0.097   9.820   6.953  0.1274 -0.0565  0.2274
 1206loPI   C4A19290   0.105   9.833   7.431 -0.0806 -0.0998 -0.0397
 1206loPI   C5A19291   0.078   9.719   7.779 -0.3707  0.0300  0.1725
 1206loPI   C6A19292  -0.168   9.393   7.959 -0.3424  0.0602  0.0158
 1206loPI   C1B19293  -0.143   9.394   6.335 -0.0361  0.0133 -0.0550
 1206loPI   C2B19294  -0.154   9.363   6.773 -0.3805 -0.0482  0.0324
 1206loPI   C3B19295  -0.062   9.399   7.137  0.1379 -0.2284  0.0539
 1206loPI   C4B19296  -0.054   9.296   7.397  0.2365 -0.0351  0.3988
 1207loPI    C119297  15.012  13.561   5.322 -0.1848  0.2102 -0.0770
 1207loPI    C219298  15.376  13.630   5.172 -0.1696 -0.0497 -0.1639
 1207loPI    C319299  15.053  13.679   4.942 -0.1726 -0.0613 -0.1622
 1207loPI   PO419300  14.981  13.307   5.477 -0.0019  0.0010  0.0808
 1207loPI   GL119301  15.000  13.177   5.899  0.2278 -0.1214  0.0985
 1207loPI   GL219302  15.353  13.214   6.022 -0.1961 -0.1136  0.0988
 1207loPI   C1A19303  14.847  12.946   6.127 -0.2165  0.1902  0.2460
 1207loPI   C2A19304  15.018  13.137   6.543 -0.0360 -0.1078  0.1878
 1207loPI   C3A19305  15.195  13.092   7.057  0.0579 -0.2004  0.2887
 1207loPI   C4A19306  15.114  13.244   7.508  0.1046  0.0317 -0.3514
 1207loPI   C5A19307  14.725  13.357   7.816  0.1249  0.0108 -0.3544
 1207loPI   C6A19308  14.722  13.090   8.189  0.1853  0.0956 -0.1413
 1207loPI   C1B19309  15.578  13.220   6.385  0.2178  0.0409 -0.1589
 1207loPI   C2B19310  15.776  13.625   6.547 -0.0865  0.4936 -0.4791
 1207loPI   C3B19311  15.826  13.733   6.921 -0.0276 -0.0520 -0.1832
 1207loPI   C4B19312  15.776  13.666   7.372 -0.0597 -0.0399 -0.3436
 1208loPI    C119313   1.238   0.586   5.030  0.2741 -0.0132  0.2588
 1208loPI    C219314   1.330   0.971   4.975  0.1801 -0.0193  0.0493
 1208loPI    C319315   1.322   0.721   4.663  0.0736 -0.1542  0.1590
 1208loPI   PO419316   1.307   0.466   5.322 -0.2642 -0.0604  0.1389
 1208loPI   GL119317   1.478   0.485   5.695 -0.1705 -0.1344 -0.2170
 1208loPI   GL219318   1.705   0.265   5.721  0.0807 -0.1678 -0.0609
 1208loPI   C1A19319   1.414   0.460   6.043 -0.2659 -0.0525  0.0901
 1208loPI   C2A19320   1.427   0.660   6.437  0.2111 -0.2601 -0.1420
 1208loPI   C3A19321   1.409   0.665   6.924 -0.0531  0.2742 -0.0677
 1208loPI   C4A19322   1.364   0.479   7.212  0.0187 -0.3974  0.1116
 1208loPI   C5A19323   1.287   0.344   7.617  0.0034 -0.3455 -0.1664
 1208loPI   C6A19324   1.015   0.294   7.977  0.0449  0.1163 -0.0264
 1208loPI   C1B19325   2.019   0.220   6.022  0.3785 -0.0064 -0.1824
 1208loPI   C2B19326   2.190   0.163   6.445  0.0665  0.1727 -0.1273
 1208loPI   C3B19327   2.201   0.138   6.866 -0.1147  0.1789  0.0660
 1208loPI   C4B19328   2.320   0.191   7.292 -0.0415 -0.0990  0.2886
 1209loPI    C119329  14.181  15.802   5.452  0.1796 -0.2297 -0.0618
 1209loPI    C219330  14.389  15.724   5.119  0.0024 -0.2521 -0.1684
 1209loPI    C319331  14.475  16.048   5.338  0.1584 -0.2694 -0.2037
 1209loPI   PO419332  14.107  15.598   5.490  0.1652  0.1454  0.0389
 1209loPI   GL119333  14.251  15.529   5.922 -0.1634 -0.0101 -0.0215
 1209loPI   GL219334  14.096  15.275   5.881  0.3586 -0.4334 -0.0090
 1209loPI   C1A19335  14.165  15.667   6.307  0.0837 -0.1222  0.0872
 1209loPI   C2A19336  14.303  15.736   6.676 -0.1460 -0.2092  0.0588
 1209loPI   C3A19337  14.328  15.853   7.138  0.0503  0.0291 -0.0582
 1209loPI   C4A19338  14.469  15.760   7.544 -0.0411 -0.4344 -0.2490
 1209loPI   C5A19339  14.184  15.676   7.918  0.0905 -0.0106  0.1100
 1209loPI   C6A19340  14.157  15.385   8.233  0.1919 -0.1198  0.0858
 1209loPI   C1B19341  14.009  15.152   6.235  0.0397 -0.0273  0.3472
 1209loPI   C2B19342  14.072  15.273   6.763  0.0574  0.0241 -0.4637
 1209loPI   C3B19343  14.134  15.268   7.132 -0.0900  0.0692  0.3401
 1209loPI   C4B19344  14.200  15.342   7.528 -0.1707 -0.3923  0.0719
 1210loPI    C119345   9.708  14.082   5.460 -0.1711 -0.1904  0.1861
 1210loPI    C219346   9.335  14.099   5.317 -0.0787 -0.0252 -0.0412
 1210loPI    C319347   9.641  14.219   5.090  0.1414 -0.4083  0.0448
 1210loPI   PO419348   9.702  13.937   5.566 -0.0929 -0.0988  0.0768
 1210loPI   GL119349   9.646  13.720   5.938  0.0947 -0.1642 -0.0861
 1210loPI   GL219350   9.514  13.350   5.907 -0.0928 -0.2523 -0.3147
 1210loPI   C1A19351   9.912  13.637   6.251 -0.0751  0.0280 -0.1467
 1210loPI   C2A19352  10.070  13.663   6.691  0.0991  0.0183 -0.1237
 1210loPI   C3A19353   9.847  13.712   7.102 -0.0080 -0.3143 -0.0180
 1210loPI   C4A19354   9.478  13.709   7.506  0.1982 -0.1085  0.2539
 1210loPI   C5A19355   9.340  13.390   7.657 -0.0401 -0.1213  0.0277
 1210loPI   C6A19356   9.092  13.067   7.702  0.1337 -0.2444  0.0538
 1210loPI   C1B19357   9.384  13.351   6.315  0.0095 -0.1457 -0.2182
 1210loPI   C2B19358   9.511  13.692   6.566 -0.1047 -0.0738  0.1598
 1210loPI   C3B19359   9.289  13.978   6.686 -0.2080 -0.1391  0.0111
 1210loPI   C4B19360   9.027  14.124   6.989 -0.1361 -0.0671 -0.0069
 1211loPI    C119361   6.499   0.506   4.907 -0.1309 -0.0984  0.1012
 1211loPI    C219362   6.328   0.789   4.681 -0.0172 -0.0782  0.0397
 1211loPI    C319363   6.718   0.709   4.640 -0.0122 -0.1264  0.1767
 1211loPI   PO419364   6.442   0.525   5.180 -0.1560  0.3089  0.1416
 1211loPI   GL119365   6.604   0.516   5.594  0.1565 -0.3398  0.1264
 1211loPI   GL219366   6.847   0.388   5.489  0.2419 -0.0610 -0.0728
 1211loPI   C1A19367   6.358   0.540   5.925 -0.3188 -0.0033 -0.0769
 1211loPI   C2A19368   6.306   0.509   6.425  0.0749 -0.2599 -0.1887
 1211loPI   C3A19369   6.298   0.523   6.880 -0.3716 -0.1193 -0.1622
 1211loPI   C4A19370   6.283   0.449   7.239  0.1129 -0.1206 -0.3721
 1211loPI   C5A19371   6.186   0.145   7.537  0.1225  0.2531  0.1085
 1211loPI   C6A19372   6.146   0.120   8.025 -0.1742  0.1293 -0.1332
 1211loPI   C1B19373   6.867   0.450   5.999 -0.1762  0.1553  0.0140
 1211loPI   C2B19374   6.783   0.542   6.471 -0.0205 -0.0007 -0.0887
 1211loPI   C3B19375   6.854   0.492   6.919  0.1268  0.1311 -0.0786
 1211loPI   C4B19376   6.873   0.711   7.330  0.3466 -0.0707 -0.1399
 1212loPI    C119377   9.008   7.397   5.200 -0.0278  0.1977 -0.1498
 1212loPI    C219378   9.169   7.112   4.971 -0.0618  0.0824 -0.0320
 1212loPI    C319379   9.183   7.494   4.854  0.2076  0.0629 -0.0715
 1212loPI   PO419380   8.754   7.298   5.231 -0.1314 -0.0132 -0.2958
 1212loPI   GL119381   8.690   7.314   5.688 -0.1347  0.1339  0.1858
 1212loPI   GL219382   8.413   7.387   5.751  0.0430 -0.1545 -0.0872
 1212loPI   C1A19383   8.552   6.920   5.897 -0.1667  0.0812  0.0645
 1212loPI   C2A19384   8.493   6.827   6.362 -0.1834  0.1873 -0.3376
 1212loPI   C3A19385   8.452   6.784   6.817 -0.3884  0.1346 -0.1654
 1212loPI   C4A19386   8.396   6.695   7.215  0.2067  0.1371  0.1448
 1212loPI   C5A19387   8.158   6.898   7.609  0.0403 -0.0584  0.2788
 1212loPI   C6A19388   7.964   7.068   7.810 -0.3780 -0.2257  0.0220
 1212loPI   C1B19389   8.714   7.253   6.202 -0.1537  0.1065 -0.0545
 1212loPI   C2B19390   8.825   7.110   6.646  0.1701 -0.0076 -0.0645
 1212loPI   C3B19391   8.842   7.122   7.020  0.0148  0.1887 -0.1054
 1212loPI   C4B19392   8.773   6.914   7.445 -0.2517 -0.1574 -0.3918
 1213loPI    C119393  13.669  15.902   5.357  0.0278  0.3201 -0.1270
 1213loPI    C219394  13.588  15.868   4.967  0.0189 -0.0034 -0.0990
 1213loPI    C319395  13.677  15.543   5.182  0.0934  0.1819  0.1547
 1213loPI   PO419396  13.517  16.096   5.412  0.2683 -0.4577  0.2838
 1213loPI   GL119397  13.556  16.277   5.793  0.2276  0.3028 -0.0496
 1213loPI   GL219398  13.397  16.007   5.893  0.1484  0.1236  0.2576
 1213loPI   C1A19399  13.273  16.467   6.060  0.2810  0.3136 -0.1256
 1213loPI   C2A19400  13.137  16.436   6.458 -0.3877 -0.1601 -0.1593
 1213loPI   C3A19401  13.248  16.493   6.866 -0.1334  0.1509  0.3354
 1213loPI   C4A19402  13.197  16.568   7.331  0.5001  0.3191 -0.1377
 1213loPI   C5A19403  13.293  16.531   7.798 -0.0340  0.0877 -0.0463
 1213loPI   C6A19404  13.499  16.680   8.136  0.1220  0.0893 -0.1149
 1213loPI   C1B19405  13.561  16.140   6.252  0.0406 -0.0216  0.1637
 1213loPI   C2B19406  13.494  16.121   6.651 -0.4069 -0.0426  0.1135
 1213loPI   C3B19407  13.547  16.071   7.044  0.1210 -0.2067 -0.4016
 1213loPI   C4B19408  13.552  16.109   7.481 -0.2531  0.2692 -0.0631
 1214loPI    C119409   8.351  10.374   5.597  0.2356  0.0120  0.2473
 1214loPI    C219410   8.512  10.594   5.304  0.0147 -0.0685  0.0626
 1214loPI    C319411   8.535  10.719   5.684  0.0395  0.1880 -0.0216
 1214loPI   PO419412   8.384  10.112   5.520  0.0551  0.1440  0.1058
 1214loPI   GL119413   8.274   9.871   5.906 -0.0269  0.0507  0.2095
 1214loPI   GL219414   8.109  10.157   5.956  0.2290  0.0228  0.2296
 1214loPI   C1A19415   8.423   9.724   6.236 -0.1723  0.0358  0.0377
 1214loPI   C2A19416   8.456   9.843   6.604  0.3157 -0.0013  0.2576
 1214loPI   C3A19417   8.454   9.860   6.955  0.1284 -0.2603  0.0673
 1214loPI   C4A19418   8.343   9.732   7.349  0.0069  0.0659 -0.2020
 1214loPI   C5A19419   8.004   9.715   7.631  0.2820 -0.2128  0.1783
 1214loPI   C6A19420   7.599   9.628   7.713 -0.0235  0.4064  0.0594
 1214loPI   C1B19421   8.232  10.224   6.377 -0.1924 -0.1832 -0.3408
 1214loPI   C2B19422   8.152  10.210   6.830  0.1089  0.1597  0.3773
 1214loPI   C3B19423   8.101  10.145   7.306 -0.0368 -0.1244 -0.2191
 1214loPI   C4B19424   8.378  10.172   7.621 -0.1495 -0.1345  0.0682
 1215loPI    C119425  10.782  13.503   5.383 -0.1532 -0.1368 -0.1455
 1215loPI    C219426  10.445  13.708   5.446  0.0918  0.2794 -0.1507
 1215loPI    C319427  10.693  13.817   5.153  0.2235 -0.0371 -0.1612
 1215loPI   PO419428  10.855  13.391   5.638  0.0665  0.2042 -0.1257
 1215loPI   GL119429  10.567  13.404   5.920  0.1096 -0.0871 -0.3091
 1215loPI   GL219430  10.656  13.798   5.954  0.0122  0.2245 -0.0858
 1215loPI   C1A19431  10.793  13.148   6.222  0.2929 -0.0698  0.2790
 1215loPI   C2A19432  11.019  12.915   6.486 -0.2912  0.1010 -0.0641
 1215loPI   C3A19433  10.993  13.066   6.957  0.1223  0.0125 -0.3814
 1215loPI   C4A19434  11.035  13.200   7.367  0.0229  0.0668 -0.1583
 1215loPI   C5A19435  11.120  13.491   7.746 -0.3101  0.2026  0.1136
 1215loPI   C6A19436  10.788  13.448   8.014 -0.1920  0.1822  0.0778
 1215loPI   C1B19437  10.556  13.630   6.366 -0.1725 -0.2915  0.1867
 1215loPI   C2B19438  10.559  13.698   6.843  0.4313 -0.2829  0.2813
 1215loPI   C3B19439  10.342  13.643   7.284  0.4178 -0.1204  0.1875
 1215loPI   C4B19440  10.031  13.710   7.603 -0.2250  0.1513  0.0375
 1216loPI    C119441   6.314   7.807   4.738 -0.0402 -0.2007  0.0430
 1216loPI    C219442   6.619   7.549   4.728  0.0807 -0.0556 -0.0559
 1216loPI    C319443   6.377   7.584   4.412  0.1724  0.0796 -0.1121
 1216loPI   PO419444   6.371   7.832   5.062 -0.1030  0.3065 -0.0486
 1216loPI   GL119445   6.054   7.949   5.391  0.2330  0.1208  0.2444
 1216loPI   GL219446   5.875   8.224   5.533 -0.0742 -0.0211  0.4060
 1216loPI   C1A19447   5.963   7.772   5.839 -0.1746  0.0809 -0.0825
 1216loPI   C2A19448   5.802   7.753   6.238  0.2739  0.2572  0.2106
 1216loPI   C3A19449   5.605   7.745   6.627 -0.3543  0.1774  0.2327
 1216loPI   C4A19450   5.766   7.905   6.934  0.3928 -0.2491 -0.0570
 1216loPI   C5A19451   5.731   7.889   7.368  0.1529  0.1940 -0.0941
 1216loPI   C6A19452   5.416   8.104   7.680  0.2537  0.1670  0.1390
 1216loPI   C1B19453   5.652   8.613   5.676  0.1030 -0.2351  0.0958
 1216loPI   C2B19454   5.712   8.754   6.044  0.0677 -0.2159 -0.1191
 1216loPI   C3B19455   5.402   8.784   6.426 -0.1881  0.0726 -0.2192
 1216loPI   C4B19456   5.154   8.724   6.814  0.0510 -0.0249 -0.3186
 1217loPI    C119457  11.394   0.350   5.181 -0.2447 -0.3197 -0.0461
 1217loPI    C219458  11.766   0.387   5.038 -0.2262  0.2844  0.1313
 1217loPI    C319459  11.496   0.168   4.840  0.1809 -0.0456 -0.0731
 1217loPI   PO419460  11.453   0.424   5.462 -0.1407 -0.2931  0.0747
 1217loPI   GL119461  11.505   0.030   5.846  0.1180  0.0774  0.2544
 1217loPI   GL219462  11.426   0.377   5.962  0.0902 -0.1049  0.1005
 1217loPI   C1A19463  11.629  -0.068   6.199  0.1396 -0.0766 -0.4082
 1217loPI   C2A19464  11.897  -0.046   6.553  0.2085 -0.3300 -0.1432
 1217loPI   C3A19465  12.231  -0.041   6.905 -0.2011 -0.2258  0.2511
 1217loPI   C4A19466  12.490  -0.357   7.149  0.2452 -0.0151 -0.0442
 1217loPI   C5A19467  12.371  -0.661   7.183  0.1318  0.2352 -0.0079
 1217loPI   C6A19468  12.121  -1.098   7.037 -0.0835 -0.2925  0.0417
 1217loPI   C1B19469  11.325   0.376   6.372 -0.1932  0.2834 -0.1199
 1217loPI   C2B19470  11.453   0.229   6.759  0.0541 -0.0117 -0.0448
 1217loPI   C3B19471  11.759   0.028   7.036 -0.0721 -0.1129 -0.0048
 1217loPI   C4B19472  12.007  -0.236   7.338 -0.2935 -0.2783  0.1919
 1218loPI    C119473   9.394  10.724   5.177  0.1379 -0.0400  0.2193
 1218loPI    C219474   9.527  11.100   5.157 -0.0640  0.0214 -0.0191
 1218loPI    C319475   9.454  10.896   4.821  0.1245 -0.2617  0.1078
 1218loPI   PO419476   9.280  10.665   5.431  0.0201 -0.1200 -0.1839
 1218loPI   GL119477   9.430  10.429   5.708 -0.3336 -0.1751  0.2826
 1218loPI   GL219478   9.234  10.188   5.785 -0.1081 -0.1509  0.0070
 1218loPI   C1A19479   9.658  10.497   6.112  0.3038  0.0747  0.1446
 1218loPI   C2A19480   9.708  10.608   6.520  0.1944  0.1354 -0.0393
 1218loPI   C3A19481   9.681  10.620   7.031  0.1042  0.0272 -0.1529
 1218loPI   C4A19482   9.855  10.393   7.379  0.1251  0.2594  0.0002
 1218loPI   C5A19483   9.800   9.997   7.450  0.0393  0.0865 -0.0200
 1218loPI   C6A19484   9.980   9.580   7.386  0.1374 -0.1046  0.0925
 1218loPI   C1B19485   9.326  10.097   6.188 -0.0983 -0.1824 -0.0136
 1218loPI   C2B19486   9.547  10.154   6.516  0.1219  0.2328  0.1318
 1218loPI   C3B19487   9.552  10.211   6.767 -0.2853 -0.1137 -0.1632
 1218loPI   C4B19488   9.434  10.222   7.174 -0.0997  0.2695  0.0355
 1219loPI    C119489   5.372   5.471   5.106  0.0836 -0.1022  0.1396
 1219loPI    C219490   5.468   5.165   4.868  0.0809  0.1263 -0.1621
 1219loPI    C319491   5.670   5.509   4.842 -0.1238  0.2566 -0.0515
 1219loPI   PO419492   5.399   5.384   5.348 -0.1041  0.1262 -0.1005
 1219loPI   GL119493   5.110   5.441   5.603  0.0978  0.2425  0.3410
 1219loPI   GL219494   4.884   5.600   5.588  0.2703 -0.0742 -0.1013
 1219loPI   C1A19495   5.188   5.293   6.004  0.2313 -0.4723  0.4550
 1219loPI   C2A19496   5.175   5.374   6.431 -0.2838  0.1811  0.1158
 1219loPI   C3A19497   5.140   5.455   6.843 -0.1391 -0.1675  0.2143
 1219loPI   C4A19498   5.053   5.441   7.209 -0.1191 -0.1020 -0.1733
 1219loPI   C5A19499   5.202   5.606   7.552 -0.0907 -0.1512 -0.1046
 1219loPI   C6A19500   5.101   5.844   7.859  0.2090 -0.2710  0.2693
 1219loPI   C1B19501   4.850   5.752   6.034 -0.2152 -0.1253 -0.1699
 1219loPI   C2B19502   4.865   5.760   6.458  0.1068 -0.0079  0.1122
 1219loPI   C3B19503   4.812   5.868   6.947 -0.1861  0.1429 -0.0286
 1219loPI   C4B19504   4.856   5.970   7.418 -0.0620 -0.2550 -0.0823
 1220loPI    C119505   7.499   7.680   5.146 -0.0041  0.0276 -0.0490
 1220loPI    C219506   7.700   7.746   4.806 -0.0248 -0.3534 -0.1397
 1220loPI    C319507   7.480   7.414   4.847 -0.2896 -0.1506  0.1229
 1220loPI   PO419508   7.651   7.780   5.312 -0.2426  0.2712 -0.0608
 1220loPI   GL119509   7.591   8.015   5.657 -0.4698 -0.1638 -0.0213
 1220loPI   GL219510   7.323   7.959   5.787  0.2845 -0.1053  0.0793
 1220loPI   C1A19511   7.810   7.974   6.072  0.1706  0.0861 -0.0748
 1220loPI   C2A19512   7.819   7.706   6.459  0.0215 -0.1084 -0.1333
 1220loPI   C3A19513   7.919   7.495   6.873  0.0367  0.3476 -0.0084
 1220loPI   C4A19514   7.977   7.439   7.343  0.1238 -0.0171  0.0229
 1220loPI   C5A19515   8.283   7.458   7.671 -0.1066 -0.0416 -0.0369
 1220loPI   C6A19516   8.628   7.590   7.887  0.0287  0.1017  0.2809
 1220loPI   C1B19517   7.264   8.072   6.216  0.0639 -0.4849  0.2438
 1220loPI   C2B19518   7.208   8.168   6.649 -0.0639  0.0143 -0.3458
 1220loPI   C3B19519   7.180   8.176   7.019  0.2956 -0.1643  0.1545
 1220loPI   C4B19520   7.504   8.172   7.440 -0.0396 -0.0888 -0.0789
 1221loPI    C119521  17.223   9.335   5.548  0.0236 -0.0914  0.0038
 1221loPI    C219522  17.393   8.986   5.450 -0.0567 -0.1455  0.0548
 1221loPI    C319523  17.080   9.122   5.241 -0.0171 -0.0972  0.0267
 1221loPI   PO419524  17.269   9.346   5.827 -0.3512  0.0945 -0.2944
 1221loPI   GL119525  17.238   9.364   6.278  0.3036 -0.0262  0.0757
 1221loPI   GL219526  16.920   9.252   6.186 -0.1799  0.3533 -0.4173
 1221loPI   C1A19527  17.155   9.369   6.697  0.1232 -0.0686  0.0086
 1221loPI   C2A19528  17.244   9.306   7.084  0.1376  0.2632 -0.1954
 1221loPI   C3A19529  17.274   9.250   7.514 -0.0837 -0.0680 -0.0862
 1221loPI   C4A19530  17.159   9.231   7.878  0.3295 -0.1650 -0.2627
 1221loPI   C5A19531  17.280   9.218   8.263  0.0813  0.0515 -0.1076
 1221loPI   C6A19532  17.385   9.426   8.640 -0.0960 -0.1068  0.0097
 1221loPI   C1B19533  16.655   9.346   6.414  0.0790  0.2959  0.0672
 1221loPI   C2B19534  16.611   9.316   6.865 -0.1532  0.0599 -0.3503
 1221loPI   C3B19535  16.675   9.231   7.296  0.2100  0.0508 -0.2292
 1221loPI   C4B19536  16.609   9.146   7.806 -0.2741  0.0663 -0.1926
 1222loPI    C119537  17.583  14.756   5.097 -0.0753  0.0292 -0.1527
 1222loPI    C219538  17.705  15.124   4.997 -0.3751  0.1740 -0.0012
 1222loPI    C319539  17.764  14.818   4.745  0.1857  0.2558  0.0174
 1222loPI   PO419540  17.280  14.809   5.121 -0.2834 -0.1552  0.1611
 1222loPI   GL119541  16.975  14.708   5.397 -0.3451  0.0196  0.0286
 1222loPI   GL219542  16.904  14.967   5.657 -0.1798  0.2343  0.2629
 1222loPI   C1A19543  17.225  14.626   5.845  0.2726  0.1714  0.0060
 1222loPI   C2A19544  17.332  14.585   6.351 -0.1814  0.0884 -0.1292
 1222loPI   C3A19545  17.302  14.689   6.737  0.0393 -0.0219 -0.2774
 1222loPI   C4A19546  17.248  14.664   7.148  0.0015 -0.2267 -0.0063
 1222loPI   C5A19547  17.278  14.418   7.564  0.0133  0.0275 -0.0472
 1222loPI   C6A19548  17.584  14.158   7.712  0.1124  0.2297 -0.2594
 1222loPI   C1B19549  17.011  14.942   6.166 -0.2004 -0.1549 -0.1951
 1222loPI   C2B19550  17.024  15.017   6.507 -0.1560 -0.2392  0.0785
 1222loPI   C3B19551  17.012  15.154   6.826  0.1024 -0.1410  0.0289
 1222loPI   C4B19552  16.951  15.114   7.215  0.0691  0.1156 -0.1497
 1223loPI    C119553  11.015   7.449   5.513 -0.1393  0.0514  0.2067
 1223loPI    C219554  11.373   7.307   5.404 -0.2866 -0.2330  0.0818
 1223loPI    C319555  11.283   7.692   5.342  0.0127 -0.1481  0.1576
 1223loPI   PO419556  10.859   7.246   5.583  0.1687  0.0263 -0.0980
 1223loPI   GL119557  10.576   6.922   5.861 -0.1051  0.1162  0.2130
 1223loPI   GL219558  10.901   6.797   5.898  0.0053 -0.0558 -0.1499
 1223loPI   C1A19559  10.603   7.012   6.290 -0.1516 -0.0222 -0.1059
 1223loPI   C2A19560  10.636   6.972   6.766  0.1300  0.0508  0.0245
 1223loPI   C3A19561  10.656   6.987   7.130 -0.3180  0.2882 -0.3223
 1223loPI   C4A19562  10.558   7.011   7.516 -0.1007  0.1877 -0.0245
 1223loPI   C5A19563  10.646   7.082   7.898 -0.1437 -0.2608  0.0884
 1223loPI   C6A19564  10.856   7.284   8.177 -0.0648  0.0136  0.1923
 1223loPI   C1B19565  11.127   6.769   6.206 -0.1447 -0.1185 -0.0293
 1223loPI   C2B19566  11.128   6.836   6.694  0.2562  0.0280 -0.0384
 1223loPI   C3B19567  11.119   6.770   7.137 -0.0883  0.0972 -0.2235
 1223loPI   C4B19568  11.113   6.677   7.554  0.0433  0.0406 -0.0180
 1224loPI    C119569   2.740  10.940   5.063 -0.0010 -0.0744  0.0189
 1224loPI    C219570   2.482  10.660   4.942  0.1393 -0.1106 -0.2042
 1224loPI    C319571   2.609  10.938   4.685 -0.0232  0.1801  0.0235
 1224loPI   PO419572   2.584  11.060   5.312 -0.0380  0.0964  0.0792
 1224loPI   GL119573   2.415  11.068   5.691 -0.1642 -0.1547 -0.0443
 1224loPI   GL219574   2.090  10.967   5.888  0.0003 -0.3828 -0.2361
 1224loPI   C1A19575   2.488  11.007   6.189 -0.0370 -0.4892 -0.1053
 1224loPI   C2A19576   2.557  11.013   6.600  0.1547 -0.1124 -0.1700
 1224loPI   C3A19577   2.602  11.103   6.971  0.1260  0.3334 -0.3774
 1224loPI   C4A19578   2.588  11.036   7.509  0.1874  0.1175  0.1669
 1224loPI   C5A19579   2.348  11.059   7.921 -0.2058 -0.1142  0.1759
 1224loPI   C6A19580   2.139  11.382   8.101  0.2835  0.3031 -0.0850
 1224loPI   C1B19581   2.035  10.898   6.338 -0.2213  0.0280 -0.0851
 1224loPI   C2B19582   2.020  10.914   6.642  0.1500 -0.1406 -0.2732
 1224loPI   C3B19583   2.002  10.957   7.071 -0.1378  0.2425  0.1438
 1224loPI   C4B19584   2.088  11.037   7.513 -0.2362 -0.1424 -0.2510
 1225loPI    C119585   9.261   4.230   5.066  0.1617  0.0933  0.1135
 1225loPI    C219586   9.624   4.226   4.898  0.0903 -0.1657 -0.0416
 1225loPI    C319587   9.304   4.121   4.683 -0.0880  0.1283  0.0737
 1225loPI   PO419588   9.345   4.204   5.315 -0.1305  0.4249  0.1192
 1225loPI   GL119589   9.668   4.142   5.657  0.0070 -0.0573  0.1239
 1225loPI   GL219590   9.707   3.825   5.751  0.0345 -0.0851 -0.1021
 1225loPI   C1A19591   9.433   4.153   6.039 -0.1340  0.2753  0.2516
 1225loPI   C2A19592   9.465   4.105   6.450  0.0973  0.3380  0.0200
 1225loPI   C3A19593   9.463   4.076   6.898  0.0376  0.0076 -0.0159
 1225loPI   C4A19594   9.346   4.012   7.310  0.1871  0.2056  0.1003
 1225loPI   C5A19595   8.993   3.776   7.371  0.1788 -0.0649 -0.1032
 1225loPI   C6A19596   8.775   3.450   7.302  0.1111  0.1627  0.0412
 1225loPI   C1B19597   9.289   3.657   5.959  0.3074 -0.1113  0.0114
 1225loPI   C2B19598   9.058   3.683   6.311 -0.1749  0.0636  0.1179
 1225loPI   C3B19599   9.120   3.709   6.822  0.1263  0.3273 -0.3797
 1225loPI   C4B19600   9.227   3.372   7.111 -0.2559 -0.2406 -0.1448
 1226loPI    C119601  12.281   7.598   5.095 -0.0033 -0.0879  0.0044
 1226loPI    C219602  12.361   7.325   4.813  0.1389 -0.0553  0.0124
 1226loPI    C319603  12.409   7.715   4.734  0.2090 -0.0476  0.0913
 1226loPI   PO419604  12.364   7.548   5.305  0.0649 -0.0746  0.0170
 1226loPI   GL119605  12.270   7.661   5.697  0.1838 -0.0686 -0.3164
 1226loPI   GL219606  12.473   7.537   5.851  0.0906  0.0937 -0.0408
 1226loPI   C1A19607  12.297   7.797   6.202 -0.0359 -0.5463  0.1142
 1226loPI   C2A19608  12.490   7.751   6.673 -0.0127  0.0882 -0.0081
 1226loPI   C3A19609  12.750   7.744   7.076 -0.1745 -0.0518 -0.1957
 1226loPI   C4A19610  13.100   7.906   7.367 -0.0087  0.0042  0.1957
 1226loPI   C5A19611  13.143   7.939   7.741  0.1574  0.2501 -0.4774
 1226loPI   C6A19612  13.131   7.923   8.255  0.1751  0.3337  0.0374
 1226loPI   C1B19613  12.440   7.278   6.278 -0.0489  0.0733  0.2217
 1226loPI   C2B19614  12.401   7.242   6.714 -0.3324  0.2669 -0.1159
 1226loPI   C3B19615  12.477   7.150   7.128  0.4236 -0.0468  0.4611
 1226loPI   C4B19616  12.403   6.691   7.159 -0.0498 -0.0972 -0.2314
 1227loPI    C119617  10.951   5.575   4.968  0.1065  0.2678 -0.2713
 1227loPI    C219618  10.831   5.883   4.743 -0.1262  0.3372 -0.0563
 1227loPI    C319619  10.591   5.568   4.795  0.0323  0.2053 -0.1158
 1227loPI   PO419620  11.070   5.692   5.209 -0.2626  0.0526  0.1086
 1227loPI   GL119621  10.860   5.849   5.618  0.0144  0.0303 -0.0103
 1227loPI   GL219622  11.149   5.692   5.714  0.0415 -0.0209  0.1976
 1227loPI   C1A19623  10.889   5.798   6.068  0.2013  0.2707 -0.1151
 1227loPI   C2A19624  10.784   5.949   6.489  0.2252 -0.0108  0.2629
 1227loPI   C3A19625  10.808   5.953   6.904  0.1505 -0.0104  0.0646
 1227loPI   C4A19626  10.826   6.114   7.283 -0.2018 -0.1131 -0.0489
 1227loPI   C5A19627  10.795   6.052   7.718 -0.0196 -0.2448  0.0729
 1227loPI   C6A19628  10.741   5.855   8.165 -0.2668  0.0075 -0.0425
 1227loPI   C1B19629  11.369   5.647   6.095 -0.3018 -0.1549  0.0975
 1227loPI   C2B19630  11.421   5.864   6.404 -0.0138 -0.1168  0.0158
 1227loPI   C3B19631  11.345   5.836   6.777  0.2461 -0.1010 -0.0423
 1227loPI   C4B19632  11.181   5.731   7.207 -0.2061  0.1688 -0.0643
 1228loPI    C119633  16.280  15.758   5.205  0.4350  0.0222 -0.2059
 1228loPI    C219634  16.244  15.585   4.847  0.0552  0.1159 -0.2168
 1228loPI    C319635  16.279  15.982   4.874 -0.1531  0.1305 -0.1416
 1228loPI   PO419636  16.396  15.539   5.355 -0.0040  0.0908  0.0929
 1228loPI   GL119637  16.460  15.258   5.699 -0.1855 -0.1463 -0.0686
 1228loPI   GL219638  16.204  15.395   5.827  0.0036  0.0371  0.0793
 1228loPI   C1A19639  16.716  15.435   5.995  0.0025 -0.1261  0.1908
 1228loPI   C2A19640  16.747  15.470   6.452  0.1823  0.0241  0.2681
 1228loPI   C3A19641  16.711  15.571   6.814  0.1689 -0.3128 -0.2673
 1228loPI   C4A19642  16.658  15.548   7.321 -0.0966  0.0890 -0.0029
 1228loPI   C5A19643  16.909  15.365   7.623  0.3645  0.0185  0.0356
 1228loPI   C6A19644  17.243  15.179   7.871  0.1865  0.0771 -0.0434
 1228loPI   C1B19645  16.138  15.422   6.300  0.1916  0.1562  0.0893
 1228loPI   C2B19646  16.211  15.421   6.713 -0.2698 -0.0718  0.0170
 1228loPI   C3B19647  16.129  15.473   7.111 -0.2061  0.0632 -0.0695
 1228loPI   C4B19648  16.227  15.475   7.538 -0.0376  0.0244  0.0888
 1229loPI    C119649  16.799  11.774   4.990 -0.3780  0.1175  0.1119
 1229loPI    C219650  16.609  11.932   4.676 -0.2669 -0.1571 -0.0975
 1229loPI    C319651  16.981  11.792   4.634 -0.2352 -0.1562  0.1686
 1229loPI   PO419652  16.816  11.878   5.250 -0.0476  0.2006  0.0332
 1229loPI   GL119653  16.736  11.991   5.629  0.2017 -0.1809  0.1239
 1229loPI   GL219654  16.495  11.957   5.858 -0.1717 -0.0642  0.0105
 1229loPI   C1A19655  16.932  11.989   6.011  0.1970 -0.1541 -0.1961
 1229loPI   C2A19656  16.943  11.932   6.529 -0.1318 -0.0974 -0.0514
 1229loPI   C3A19657  16.981  11.866   7.013 -0.1784  0.0496 -0.1325
 1229loPI   C4A19658  17.106  11.999   7.390  0.0877 -0.2540 -0.1384
 1229loPI   C5A19659  17.172  12.194   7.871 -0.2212  0.1667 -0.0773
 1229loPI   C6A19660  17.264  12.323   8.293  0.2432 -0.2952  0.0141
 1229loPI   C1B19661  16.463  11.851   6.270 -0.0553 -0.1449  0.2629
 1229loPI   C2B19662  16.403  11.862   6.725 -0.2002 -0.0642 -0.0387
 1229loPI   C3B19663  16.556  11.910   7.158  0.1837 -0.0172  0.0206
 1229loPI   C4B19664  16.686  11.844   7.675  0.1606 -0.0937  0.2318
 1230loPI    C119665  15.260   9.345   5.740  0.1812  0.0040 -0.0685
 1230loPI    C219666  15.096   9.661   5.555  0.1826  0.1052  0.1013
 1230loPI    C319667  15.270   9.372   5.341 -0.2699 -0.0358 -0.0884
 1230loPI   PO419668  15.024   9.336   5.931  0.3130  0.1707  0.1497
 1230loPI   GL119669  14.969   9.151   6.303  0.0721  0.0068  0.4159
 1230loPI   GL219670  14.729   9.013   6.422 -0.0267  0.1147  0.1184
 1230loPI   C1A19671  15.095   9.147   6.734  0.0192  0.0919 -0.1450
 1230loPI   C2A19672  15.098   9.107   7.176 -0.0343  0.0869  0.1357
 1230loPI   C3A19673  15.175   9.002   7.585  0.0717  0.1588  0.2463
 1230loPI   C4A19674  15.193   8.922   8.046  0.1320 -0.2461 -0.0470
 1230loPI   C5A19675  15.221   8.752   8.441  0.1725  0.0143  0.1583
 1230loPI   C6A19676  15.084   8.397   8.521  0.0751  0.1069 -0.0847
 1230loPI   C1B19677  14.574   9.082   6.776  0.1228  0.1207 -0.2241
 1230loPI   C2B19678  14.490   9.097   7.260 -0.1125  0.0690 -0.3557
 1230loPI   C3B19679  14.601   8.918   7.631 -0.0656  0.0033  0.3456
 1230loPI   C4B19680  14.520   8.554   7.882 -0.0909  0.0297  0.0936
 1231loPI    C119681   2.451   2.386   5.420  0.0647 -0.0733  0.0785
 1231loPI    C219682   2.518   2.450   5.031 -0.2620  0.1548  0.0564
 1231loPI    C319683   2.819   2.476   5.292 -0.0742  0.1709 -0.1591
 1231loPI   PO419684   2.294   2.155   5.428 -0.0931 -0.1992 -0.1117
 1231loPI   GL119685   2.418   1.807   5.633  0.1524 -0.1479 -0.1692
 1231loPI   GL219686   2.305   1.452   5.623  0.0652  0.0143 -0.3212
 1231loPI   C1A19687   2.581   1.940   6.100  0.0765  0.5258 -0.0665
 1231loPI   C2A19688   2.640   2.041   6.534 -0.1859  0.1198 -0.0518
 1231loPI   C3A19689   2.617   2.093   6.995  0.2822 -0.0543  0.2611
 1231loPI   C4A19690   2.636   2.023   7.322 -0.1961 -0.2792 -0.3458
 1231loPI   C5A19691   2.476   1.924   7.721  0.2127 -0.0890 -0.1019
 1231loPI   C6A19692   2.256   2.154   7.995 -0.0505 -0.1459  0.0094
 1231loPI   C1B19693   2.427   1.463   6.017  0.0486  0.0842  0.1573
 1231loPI   C2B19694   2.440   1.479   6.433 -0.1875  0.1177 -0.5958
 1231loPI   C3B19695   2.381   1.621   6.867  0.0938  0.0310  0.2436
 1231loPI   C4B19696   2.455   1.509   7.305  0.2061 -0.1462  0.1111
 1232loPI    C119697   8.320   3.153   4.580  0.0068  0.0962  0.0928
 1232loPI    C219698   7.976   2.950   4.568 -0.0277  0.1638 -0.0918
 1232loPI    C319699   7.989   3.328   4.440  0.1030  0.1803 -0.0314
 1232loPI   PO419700   8.423   3.065   4.867 -0.2143 -0.0256  0.1162
 1232loPI   GL119701   8.457   2.994   5.426 -0.0745 -0.0186  0.2321
 1232loPI   GL219702   8.500   2.623   5.470  0.2395  0.1923 -0.0256
 1232loPI   C1A19703   8.315   3.234   5.727  0.1059 -0.4462 -0.0081
 1232loPI   C2A19704   8.221   3.266   6.113  0.0392  0.1871 -0.0691
 1232loPI   C3A19705   8.305   3.321   6.584  0.0564  0.0349  0.1755
 1232loPI   C4A19706   8.272   3.563   7.020 -0.2212 -0.2377 -0.0055
 1232loPI   C5A19707   8.283   3.590   7.419 -0.0015 -0.2109 -0.2428
 1232loPI   C6A19708   8.613   3.515   7.788  0.2490  0.1185 -0.2425
 1232loPI   C1B19709   8.396   2.716   5.824  0.0478  0.0753  0.0705
 1232loPI   C2B19710   8.271   2.645   6.266  0.2042  0.2408  0.0377
 1232loPI   C3B19711   8.282   2.545   6.773  0.3608 -0.1106  0.2097
 1232loPI   C4B19712   8.271   2.597   7.211 -0.0735 -0.1695  0.0036
 1233loPI    C119713   5.319   7.297   4.888 -0.1021 -0.0862 -0.1255
 1233loPI    C219714   5.105   7.394   4.565 -0.2851 -0.0072  0.0177
 1233loPI    C319715   5.095   7.020   4.707  0.0183 -0.1149 -0.2323
 1233loPI   PO419716   5.354   7.541   5.106 -0.1821  0.0092 -0.1870
 1233loPI   GL119717   5.208   7.464   5.511  0.2050  0.3516  0.1043
 1233loPI   GL219718   4.881   7.295   5.607  0.1250  0.0365  0.0240
 1233loPI   C1A19719   5.251   7.296   5.840  0.0808 -0.2585  0.1553
 1233loPI   C2A19720   5.422   7.253   6.188 -0.0625  0.0193 -0.0535
 1233loPI   C3A19721   5.439   7.263   6.596 -0.0287  0.2135 -0.1426
 1233loPI   C4A19722   5.360   7.406   7.013 -0.1778  0.1216 -0.2335
 1233loPI   C5A19723   5.456   7.498   7.453  0.4140 -0.0696  0.2127
 1233loPI   C6A19724   5.269   7.602   7.773  0.1564  0.1910  0.0506
 1233loPI   C1B19725   4.749   7.176   6.094 -0.0754  0.0987  0.0485
 1233loPI   C2B19726   4.942   7.297   6.491  0.1194  0.1514 -0.0088
 1233loPI   C3B19727   4.832   7.354   6.934 -0.2807 -0.1202 -0.2413
 1233loPI   C4B19728   4.924   7.457   7.385 -0.0843  0.0932 -0.1066
 1234loPI    C119729  14.943  11.610   5.136 -0.0169  0.0964  0.2927
 1234loPI    C219730  15.305  11.718   5.268  0.1743 -0.0559 -0.0901
 1234loPI    C319731  15.180  11.837   4.907 -0.0040 -0.3140 -0.1159
 1234loPI   PO419732  14.736  11.535   5.464 -0.1402 -0.2615  0.0267
 1234loPI   GL119733  14.751  11.521   5.937 -0.0727  0.0497  0.0707
 1234loPI   GL219734  14.950  11.854   6.016 -0.2995  0.0949 -0.2624
 1234loPI   C1A19735  15.035  11.387   6.211 -0.0308 -0.0650 -0.0128
 1234loPI   C2A19736  15.156  11.341   6.601 -0.4064 -0.0383 -0.2160
 1234loPI   C3A19737  15.251  11.475   7.043  0.1584 -0.0403  0.1110
 1234loPI   C4A19738  15.204  11.294   7.432  0.2705 -0.0469  0.0065
 1234loPI   C5A19739  15.307  11.399   7.837  0.0441 -0.1465 -0.0063
 1234loPI   C6A19740  15.518  11.610   8.052  0.0347  0.2009  0.1297
 1234loPI   C1B19741  14.872  11.779   6.516 -0.1405 -0.3107 -0.2424
 1234loPI   C2B19742  14.980  11.883   6.944 -0.1397  0.1996  0.0648
 1234loPI   C3B19743  15.055  11.781   7.417 -0.0085  0.0007 -0.0753
 1234loPI   C4B19744  15.036  11.848   7.820  0.1642 -0.0148 -0.0297
 1235loPI    C119745  14.099   9.223   5.949  0.0636  0.0865 -0.0464
 1235loPI    C219746  13.752   9.325   6.121  0.1215  0.0076  0.1192
 1235loPI    C319747  13.759   9.206   5.739  0.0218  0.3953 -0.0077
 1235loPI   PO419748  14.235   9.471   6.008 -0.0731  0.0749  0.2473
 1235loPI   GL119749  14.398   9.414   6.363  0.1060 -0.2121  0.0771
 1235loPI   GL219750  14.716   9.601   6.298 -0.3458  0.0228 -0.1799
 1235loPI   C1A19751  14.101   9.227   6.610  0.2954  0.1235 -0.1953
 1235loPI   C2A19752  14.006   9.011   7.066 -0.1196  0.1524  0.0017
 1235loPI   C3A19753  13.566   8.827   7.252 -0.2323  0.1417 -0.2685
 1235loPI   C4A19754  13.218   8.850   7.455  0.1230  0.2923 -0.1864
 1235loPI   C5A19755  13.025   9.065   7.722 -0.1761 -0.0525 -0.1041
 1235loPI   C6A19756  12.938   9.275   8.119  0.2899  0.0975  0.1089
 1235loPI   C1B19757  14.708   9.620   6.706  0.1105  0.0673 -0.2079
 1235loPI   C2B19758  14.791   9.568   7.115 -0.1398  0.1481 -0.1868
 1235loPI   C3B19759  14.736   9.459   7.607  0.1698  0.3583  0.0175
 1235loPI   C4B19760  14.754   9.251   7.977 -0.0099 -0.1354  0.1510
 1236loPI    C119761   3.570  12.933   5.069  0.2390  0.0143  0.2296
 1236loPI    C219762   3.437  13.300   5.158  0.4638  0.1452  0.0366
 1236loPI    C319763   3.783  13.254   4.964  0.2890 -0.1576 -0.2129
 1236loPI   PO419764   3.497  12.813   5.244  0.1555  0.2383  0.2752
 1236loPI   GL119765   3.344  12.861   5.737 -0.2405 -0.0166 -0.0893
 1236loPI   GL219766   3.241  13.168   5.791  0.1803  0.0577  0.0473
 1236loPI   C1A19767   3.479  12.931   6.194 -0.2287  0.0197  0.0734
 1236loPI   C2A19768   3.624  13.315   6.453 -0.1363  0.0172  0.0997
 1236loPI   C3A19769   3.651  13.425   6.923  0.0772  0.1922  0.0500
 1236loPI   C4A19770   3.632  13.355   7.323  0.0600  0.5677 -0.0521
 1236loPI   C5A19771   3.695  13.490   7.676  0.1731 -0.0252 -0.1323
 1236loPI   C6A19772   3.718  13.597   8.181  0.2518 -0.1358  0.0855
 1236loPI   C1B19773   3.132  13.328   6.229  0.2732  0.5334 -0.4010
 1236loPI   C2B19774   3.157  13.351   6.663  0.2351  0.3441 -0.3694
 1236loPI   C3B19775   3.152  13.323   7.137 -0.1178  0.2512 -0.1069
 1236loPI   C4B19776   3.136  13.366   7.579  0.0833 -0.0927  0.2413
 1237loPI    C119777  12.456   6.565   5.119  0.1691  0.1463  0.1187
 1237loPI    C219778  12.214   6.810   4.916  0.1427  0.1853  0.1967
 1237loPI    C319779  12.455   6.559   4.719  0.0540  0.1609  0.1183
 1237loPI   PO419780  12.270   6.663   5.438  0.3173 -0.0637 -0.2281
 1237loPI   GL119781  12.323   6.589   5.894 -0.1624  0.3128  0.2223
 1237loPI   GL219782  12.170   6.827   5.985  0.1060 -0.1407  0.1337
 1237loPI   C1A19783  12.146   6.411   6.229 -0.0149 -0.2334 -0.1340
 1237loPI   C2A19784  12.226   6.474   6.736 -0.0510 -0.2196 -0.1648
 1237loPI   C3A19785  12.224   6.194   7.044 -0.1034  0.2036  0.0859
 1237loPI   C4A19786  12.173   6.225   7.442  0.0416 -0.2372 -0.1928
 1237loPI   C5A19787  11.975   6.170   7.821 -0.1134  0.0089  0.0772
 1237loPI   C6A19788  12.096   6.037   8.172 -0.1134 -0.1191 -0.0554
 1237loPI   C1B19789  12.116   6.925   6.417 -0.2644 -0.0559 -0.0548
 1237loPI   C2B19790  12.029   6.920   6.909  0.0352 -0.0992  0.2462
 1237loPI   C3B19791  12.032   7.017   7.393  0.0927 -0.1713 -0.3352
 1237loPI   C4B19792  12.026   6.770   7.738 -0.1652 -0.1857 -0.3942
 1238loPI    C119793   3.457  14.487   4.668  0.0268 -0.0338  0.1562
 1238loPI    C219794   3.445  14.091   4.614 -0.2435 -0.0044 -0.0210
 1238loPI    C319795   3.714  14.312   4.417 -0.1817 -0.0832 -0.0256
 1238loPI   PO419796   3.544  14.564   4.923 -0.3517 -0.2097  0.0771
 1238loPI   GL119797   3.538  14.570   5.410  0.2218 -0.0762  0.0653
 1238loPI   GL219798   3.145  14.391   5.505  0.2298  0.1270  0.0934
 1238loPI   C1A19799   3.804  14.699   5.846 -0.0398  0.0126  0.2850
 1238loPI   C2A19800   3.839  14.777   6.359  0.1122 -0.0283 -0.0857
 1238loPI   C3A19801   3.752  14.746   6.773  0.0471  0.3540  0.3718
 1238loPI   C4A19802   3.732  14.693   7.186 -0.0173  0.0254  0.2187
 1238loPI   C5A19803   3.904  14.482   7.563  0.0213  0.1913 -0.2801
 1238loPI   C6A19804   3.788  14.664   8.001  0.0551  0.0257  0.1749
 1238loPI   C1B19805   3.205  14.606   5.866  0.0793  0.0898  0.4103
 1238loPI   C2B19806   3.217  14.658   6.161  0.1037  0.2751 -0.2097
 1238loPI   C3B19807   3.326  14.688   6.525  0.1613 -0.0817 -0.1620
 1238loPI   C4B19808   3.212  14.695   6.946 -0.0560 -0.0287 -0.2069
 1239loPI    C119809  15.239   0.479   5.025 -0.0547 -0.0956  0.1767
 1239loPI    C219810  15.456   0.600   4.712 -0.2490 -0.0932  0.0413
 1239loPI    C319811  15.431   0.211   4.799  0.0394 -0.0725  0.2287
 1239loPI   PO419812  15.064   0.644   5.018  0.0334  0.2167  0.0297
 1239loPI   GL119813  14.839   0.942   5.317  0.0239  0.0551  0.1132
 1239loPI   GL219814  14.712   0.675   5.449 -0.0827 -0.0973 -0.2245
 1239loPI   C1A19815  14.881   1.046   5.788  0.2307 -0.1787 -0.2773
 1239loPI   C2A19816  14.976   1.070   6.250 -0.1956  0.3465  0.3015
 1239loPI   C3A19817  14.904   1.044   6.646  0.2503  0.0199  0.1212
 1239loPI   C4A19818  14.999   0.993   7.085  0.3240  0.0398  0.2643
 1239loPI   C5A19819  14.784   0.947   7.546  0.0621  0.1936  0.1995
 1239loPI   C6A19820  14.788   0.802   7.972 -0.1237  0.1131  0.0285
 1239loPI   C1B19821  14.819   0.565   5.967 -0.0011  0.0322  0.0431
 1239loPI   C2B19822  14.887   0.564   6.431 -0.2111 -0.1266  0.0404
 1239loPI   C3B19823  14.732   0.584   6.826  0.0764 -0.1489 -0.0035
 1239loPI   C4B19824  14.712   0.523   7.305 -0.1914  0.1535  0.1862
 1240loPI    C119825   2.879   2.789   4.766 -0.0868  0.1889 -0.2357
 1240loPI    C219826   2.567   2.777   4.516 -0.0183 -0.0640 -0.3125
 1240loPI    C319827   2.884   2.542   4.451 -0.0428 -0.2081  0.0687
 1240loPI   PO419828   2.781   2.932   5.002 -0.0379 -0.0283 -0.1475
 1240loPI   GL119829   2.605   2.993   5.374  0.0053  0.0081  0.2440
 1240loPI   GL219830   2.327   2.876   5.527  0.0342  0.0507 -0.1044
 1240loPI   C1A19831   2.830   2.805   5.696  0.3645 -0.1484 -0.0627
 1240loPI   C2A19832   2.993   2.969   6.026 -0.1034  0.0175 -0.2835
 1240loPI   C3A19833   3.039   2.973   6.385 -0.3120  0.0210  0.0372
 1240loPI   C4A19834   3.082   3.031   6.784  0.0270 -0.1042  0.0715
 1240loPI   C5A19835   3.139   3.040   7.293  0.0314 -0.0157 -0.1196
 1240loPI   C6A19836   3.290   3.255   7.575  0.1022  0.2245  0.3135
 1240loPI   C1B19837   2.471   2.904   6.004  0.1078 -0.1298 -0.1065
 1240loPI   C2B19838   2.471   2.873   6.407 -0.0129  0.0342  0.0392
 1240loPI   C3B19839   2.594   2.969   6.826  0.1372  0.0515  0.1292
 1240loPI   C4B19840   2.576   2.966   7.266 -0.1866  0.1183 -0.0111
 1241loPI    C119841   8.363  13.119   5.374  0.0902 -0.4563  0.0698
 1241loPI    C219842   8.022  13.309   5.289  0.1448 -0.2846  0.2279
 1241loPI    C319843   8.203  13.089   5.009  0.2264  0.1223 -0.0482
 1241loPI   PO419844   8.247  13.026   5.640  0.0285  0.0709  0.2904
 1241loPI   GL119845   8.353  13.131   5.913  0.2641 -0.1826 -0.0281
 1241loPI   GL219846   8.168  12.874   6.126  0.1076  0.1654  0.0494
 1241loPI   C1A19847   8.129  13.422   6.236 -0.0276  0.3528 -0.1627
 1241loPI   C2A19848   7.948  13.372   6.739 -0.1480 -0.4057  0.0363
 1241loPI   C3A19849   7.836  13.455   7.162 -0.0734 -0.1462  0.2078
 1241loPI   C4A19850   7.605  13.092   7.525 -0.1891 -0.0422 -0.0718
 1241loPI   C5A19851   7.388  12.783   7.764  0.1840 -0.0776 -0.1429
 1241loPI   C6A19852   7.075  12.579   7.749 -0.2975  0.0423 -0.2221
 1241loPI   C1B19853   8.210  13.029   6.531 -0.2675 -0.1379 -0.1948
 1241loPI   C2B19854   8.294  13.110   7.031  0.0330 -0.1928 -0.1688
 1241loPI   C3B19855   8.097  13.134   7.449 -0.0333  0.1169  0.1073
 1241loPI   C4B19856   8.157  12.909   7.793  0.0895 -0.2634 -0.2139
 1242loPI    C119857  15.916   1.932   5.232 -0.1598  0.1216  0.1904
 1242loPI    C219858  15.584   1.732   5.329  0.0163 -0.3479 -0.1373
 1242loPI    C319859  15.653   1.831   4.948  0.1734 -0.1006 -0.0467
 1242loPI   PO419860  15.929   2.053   5.426  0.0480  0.0529  0.1148
 1242loPI   GL119861  15.782   2.097   5.783  0.0712  0.0742  0.1895
 1242loPI   GL219862  15.416   2.004   5.726 -0.0149  0.0127 -0.1808
 1242loPI   C1A19863  15.919   2.162   6.239 -0.1652 -0.3191  0.0098
 1242loPI   C2A19864  15.950   2.020   6.681  0.2333 -0.1862  0.1127
 1242loPI   C3A19865  15.909   1.961   7.061 -0.0005 -0.0818  0.0570
 1242loPI   C4A19866  15.966   2.043   7.492  0.4864  0.0309  0.1545
 1242loPI   C5A19867  16.132   2.213   7.834  0.1385  0.0648 -0.3489
 1242loPI   C6A19868  16.466   2.068   8.116 -0.0160 -0.0735  0.1361
 1242loPI   C1B19869  15.388   1.987   6.184  0.0818  0.1140  0.2165
 1242loPI   C2B19870  15.431   1.903   6.613  0.1521  0.0080 -0.0400
 1242loPI   C3B19871  15.372   1.960   7.100 -0.0107 -0.0205  0.1307
 1242loPI   C4B19872  15.415   1.990   7.531 -0.0464  0.1237  0.4805
 1243loPI    C119873   7.358   0.565   4.971  0.1468 -0.0239  0.0891
 1243loPI    C219874   7.590   0.887   4.919 -0.0523  0.1124  0.0328
 1243loPI    C319875   7.223   0.877   4.759 -0.0657 -0.1233  0.0754
 1243loPI   PO419876   7.394   0.486   5.269  0.1646  0.0901 -0.1704
 1243loPI   GL119877   7.424   0.229   5.678  0.0312  0.2045 -0.2847
 1243loPI   GL219878   7.373   0.462   5.817 -0.2550  0.0086  0.2131
 1243loPI   C1A19879   7.164   0.071   6.013  0.0885 -0.2315 -0.1662
 1243loPI   C2A19880   7.112   0.125   6.493 -0.1631  0.2577  0.0136
 1243loPI   C3A19881   7.133   0.110   6.972  0.0815  0.1201  0.2883
 1243loPI   C4A19882   7.023   0.189   7.400  0.1237  0.2468 -0.0656
 1243loPI   C5A19883   6.689   0.309   7.586  0.0068  0.1232  0.0512
 1243loPI   C6A19884   6.355   0.605   7.766 -0.1400  0.1025 -0.3357
 1243loPI   C1B19885   7.343   0.566   6.248  0.1506  0.0041 -0.1115
 1243loPI   C2B19886   7.312   0.674   6.588 -0.0422  0.1760  0.0628
 1243loPI   C3B19887   7.335   0.775   7.019  0.0455 -0.0371  0.2157
 1243loPI   C4B19888   7.345   0.910   7.483 -0.0772 -0.2846 -0.0626
 1244loPI    C119889   9.994  11.655   5.646 -0.0745  0.0027  0.1464
 1244loPI    C219890   9.722  11.554   5.371  0.0227 -0.1337  0.0993
 1244loPI    C319891   9.718  11.378   5.731 -0.1357  0.0811  0.2049
 1244loPI   PO419892  10.033  11.924   5.671  0.0550  0.1610 -0.2508
 1244loPI   GL119893   9.872  12.070   6.108 -0.0945 -0.0904 -0.0417
 1244loPI   GL219894  10.016  11.945   6.184  0.0590  0.2391 -0.0025
 1244loPI   C1A19895   9.624  11.978   6.499 -0.0646 -0.1678  0.0093
 1244loPI   C2A19896   9.371  11.983   6.879 -0.1395 -0.2411 -0.0950
 1244loPI   C3A19897   9.294  11.864   7.335 -0.0347 -0.1454  0.3405
 1244loPI   C4A19898   9.413  11.979   7.716 -0.1836  0.0109 -0.1757
 1244loPI   C5A19899   9.588  12.373   7.796 -0.0116  0.0750  0.0357
 1244loPI   C6A19900   9.913  12.518   7.500  0.0980 -0.0133 -0.1925
 1244loPI   C1B19901  10.106  12.094   6.557  0.1904 -0.1735  0.0520
 1244loPI   C2B19902   9.842  12.233   6.905  0.0815  0.6565 -0.1329
 1244loPI   C3B19903   9.543  12.313   7.228  0.4703  0.0135 -0.1656
 1244loPI   C4B19904   9.475  12.782   7.462  0.0980  0.0516 -0.1638
 1245loPI    C119905  15.692   7.893   5.415  0.0361 -0.0532 -0.0328
 1245loPI    C219906  15.432   7.765   5.140 -0.0399  0.0554 -0.0121
 1245loPI    C319907  15.324   8.049   5.401  0.1122  0.1300 -0.0294
 1245loPI   PO419908  15.794   7.666   5.501  0.0453  0.0147  0.0510
 1245loPI   GL119909  15.900   7.556   6.011 -0.0957  0.2060  0.0741
 1245loPI   GL219910  15.577   7.565   5.981 -0.0747  0.3227 -0.1111
 1245loPI   C1A19911  15.995   7.493   6.456 -0.0462 -0.1095 -0.0847
 1245loPI   C2A19912  15.976   7.597   6.802 -0.0136 -0.0465 -0.1597
 1245loPI   C3A19913  15.901   7.530   7.176 -0.0130 -0.0663  0.0202
 1245loPI   C4A19914  15.810   7.452   7.627 -0.1081 -0.2375 -0.1065
 1245loPI   C5A19915  15.898   7.361   7.982  0.1095 -0.1470 -0.1123
 1245loPI   C6A19916  16.148   7.074   8.275  0.0707 -0.2057 -0.1094
 1245loPI   C1B19917  15.421   7.493   6.438 -0.1656 -0.2032  0.0901
 1245loPI   C2B19918  15.398   7.418   6.920  0.0268  0.3387 -0.0571
 1245loPI   C3B19919  15.355   7.427   7.315  0.0406 -0.0728 -0.0032
 1245loPI   C4B19920  15.381   7.429   7.837 -0.0831 -0.2725  0.1700
 1246loPI    C119921   8.042   3.644   5.134 -0.1484 -0.0314  0.0017
 1246loPI    C219922   8.061   3.291   5.320 -0.0276 -0.0977 -0.1338
 1246loPI    C319923   7.971   3.307   4.931 -0.0355  0.0216 -0.1274
 1246loPI   PO419924   7.939   3.804   5.248  0.0816 -0.1980  0.2715
 1246loPI   GL119925   8.024   4.049   5.646 -0.1194 -0.3448 -0.0481
 1246loPI   GL219926   8.368   4.040   5.616  0.1965 -0.1514  0.1435
 1246loPI   C1A19927   8.082   4.278   6.050 -0.0427 -0.3406 -0.3489
 1246loPI   C2A19928   7.931   4.418   6.537  0.1430 -0.2634 -0.0399
 1246loPI   C3A19929   7.674   4.378   6.744 -0.2083 -0.3100 -0.0214
 1246loPI   C4A19930   7.536   4.188   7.050  0.1409  0.0357 -0.2868
 1246loPI   C5A19931   7.350   3.929   7.414  0.0536 -0.3277 -0.2427
 1246loPI   C6A19932   7.462   3.868   7.864 -0.1284 -0.0343  0.0062
 1246loPI   C1B19933   8.516   4.096   6.070  0.1489  0.0872  0.1158
 1246loPI   C2B19934   8.510   4.291   6.528 -0.4741  0.0421  0.2094
 1246loPI   C3B19935   8.325   4.411   6.887 -0.0439 -0.0881 -0.0234
 1246loPI   C4B19936   8.017   4.482   7.204 -0.2596  0.3251 -0.0724
 1247loPI    C119937  14.783   7.300   5.437  0.1347 -0.2110 -0.1102
 1247loPI    C219938  14.574   7.469   5.141 -0.1867  0.1390  0.3037
 1247loPI    C319939  14.973   7.478   5.133 -0.1913  0.1634 -0.1041
 1247loPI   PO419940  14.741   7.456   5.650  0.1922  0.1998 -0.3931
 1247loPI   GL119941  14.665   7.194   5.936  0.1801  0.1189 -0.1174
 1247loPI   GL219942  14.667   6.918   5.813 -0.1150  0.2565  0.0497
 1247loPI   C1A19943  14.510   7.159   6.332 -0.0632 -0.1571 -0.0896
 1247loPI   C2A19944  14.417   7.191   6.702  0.0262 -0.4010  0.1111
 1247loPI   C3A19945  14.434   7.212   7.119  0.0240 -0.1867  0.1765
 1247loPI   C4A19946  14.401   7.100   7.445  0.0193 -0.0976 -0.0613
 1247loPI   C5A19947  14.574   7.000   7.873 -0.0677 -0.1577 -0.2934
 1247loPI   C6A19948  14.784   6.948   8.168 -0.0922 -0.2501  0.0279
 1247loPI   C1B19949  14.809   6.799   6.248 -0.1837 -0.1564 -0.1216
 1247loPI   C2B19950  14.738   6.848   6.652 -0.0679  0.0941 -0.0086
 1247loPI   C3B19951  14.788   6.786   7.081  0.1826 -0.0990  0.0965
 1247loPI   C4B19952  14.893   6.688   7.563  0.0757 -0.1236 -0.0545
 1248loPI    C119953   2.061  10.333   4.901 -0.0228  0.0484 -0.0282
 1248loPI    C219954   2.320  10.045   4.802 -0.1640 -0.0083 -0.2392
 1248loPI    C319955   2.287  10.372   4.573 -0.1815  0.0618 -0.1370
 1248loPI   PO419956   2.160  10.268   5.342 -0.0778 -0.1805 -0.0650
 1248loPI   GL119957   2.306  10.054   5.745  0.1093 -0.2908  0.1075
 1248loPI   GL219958   2.707  10.046   5.676 -0.0351  0.0090 -0.0654
 1248loPI   C1A19959   2.128  10.016   6.193  0.4401 -0.0902  0.0307
 1248loPI   C2A19960   2.138  10.005   6.692  0.0629 -0.0721 -0.0542
 1248loPI   C3A19961   2.123  10.058   7.108 -0.0521  0.0103 -0.1440
 1248loPI   C4A19962   2.095  10.136   7.495  0.0536  0.0097 -0.1439
 1248loPI   C5A19963   2.152  10.324   7.856 -0.1115  0.0451  0.0503
 1248loPI   C6A19964   2.118  10.188   8.238 -0.1133  0.1053  0.0844
 1248loPI   C1B19965   2.634  10.191   6.056 -0.0278  0.0789  0.0786
 1248loPI   C2B19966   2.594  10.097   6.428  0.2247  0.1808 -0.0688
 1248loPI   C3B19967   2.618  10.086   6.871 -0.3816  0.1457 -0.3451
 1248loPI   C4B19968   2.606  10.239   7.315 -0.2258 -0.1144 -0.0494
 1249loPI    C119969   9.322   1.946   5.387 -0.0266 -0.1485 -0.0046
 1249loPI    C219970   8.994   1.936   5.616 -0.0794  0.0750 -0.0678
 1249loPI    C319971   8.963   1.892   5.220 -0.0015 -0.1820 -0.0478
 1249loPI   PO419972   9.514   1.908   5.607  0.3443 -0.3942  0.0919
 1249loPI   GL119973   9.553   1.970   6.050 -0.1653 -0.0124  0.1479
 1249loPI   GL219974   9.793   1.742   6.056  0.0742  0.2154 -0.0057
 1249loPI   C1A19975   9.619   2.376   6.349 -0.3503 -0.0395 -0.1984
 1249loPI   C2A19976   9.626   2.294   6.794 -0.0327  0.0532 -0.1301
 1249loPI   C3A19977   9.967   2.099   7.068  0.2338  0.1603  0.2412
 1249loPI   C4A19978  10.175   1.803   7.180  0.0877 -0.0970 -0.2803
 1249loPI   C5A19979  10.431   1.503   7.262  0.0349  0.1391  0.1663
 1249loPI   C6A19980  10.541   1.085   7.115  0.1184  0.1530  0.1784
 1249loPI   C1B19981   9.878   1.896   6.516 -0.3199  0.1236 -0.1493
 1249loPI   C2B19982  10.066   1.725   6.711  0.0731 -0.2863 -0.2244
 1249loPI   C3B19983  10.485   1.615   6.744 -0.0438  0.1134 -0.1521
 1249loPI   C4B19984  10.744   1.223   6.647 -0.0855 -0.1137  0.0192
 1250loPI    C119985  15.306  16.022   5.044 -0.1410  0.0412 -0.0908
 1250loPI    C219986  15.391  16.057   4.655 -0.0276  0.0373 -0.0669
 1250loPI    C319987  15.390  15.696   4.828 -0.0766  0.0391 -0.0631
 1250loPI   PO419988  15.430  16.164   5.192 -0.0808  0.1089  0.0796
 1250loPI   GL119989  15.596  16.060   5.512  0.0504  0.0634 -0.1368
 1250loPI   GL219990  15.897  15.893   5.609  0.1770 -0.0502  0.1933
 1250loPI   C1A19991  15.474  16.102   5.948 -0.1152  0.3322 -0.0061
 1250loPI   C2A19992  15.552  16.272   6.425  0.2726  0.0789 -0.1708
 1250loPI   C3A19993  15.550  16.181   6.772  0.0491  0.0088  0.2193
 1250loPI   C4A19994  15.588  16.348   7.097  0.2700 -0.0702  0.1489
 1250loPI   C5A19995  15.592  16.393   7.592 -0.0749  0.0527  0.2826
 1250loPI   C6A19996  15.654  16.204   7.947 -0.2664 -0.3263 -0.3924
 1250loPI   C1B19997  15.872  15.845   6.145 -0.0252  0.1732 -0.1875
 1250loPI   C2B19998  15.920  15.880   6.602  0.0689 -0.1880 -0.0026
 1250loPI   C3B19999  15.894  15.846   6.999  0.0668  0.0511 -0.1753
 1250loPI   C4B20000  15.851  15.923   7.500  0.0424 -0.0609 -0.0626
 1251loPI    C120001  17.336  15.172   4.631 -0.1091  0.1656 -0.0962
 1251loPI    C220002  16.980  14.995   4.668  0.0874 -0.2144  0.0393
 1251loPI    C320003  17.162  15.005   4.312 -0.0458 -0.0383 -0.0256
 1251loPI   PO420004  17.153  15.308   5.021 -0.2883  0.3315  0.0414
 1251loPI   GL120005  17.366  15.247   5.329  0.0724 -0.1831 -0.0737
 1251loPI   GL220006  17.547  14.998   5.512  0.2008  0.0480  0.1770
 1251loPI   C1A20007  17.251  15.322   5.783 -0.1640  0.0385  0.2320
 1251loPI   C2A20008  17.199  15.456   6.221 -0.2856  0.0683 -0.0386
 1251loPI   C3A20009  17.286  15.539   6.655 -0.2552  0.1076  0.1252
 1251loPI   C4A20010  17.189  15.589   7.105 -0.2220  0.0169 -0.1859
 1251loPI   C5A20011  17.362  15.583   7.528  0.1459 -0.2609 -0.1492
 1251loPI   C6A20012  17.573  15.549   8.050 -0.3057 -0.2792 -0.0213
 1251loPI   C1B20013  17.536  14.970   5.981 -0.1026 -0.1173  0.0428
 1251loPI   C2B20014  17.504  15.093   6.419 -0.0457 -0.3137  0.0511
 1251loPI   C3B20015  17.493  15.155   6.969  0.2699 -0.1660 -0.3117
 1251loPI   C4B20016  17.478  15.103   7.468  0.1349  0.1558  0.2115
 1252loPI    C120017   4.404   5.787   4.936 -0.1388 -0.2157  0.0304
 1252loPI    C220018   4.678   5.701   4.658  0.1749  0.3639  0.1453
 1252loPI    C320019   4.328   5.864   4.551  0.0370  0.0071  0.0385
 1252loPI   PO420020   4.580   5.851   5.196  0.1216 -0.1133  0.1984
 1252loPI   GL120021   4.491   6.027   5.668 -0.0877  0.1171 -0.0981
 1252loPI   GL220022   4.255   5.892   5.697 -0.0997  0.2076 -0.4048
 1252loPI   C1A20023   4.547   6.220   6.151 -0.1525 -0.0485 -0.1171
 1252loPI   C2A20024   4.549   6.164   6.538 -0.0352  0.0871  0.1372
 1252loPI   C3A20025   4.594   6.377   6.951  0.1631  0.0354  0.0721
 1252loPI   C4A20026   4.603   6.379   7.412  0.2740  0.1574  0.1128
 1252loPI   C5A20027   4.886   6.327   7.767  0.1102  0.0146  0.0711
 1252loPI   C6A20028   4.871   6.213   8.170 -0.3575  0.1028 -0.2201
 1252loPI   C1B20029   4.324   5.755   6.025 -0.0610  0.1789  0.0924
 1252loPI   C2B20030   4.344   5.751   6.340 -0.0177  0.0562  0.2025
 1252loPI   C3B20031   4.300   5.795   6.801 -0.1040  0.1252 -0.0319
 1252loPI   C4B20032   4.380   5.971   7.161  0.0623  0.0438  0.0848
 1253loPI    C120033   7.985  10.642   5.307 -0.1775 -0.0012  0.0696
 1253loPI    C220034   7.834  10.368   5.556  0.2834 -0.0863  0.2647
 1253loPI    C320035   7.979  10.256   5.201 -0.0139 -0.0180  0.1189
 1253loPI   PO420036   8.087  10.812   5.509 -0.0727 -0.0895 -0.2424
 1253loPI   GL120037   7.973  11.200   5.807  0.0653  0.1956 -0.2704
 1253loPI   GL220038   8.306  11.174   5.797 -0.1247 -0.1402 -0.1464
 1253loPI   C1A20039   8.073  11.212   6.211  0.1857  0.2346 -0.2901
 1253loPI   C2A20040   7.719  10.997   6.481  0.1081 -0.0556  0.1729
 1253loPI   C3A20041   7.462  10.976   6.940  0.0640 -0.0858  0.0961
 1253loPI   C4A20042   7.450  10.865   7.382  0.0268  0.1630 -0.3041
 1253loPI   C5A20043   7.493  10.934   7.801  0.0166 -0.0795  0.1481
 1253loPI   C6A20044   7.803  10.919   8.031 -0.0207 -0.0435  0.3494
 1253loPI   C1B20045   8.535  10.942   6.176  0.0918  0.2346  0.1837
 1253loPI   C2B20046   8.632  10.535   6.420  0.1282 -0.0161 -0.0244
 1253loPI   C3B20047   8.602  10.415   6.838 -0.3042 -0.2833 -0.2046
 1253loPI   C4B20048   8.565  10.278   7.152 -0.2460  0.0835  0.1837
 1254loPI    C120049  10.080   4.146   5.161  0.0570  0.0816  0.2405
 1254loPI    C220050   9.915   4.474   5.320 -0.1559  0.0134  0.1628
 1254loPI    C320051  10.126   4.501   4.981 -0.2667  0.0541  0.0964
 1254loPI   PO420052  10.155   3.973   5.379 -0.0835 -0.0911 -0.2632
 1254loPI   GL120053  10.386   3.777   5.738  0.0723  0.0186 -0.0905
 1254loPI   GL220054  10.163   3.619   5.766 -0.1748  0.0757  0.2444
 1254loPI   C1A20055  10.645   3.771   6.024 -0.1243  0.2363 -0.2242
 1254loPI   C2A20056  10.811   3.881   6.440  0.1391  0.1183 -0.0484
 1254loPI   C3A20057  10.744   3.953   6.862  0.1826  0.1194  0.1672
 1254loPI   C4A20058  10.651   3.971   7.339  0.1266  0.1803  0.1174
 1254loPI   C5A20059  10.860   4.106   7.676  0.0322  0.0896  0.0282
 1254loPI   C6A20060  10.826   4.004   8.201  0.1090 -0.1708  0.1399
 1254loPI   C1B20061  10.153   3.662   6.194 -0.1101 -0.1547  0.1642
 1254loPI   C2B20062   9.953   3.830   6.599  0.1802 -0.3530  0.0907
 1254loPI   C3B20063  10.028   3.959   6.867  0.0529  0.2713 -0.1308
 1254loPI   C4B20064   9.879   4.019   7.260 -0.1074 -0.0314 -0.1876
 1255loPI    C120065   6.287  13.982   5.381  0.0195 -0.2293 -0.1181
 1255loPI    C220066   6.447  13.631   5.488  0.1680 -0.0929  0.1169
 1255loPI    C320067   6.588  13.826   5.168  0.3183 -0.0835  0.1884
 1255loPI   PO420068   6.105  14.034   5.524 -0.1124  0.0758 -0.1204
 1255loPI   GL120069   6.025  13.908   5.868 -0.1508  0.0711 -0.1852
 1255loPI   GL220070   5.968  13.725   6.117  0.4454 -0.0712 -0.0751
 1255loPI   C1A20071   6.078  14.270   6.135 -0.0669 -0.0953 -0.1960
 1255loPI   C2A20072   6.074  14.400   6.555 -0.3316 -0.1059 -0.1173
 1255loPI   C3A20073   6.006  14.400   7.116 -0.2155  0.1063  0.0740
 1255loPI   C4A20074   5.852  14.374   7.545 -0.1295  0.1473 -0.0568
 1255loPI   C5A20075   5.601  14.037   7.673  0.2773  0.3124 -0.0406
 1255loPI   C6A20076   5.550  13.653   7.421 -0.0385 -0.2382 -0.0110
 1255loPI   C1B20077   6.246  13.889   6.370  0.0110 -0.0648  0.0567
 1255loPI   C2B20078   6.625  13.926   6.631 -0.1523  0.1607  0.0642
 1255loPI   C3B20079   6.831  13.996   7.019  0.3289 -0.2993  0.2979
 1255loPI   C4B20080   6.770  14.041   7.442 -0.0893 -0.3580  0.0756
 1256loPI    C120081  12.896   4.306   5.430  0.2686 -0.1267  0.3486
 1256loPI    C220082  13.194   4.406   5.182  0.0389  0.1886  0.1918
 1256loPI    C320083  13.032   4.040   5.164  0.0795  0.1820 -0.0680
 1256loPI   PO420084  13.007   4.483   5.696 -0.2911 -0.0771  0.1595
 1256loPI   GL120085  13.009   4.449   6.097  0.0169 -0.2206 -0.0066
 1256loPI   GL220086  12.971   4.733   6.140 -0.0390  0.0675  0.1278
 1256loPI   C1A20087  13.359   4.250   6.381 -0.3260  0.2083  0.1633
 1256loPI   C2A20088  13.498   4.207   6.794 -0.2593 -0.0688  0.3787
 1256loPI   C3A20089  13.536   4.174   7.317 -0.2241 -0.0776  0.0350
 1256loPI   C4A20090  13.158   4.071   7.616 -0.0634 -0.2682  0.0449
 1256loPI   C5A20091  12.833   4.412   7.541 -0.0441 -0.0670 -0.1285
 1256loPI   C6A20092  12.687   4.359   7.185  0.1590 -0.2267 -0.0311
 1256loPI   C1B20093  13.097   4.582   6.580  0.4027 -0.1866  0.3417
 1256loPI   C2B20094  13.095   4.484   7.004  0.1452  0.1540  0.0740
 1256loPI   C3B20095  13.252   4.621   7.417 -0.0815  0.0674 -0.2154
 1256loPI   C4B20096  13.368   4.515   7.846 -0.3167  0.0143  0.0201
 1257loPI    C120097  14.729  18.103   5.165 -0.2233  0.3019 -0.0141
 1257loPI    C220098  14.407  18.023   5.388 -0.1131  0.3163  0.1518
 1257loPI    C320099  14.367  18.092   4.996 -0.2972  0.1999  0.1493
 1257loPI   PO420100  14.885  18.114   5.352  0.0076  0.0301 -0.0155
 1257loPI   GL120101  15.227  18.181   5.713 -0.0791 -0.1078  0.1114
 1257loPI   GL220102  15.279  17.919   5.661  0.0073 -0.1543 -0.1822
 1257loPI   C1A20103  15.314  18.091   6.220  0.1318 -0.2361  0.0261
 1257loPI   C2A20104  15.383  18.098   6.683  0.0506  0.1573  0.1967
 1257loPI   C3A20105  15.366  18.159   7.098 -0.2157  0.3371  0.3416
 1257loPI   C4A20106  15.475  18.190   7.520 -0.0293  0.1555 -0.1508
 1257loPI   C5A20107  15.783  17.970   7.806  0.0610  0.2799 -0.2122
 1257loPI   C6A20108  16.215  18.051   7.923  0.0310  0.3780 -0.0414
 1257loPI   C1B20109  15.191  17.646   6.013 -0.1357 -0.0791 -0.1473
 1257loPI   C2B20110  15.201  17.614   6.474 -0.0663 -0.0381  0.0933
 1257loPI   C3B20111  15.199  17.669   6.904 -0.4038  0.0335 -0.0507
 1257loPI   C4B20112  15.188  17.604   7.378 -0.0394  0.0504 -0.1701
 1258loPI    C120113   5.667   1.443   5.031 -0.2141 -0.1754  0.0009
 1258loPI    C220114   5.527   1.254   4.708  0.0646 -0.0772 -0.1811
 1258loPI    C320115   5.828   1.514   4.673  0.0333  0.0084  0.1453
 1258loPI   PO420116   5.554   1.240   5.239 -0.1087  0.1527 -0.0509
 1258loPI   GL120117   5.667   1.246   5.674 -0.0443  0.2726 -0.1310
 1258loPI   GL220118   5.700   1.585   5.617 -0.4800  0.0983  0.1210
 1258loPI   C1A20119   5.693   1.442   6.075 -0.0587  0.0193 -0.2855
 1258loPI   C2A20120   5.783   1.338   6.500 -0.2128  0.0544  0.3710
 1258loPI   C3A20121   5.791   1.369   6.882 -0.1271 -0.1978  0.1971
 1258loPI   C4A20122   5.666   1.468   7.317  0.0326 -0.3658 -0.1663
 1258loPI   C5A20123   5.579   1.622   7.691  0.4241 -0.0414  0.1327
 1258loPI   C6A20124   5.201   1.903   7.832 -0.0333  0.2350 -0.2613
 1258loPI   C1B20125   5.894   1.872   5.869  0.1084 -0.0465 -0.1527
 1258loPI   C2B20126   5.982   1.882   6.383  0.1446 -0.2456 -0.1345
 1258loPI   C3B20127   6.008   1.873   6.938  0.3429  0.0704  0.2347
 1258loPI   C4B20128   5.965   1.877   7.423 -0.1905 -0.4454  0.1850
 1259loPI    C120129   5.160  12.474   5.323  0.0085  0.0940  0.0397
 1259loPI    C220130   5.006  12.552   4.962  0.0230 -0.0280  0.0064
 1259loPI    C320131   5.394  12.461   4.998  0.0457  0.0896  0.0665
 1259loPI   PO420132   5.007  12.608   5.502 -0.0473  0.0928  0.0578
 1259loPI   GL120133   5.026  12.567   5.919 -0.0426  0.0909  0.1641
 1259loPI   GL220134   5.228  12.355   5.850 -0.3487 -0.2911 -0.4686
 1259loPI   C1A20135   4.847  12.575   6.361  0.2159 -0.0431  0.0346
 1259loPI   C2A20136   4.760  12.484   6.854  0.1904  0.1471  0.0137
 1259loPI   C3A20137   4.595  12.594   7.189  0.1144 -0.0032  0.0739
 1259loPI   C4A20138   4.182  12.631   7.518 -0.1074  0.1631  0.1277
 1259loPI   C5A20139   4.131  12.392   7.819 -0.3054 -0.4597 -0.0850
 1259loPI   C6A20140   3.908  12.178   8.143 -0.1243 -0.0622 -0.4574
 1259loPI   C1B20141   5.257  12.267   6.290 -0.3525  0.0999 -0.3488
 1259loPI   C2B20142   5.096  12.140   6.557 -0.0520 -0.1546  0.0344
 1259loPI   C3B20143   4.970  12.091   7.038  0.1075  0.0114 -0.2874
 1259loPI   C4B20144   4.864  12.144   7.291  0.2379 -0.0402  0.0143
 1260loPI    C120145   9.237  11.640   5.264 -0.0439  0.1514 -0.0860
 1260loPI    C220146   9.264  11.988   5.068 -0.0815  0.1507 -0.0924
 1260loPI    C320147   8.958  11.741   4.995 -0.0398  0.1038 -0.1080
 1260loPI   PO420148   9.241  11.669   5.507 -0.0449 -0.0836  0.0445
 1260loPI   GL120149   9.542  11.831   5.788  0.1983 -0.2364  0.1097
 1260loPI   GL220150   9.393  11.991   6.056 -0.1535  0.1791 -0.0364
 1260loPI   C1A20151   9.683  11.546   6.170  0.1970 -0.2893 -0.1297
 1260loPI   C2A20152   9.456  11.528   6.581  0.0822 -0.1829 -0.3009
 1260loPI   C3A20153   9.247  11.447   6.965 -0.2642  0.0871  0.0320
 1260loPI   C4A20154   9.078  11.414   7.355  0.2591 -0.1645  0.1825
 1260loPI   C5A20155   8.709  11.458   7.602 -0.0068 -0.1343  0.1534
 1260loPI   C6A20156   8.328  11.254   7.739  0.2053 -0.0409  0.3272
 1260loPI   C1B20157   9.084  11.875   6.323  0.3271 -0.2511 -0.0507
 1260loPI   C2B20158   8.959  11.632   6.622 -0.4421 -0.0937 -0.0500
 1260loPI   C3B20159   8.731  11.380   6.878  0.1439  0.0800  0.1611
 1260loPI   C4B20160   8.375  11.341   7.198 -0.2368  0.0551 -0.0103
 1261loPI    C120161   8.859  13.774   5.036  0.0700  0.2548  0.0297
 1261loPI    C220162   8.853  14.169   4.973  0.1732  0.2335 -0.1184
 1261loPI    C320163   8.545  13.942   4.855  0.2568  0.2274 -0.3287
 1261loPI   PO420164   8.864  13.770   5.414  0.4443  0.0764  0.0523
 1261loPI   GL120165   9.141  13.929   5.735  0.2384 -0.0430  0.0048
 1261loPI   GL220166   9.116  13.677   5.903  0.3159 -0.1249 -0.1898
 1261loPI   C1A20167   9.377  14.119   6.089 -0.1080  0.0107 -0.0317
 1261loPI   C2A20168   9.524  14.383   6.501 -0.0557 -0.3703  0.0023
 1261loPI   C3A20169   9.502  14.570   6.937 -0.1868 -0.1115  0.2320
 1261loPI   C4A20170   9.531  14.580   7.370  0.2102  0.0083 -0.0382
 1261loPI   C5A20171   9.460  14.428   7.766 -0.0140  0.1988  0.1435
 1261loPI   C6A20172   9.399  14.044   7.857 -0.0427 -0.0512  0.1997
 1261loPI   C1B20173   8.990  13.640   6.339 -0.0213 -0.1827 -0.0198
 1261loPI   C2B20174   8.950  13.587   6.741 -0.1395 -0.1443 -0.0703
 1261loPI   C3B20175   8.909  13.607   7.136  0.1177  0.0723  0.0360
 1261loPI   C4B20176   8.928  13.666   7.558 -0.1321 -0.1516 -0.0829
 1262loPI    C120177  10.745  11.508   5.173  0.1582  0.0976  0.3838
 1262loPI    C220178  11.000  11.755   4.989  0.0463 -0.1206 -0.0811
 1262loPI    C320179  10.634  11.699   4.839 -0.1364 -0.1234  0.3515
 1262loPI   PO420180  10.863  11.576   5.454  0.1777  0.2407  0.1134
 1262loPI   GL120181  11.019  11.699   5.789 -0.0623  0.2992  0.1713
 1262loPI   GL220182  10.919  11.455   5.973  0.1795  0.0288  0.1708
 1262loPI   C1A20183  11.022  11.868   6.245  0.0121 -0.0638  0.0174
 1262loPI   C2A20184  10.945  11.941   6.685  0.1623 -0.1069  0.0895
 1262loPI   C3A20185  10.907  11.927   7.061 -0.2008 -0.1574 -0.2231
 1262loPI   C4A20186  10.963  12.048   7.519 -0.1832 -0.0816  0.0636
 1262loPI   C5A20187  11.031  12.085   7.902  0.1793  0.1763 -0.1853
 1262loPI   C6A20188  10.937  12.409   8.147 -0.1204 -0.3377 -0.1137
 1262loPI   C1B20189  10.858  11.401   6.388 -0.0802  0.3452 -0.1305
 1262loPI   C2B20190  10.822  11.442   6.811 -0.1032 -0.1230 -0.2812
 1262loPI   C3B20191  11.021  11.448   7.202  0.0363 -0.3261 -0.1727
 1262loPI   C4B20192  11.122  11.600   7.584  0.0062 -0.1092 -0.0648
 1263loPI    C120193   9.749   9.630   5.232  0.2257  0.2795 -0.1469
 1263loPI    C220194  10.027   9.579   5.515  0.2583  0.1583 -0.2001
 1263loPI    C320195  10.133   9.585   5.129  0.2109  0.3004 -0.2118
 1263loPI   PO420196   9.550   9.842   5.433 -0.4711 -0.1330 -0.1005
 1263loPI   GL120197   9.618   9.881   5.834 -0.1907  0.0115  0.1232
 1263loPI   GL220198   9.870  10.132   5.755  0.1618  0.0103  0.0300
 1263loPI   C1A20199   9.622   9.667   6.255  0.2032  0.3669 -0.2018
 1263loPI   C2A20200   9.421   9.553   6.663 -0.0856 -0.2568 -0.1361
 1263loPI   C3A20201   9.251   9.359   6.892 -0.1944  0.0938  0.0166
 1263loPI   C4A20202   9.130   9.299   7.314  0.2379 -0.0114  0.1855
 1263loPI   C5A20203   8.740   9.354   7.652 -0.0769 -0.2487  0.0501
 1263loPI   C6A20204   8.860   9.102   8.093  0.0695 -0.3038 -0.1176
 1263loPI   C1B20205   9.958  10.046   6.157 -0.3794  0.2891 -0.0502
 1263loPI   C2B20206  10.047   9.820   6.594  0.0466  0.3305  0.2292
 1263loPI   C3B20207   9.770   9.841   6.977 -0.2486  0.2082 -0.2348
 1263loPI   C4B20208   9.512   9.658   7.222 -0.1836  0.0076 -0.0943
 1264loPI    C120209  16.998   7.044   5.367 -0.0045  0.0926 -0.0882
 1264loPI    C220210  16.951   6.966   4.977  0.0039  0.0417 -0.0790
 1264loPI    C320211  16.887   7.335   5.116 -0.1019  0.0358 -0.1113
 1264loPI   PO420212  16.950   6.811   5.421 -0.1263  0.0897 -0.2524
 1264loPI   GL120213  17.066   6.566   5.694  0.1866 -0.2009  0.0578
 1264loPI   GL220214  17.285   6.836   5.781 -0.0688  0.1354 -0.2338
 1264loPI   C1A20215  16.932   6.433   6.044 -0.0443 -0.2177  0.0792
 1264loPI   C2A20216  16.997   6.484   6.494 -0.1258 -0.1906  0.0155
 1264loPI   C3A20217  17.006   6.557   6.940  0.0267 -0.1945 -0.1760
 1264loPI   C4A20218  17.083   6.688   7.293  0.1006  0.0159 -0.0419
 1264loPI   C5A20219  17.085   6.735   7.714  0.2382 -0.1817 -0.0031
 1264loPI   C6A20220  17.311   6.915   8.003  0.2365 -0.1480  0.3001
 1264loPI   C1B20221  17.229   6.943   6.231 -0.1374  0.2336  0.0302
 1264loPI   C2B20222  17.190   6.913   6.659  0.2620  0.2518  0.1977
 1264loPI   C3B20223  17.253   7.049   7.035 -0.0543 -0.2036  0.0255
 1264loPI   C4B20224  17.213   7.127   7.497  0.1454  0.3155  0.1291
 1265loPI    C120225   1.182  11.318   5.297  0.0768  0.1950 -0.3733
 1265loPI    C220226   1.552  11.302   5.148  0.0913  0.2324 -0.3413
 1265loPI    C320227   1.351  10.964   5.217  0.1833  0.2058 -0.2003
 1265loPI   PO420228   1.244  11.561   5.426 -0.3881  0.1490  0.0627
 1265loPI   GL120229   0.977  11.800   5.708 -0.4792  0.3967  0.0319
 1265loPI   GL220230   1.339  11.716   5.873 -0.0384 -0.0590  0.1948
 1265loPI   C1A20231   0.866  11.797   6.097  0.0916  0.0611  0.2270
 1265loPI   C2A20232   0.926  11.658   6.554  0.0342 -0.2269 -0.1210
 1265loPI   C3A20233   0.940  11.698   7.044  0.0611  0.0652 -0.0028
 1265loPI   C4A20234   0.874  11.633   7.457  0.0294 -0.0995 -0.0592
 1265loPI   C5A20235   1.148  11.283   7.678  0.1893  0.1635  0.3110
 1265loPI   C6A20236   1.147  10.835   7.789 -0.0934 -0.1999 -0.1285
 1265loPI   C1B20237   1.367  11.773   6.310 -0.0182  0.1011  0.2126
 1265loPI   C2B20238   1.422  11.840   6.798 -0.3367 -0.0085 -0.2630
 1265loPI   C3B20239   1.435  11.866   7.199 -0.2052 -0.3080 -0.0144
 1265loPI   C4B20240   1.381  11.671   7.560 -0.1121  0.1910  0.1014
 1266loPI    C120241   2.938  10.546   4.799  0.2564  0.0525  0.0338
 1266loPI    C220242   3.221  10.494   4.521  0.2809  0.0738  0.0547
 1266loPI    C320243   3.047  10.852   4.566  0.0290 -0.0168 -0.1681
 1266loPI   PO420244   3.057  10.542   5.016  0.1021 -0.0616  0.1622
 1266loPI   GL120245   3.157  10.408   5.347  0.4115  0.1517 -0.0639
 1266loPI   GL220246   3.216  10.169   5.524  0.1189 -0.0426 -0.1360
 1266loPI   C1A20247   3.185  10.717   5.644 -0.2346 -0.0693  0.1908
 1266loPI   C2A20248   3.232  10.954   5.948  0.0030  0.0995  0.1930
 1266loPI   C3A20249   3.293  11.361   6.202 -0.0054 -0.2828 -0.0331
 1266loPI   C4A20250   3.315  11.580   6.589 -0.0227  0.2353  0.2425
 1266loPI   C5A20251   3.252  11.590   6.988 -0.2822  0.1380  0.1569
 1266loPI   C6A20252   3.284  11.587   7.404 -0.0044 -0.1189 -0.1797
 1266loPI   C1B20253   3.102  10.184   5.974 -0.0850 -0.1822 -0.3947
 1266loPI   C2B20254   2.857  10.518   6.425  0.1770 -0.1258  0.1880
 1266loPI   C3B20255   2.820  10.587   6.926  0.1888  0.0154  0.0715
 1266loPI   C4B20256   2.956  10.587   7.375  0.0131 -0.4663  0.1284
 1267loPI    C120257   4.192  16.919   4.734  0.2619 -0.1305 -0.2411
 1267loPI    C220258   3.891  16.748   4.533  0.0024 -0.0493  0.0699
 1267loPI    C320259   4.215  16.877   4.337 -0.2376  0.0161 -0.2924
 1267loPI   PO420260   4.134  16.800   4.998 -0.1586 -0.2146 -0.2855
 1267loPI   GL120261   4.336  16.533   5.230 -0.1176 -0.2011 -0.0565
 1267loPI   GL220262   4.165  16.365   5.448 -0.1895  0.0879 -0.1280
 1267loPI   C1A20263   4.435  16.853   5.590  0.0284  0.1209 -0.2052
 1267loPI   C2A20264   4.411  16.941   6.058 -0.1264  0.2675 -0.0233
 1267loPI   C3A20265   4.306  16.972   6.506 -0.1278 -0.1169  0.0468
 1267loPI   C4A20266   4.389  16.998   6.967  0.2209 -0.0830  0.1088
 1267loPI   C5A20267   4.331  16.940   7.371 -0.1719 -0.2531  0.0981
 1267loPI   C6A20268   4.507  16.833   7.714 -0.0146 -0.3915  0.0677
 1267loPI   C1B20269   4.292  16.417   5.858  0.2535 -0.0341 -0.0456
 1267loPI   C2B20270   4.211  16.447   6.348 -0.0170  0.1305 -0.1054
 1267loPI   C3B20271   4.207  16.551   6.790  0.1286  0.1287  0.1685
 1267loPI   C4B20272   4.260  16.513   7.190  0.2921  0.1032 -0.1088
 1268loPI    C120273   3.236  13.849   5.376  0.0302 -0.1005 -0.0219
 1268loPI    C220274   3.397  13.776   5.018  0.0009 -0.1225 -0.0306
 1268loPI    C320275   3.363  14.152   5.148  0.1154 -0.1215 -0.0026
 1268loPI   PO420276   3.057  13.526   5.408 -0.0079  0.0354  0.0489
 1268loPI   GL120277   2.836  13.497   5.751 -0.0353 -0.0146  0.1117
 1268loPI   GL220278   2.837  13.869   5.693  0.0920  0.1967 -0.1656
 1268loPI   C1A20279   2.911  13.710   6.124  0.0498 -0.1189 -0.1260
 1268loPI   C2A20280   2.918  13.745   6.573 -0.2854  0.1370  0.0066
 1268loPI   C3A20281   2.876  13.653   6.947 -0.0281  0.0782  0.1295
 1268loPI   C4A20282   2.846  13.719   7.401 -0.0318  0.0616  0.0645
 1268loPI   C5A20283   2.932  13.869   7.772 -0.0548 -0.2853  0.2254
 1268loPI   C6A20284   3.019  13.943   8.183 -0.0113 -0.5115  0.3747
 1268loPI   C1B20285   3.024  14.187   5.955 -0.0506  0.1088  0.1497
 1268loPI   C2B20286   3.077  14.151   6.336 -0.1238 -0.2808  0.0065
 1268loPI   C3B20287   3.017  14.196   6.821 -0.0501 -0.2495 -0.0217
 1268loPI   C4B20288   3.010  14.221   7.159  0.0523 -0.0614 -0.0469
 1269loPI    C120289   8.654   8.239   4.879 -0.2762  0.0390  0.1024
 1269loPI    C220290   8.406   7.989   4.690 -0.1975  0.0680 -0.0409
 1269loPI    C320291   8.535   8.319   4.506  0.1003 -0.0443 -0.0405
 1269loPI   PO420292   8.507   8.112   5.167  0.0944 -0.1478 -0.1300
 1269loPI   GL120293   8.724   8.032   5.497 -0.0455 -0.2409  0.1298
 1269loPI   GL220294   8.911   7.712   5.565 -0.0584  0.1465  0.1142
 1269loPI   C1A20295   8.561   7.913   5.889  0.0648 -0.1462  0.1547
 1269loPI   C2A20296   8.647   7.744   6.243  0.1968 -0.1133  0.1216
 1269loPI   C3A20297   8.746   7.630   6.605  0.2418  0.1925  0.0985
 1269loPI   C4A20298   8.623   7.594   7.081  0.3596  0.1521  0.2464
 1269loPI   C5A20299   8.673   7.420   7.425 -0.1101 -0.1191 -0.2432
 1269loPI   C6A20300   9.006   7.272   7.688  0.2513  0.1191  0.0759
 1269loPI   C1B20301   9.021   7.602   5.925 -0.0586 -0.2285 -0.0130
 1269loPI   C2B20302   9.143   7.479   6.367 -0.2055 -0.2217  0.3860
 1269loPI   C3B20303   9.187   7.474   6.786 -0.3174  0.3495  0.1452
 1269loPI   C4B20304   9.137   7.465   7.243 -0.0228 -0.1928 -0.1812
 1270loPI    C120305   9.627   8.153   4.983 -0.0657  0.0289 -0.1492
 1270loPI    C220306   9.462   7.911   4.711 -0.1574 -0.0884  0.0095
 1270loPI    C320307   9.844   7.861   4.817 -0.0694  0.0690 -0.2252
 1270loPI   PO420308   9.467   8.169   5.193 -0.0130 -0.2940  0.1350
 1270loPI   GL120309   9.199   8.135   5.631  0.0242  0.2280  0.0783
 1270loPI   GL220310   9.475   7.940   5.670 -0.1610 -0.0292 -0.0695
 1270loPI   C1A20311   9.093   8.078   6.102  0.0508  0.1024  0.0956
 1270loPI   C2A20312   9.135   7.965   6.509  0.5485  0.0632 -0.1218
 1270loPI   C3A20313   9.100   7.932   6.952  0.0377 -0.4209 -0.2285
 1270loPI   C4A20314   9.144   8.021   7.417  0.0149  0.2926 -0.1729
 1270loPI   C5A20315   9.238   7.767   7.821  0.0907  0.0412  0.3514
 1270loPI   C6A20316   9.065   7.737   8.196 -0.0536 -0.0840 -0.2182
 1270loPI   C1B20317   9.547   7.889   6.104 -0.2789  0.1598 -0.0435
 1270loPI   C2B20318   9.577   7.810   6.536  0.0321 -0.1694  0.4700
 1270loPI   C3B20319   9.579   7.782   6.832  0.3706  0.0240 -0.2018
 1270loPI   C4B20320   9.591   7.775   7.363 -0.0616  0.0184 -0.0343
 1271loPI    C120321   6.564  16.362   4.476 -0.0220  0.2001 -0.1909
 1271loPI    C220322   6.448  15.995   4.368 -0.0110  0.1053  0.1114
 1271loPI    C320323   6.622  16.236   4.100  0.2136 -0.2024 -0.0261
 1271loPI   PO420324   6.646  16.315   4.713  0.1130  0.0717 -0.0881
 1271loPI   GL120325   6.719  16.286   5.147 -0.0088  0.1790  0.1278
 1271loPI   GL220326   6.412  16.443   5.174  0.1783 -0.1635  0.0541
 1271loPI   C1A20327   6.648  16.185   5.610 -0.2387 -0.0153 -0.0998
 1271loPI   C2A20328   6.510  16.198   6.060  0.1589 -0.1913 -0.0098
 1271loPI   C3A20329   6.469  16.218   6.474  0.1502 -0.1068  0.1164
 1271loPI   C4A20330   6.505  16.228   6.984  0.2978 -0.1078 -0.0491
 1271loPI   C5A20331   6.324  16.161   7.423 -0.2598  0.1659 -0.0546
 1271loPI   C6A20332   6.289  16.022   7.902 -0.2039 -0.1566 -0.2327
 1271loPI   C1B20333   6.291  16.568   5.640  0.2542  0.1637  0.1812
 1271loPI   C2B20334   6.266  16.608   6.115 -0.0418 -0.1003  0.0306
 1271loPI   C3B20335   6.255  16.643   6.565 -0.3545 -0.1637  0.0650
 1271loPI   C4B20336   6.176  16.618   6.955 -0.1189 -0.2867  0.1043
 1272loPI    C120337   0.332  13.853   5.178 -0.0994  0.1995  0.0712
 1272loPI    C220338   0.011  13.696   5.359 -0.1204  0.3229  0.1422
 1272loPI    C320339   0.020  13.730   4.960 -0.1035  0.1159  0.1240
 1272loPI   PO420340   0.452  14.051   5.331  0.1778  0.1992  0.3133
 1272loPI   GL120341   0.262  14.227   5.670 -0.0030 -0.1646  0.0627
 1272loPI   GL220342  -0.019  14.412   5.677  0.1731 -0.2431  0.1675
 1272loPI   C1A20343   0.299  14.250   6.158 -0.1528 -0.2381 -0.1306
 1272loPI   C2A20344   0.310  14.377   6.569 -0.1272  0.1958  0.0655
 1272loPI   C3A20345   0.128  14.329   6.963 -0.3059 -0.2588  0.0049
 1272loPI   C4A20346   0.211  14.391   7.376  0.1372  0.0675 -0.1280
 1272loPI   C5A20347   0.272  14.385   7.808 -0.0946  0.1190 -0.1934
 1272loPI   C6A20348   0.108  14.362   8.219 -0.1738  0.4001 -0.0680
 1272loPI   C1B20349  -0.013  14.647   6.093 -0.1437 -0.0525  0.0250
 1272loPI   C2B20350  -0.050  14.776   6.534 -0.0646  0.0358  0.0577
 1272loPI   C3B20351  -0.094  14.774   7.009 -0.1810 -0.0534 -0.1543
 1272loPI   C4B20352  -0.211  14.860   7.440 -0.0152 -0.0531 -0.1572
 1273loPI    C120353  15.458   6.273   5.133 -0.0117 -0.0821  0.0893
 1273loPI    C220354  15.085   6.211   5.265 -0.0538 -0.0549 -0.0162
 1273loPI    C320355  15.175   6.145   4.881  0.0276  0.0285 -0.0118
 1273loPI   PO420356  15.518   6.305   5.472  0.0706  0.2744  0.0972
 1273loPI   GL120357  15.324   6.051   5.819  0.2708 -0.2421  0.2400
 1273loPI   GL220358  14.975   5.940   5.683 -0.0623 -0.1283  0.3482
 1273loPI   C1A20359  15.417   6.064   6.271  0.2260 -0.0201  0.1133
 1273loPI   C2A20360  15.484   6.093   6.693 -0.0843 -0.2061 -0.1763
 1273loPI   C3A20361  15.515   6.074   7.137 -0.4654  0.1894  0.1562
 1273loPI   C4A20362  15.522   5.946   7.580  0.0818  0.0378  0.1190
 1273loPI   C5A20363  15.523   5.874   8.101 -0.0554  0.0315 -0.1845
 1273loPI   C6A20364  15.975   5.880   8.241 -0.0852 -0.1083 -0.1487
 1273loPI   C1B20365  14.810   5.913   6.171  0.0603 -0.5248  0.1857
 1273loPI   C2B20366  14.975   5.869   6.627  0.3763 -0.1401  0.1855
 1273loPI   C3B20367  14.948   5.955   7.089 -0.3024  0.4872  0.0933
 1273loPI   C4B20368  15.050   5.826   7.543 -0.4814  0.0811 -0.0724
 1274loPI    C120369  12.639   1.514   4.908 -0.0392 -0.0518 -0.0006
 1274loPI    C220370  12.302   1.461   4.700 -0.0463 -0.1336  0.0313
 1274loPI    C320371  12.646   1.527   4.508 -0.0933  0.0296  0.0009
 1274loPI   PO420372  12.604   1.433   5.133 -0.2038  0.0645  0.0679
 1274loPI   GL120373  12.597   1.565   5.561  0.1821  0.3302 -0.1753
 1274loPI   GL220374  12.905   1.512   5.539 -0.2209 -0.1408  0.1755
 1274loPI   C1A20375  12.788   1.571   5.993  0.0417 -0.1359  0.0933
 1274loPI   C2A20376  12.820   1.617   6.398  0.2408  0.0262  0.1588
 1274loPI   C3A20377  12.813   1.665   6.841  0.0145  0.0038  0.0636
 1274loPI   C4A20378  12.830   1.710   7.273  0.1321  0.1380 -0.1776
 1274loPI   C5A20379  13.026   1.436   7.580 -0.0497  0.3021  0.0704
 1274loPI   C6A20380  13.015   1.161   7.823 -0.2375 -0.0887  0.2844
 1274loPI   C1B20381  13.122   1.225   5.847  0.0520 -0.0732 -0.0001
 1274loPI   C2B20382  13.100   1.200   6.237 -0.3733  0.1543 -0.3219
 1274loPI   C3B20383  13.179   1.258   6.695  0.1722  0.2854 -0.1239
 1274loPI   C4B20384  13.011   1.293   7.071  0.0494  0.4529 -0.0776
 1275loPI    C120385  13.257   5.423   5.489 -0.0109  0.1561  0.0227
 1275loPI    C220386  12.880   5.374   5.612  0.0309  0.0479  0.1090
 1275loPI    C320387  12.990   5.244   5.250 -0.0432  0.1856  0.0367
 1275loPI   PO420388  13.479   5.395   5.658  0.1494  0.0316  0.2133
 1275loPI   GL120389  13.643   5.061   5.884  0.0163  0.0841  0.0733
 1275loPI   GL220390  13.898   4.902   5.835  0.1301  0.0528  0.0706
 1275loPI   C1A20391  13.762   5.189   6.241  0.2908 -0.0959  0.0958
 1275loPI   C2A20392  13.785   5.289   6.600 -0.1473  0.3434 -0.1369
 1275loPI   C3A20393  13.787   5.216   7.052  0.0332 -0.0555 -0.1430
 1275loPI   C4A20394  13.827   5.310   7.504  0.0069  0.1036  0.1781
 1275loPI   C5A20395  14.064   5.166   7.814  0.1997 -0.0738 -0.2847
 1275loPI   C6A20396  14.325   4.861   7.908 -0.3187 -0.3625  0.1710
 1275loPI   C1B20397  14.092   4.770   6.258  0.1702 -0.0685 -0.0101
 1275loPI   C2B20398  14.021   4.878   6.671  0.0839  0.0406 -0.1957
 1275loPI   C3B20399  14.221   4.821   7.059  0.1600  0.0701 -0.0305
 1275loPI   C4B20400  14.249   4.908   7.418 -0.2239 -0.2865  0.0389
 1276loPI    C120401  14.302   2.027   4.612 -0.1040  0.1118 -0.0811
 1276loPI    C220402  13.903   2.039   4.643 -0.1129 -0.0025 -0.1452
 1276loPI    C320403  14.074   1.852   4.334 -0.0095  0.0647 -0.1292
 1276loPI   PO420404  14.417   2.107   4.857  0.7584  0.0948 -0.0644
 1276loPI   GL120405  14.480   2.426   5.325 -0.1201  0.2031 -0.0057
 1276loPI   GL220406  14.759   2.524   5.338  0.3112 -0.2941 -0.2035
 1276loPI   C1A20407  14.553   2.288   5.835 -0.1056 -0.2693  0.0321
 1276loPI   C2A20408  14.526   2.267   6.270  0.2169 -0.2625 -0.1767
 1276loPI   C3A20409  14.573   2.255   6.692 -0.4078 -0.1000 -0.0548
 1276loPI   C4A20410  14.568   2.266   7.091 -0.0357  0.1501 -0.3493
 1276loPI   C5A20411  14.618   2.320   7.644  0.1939  0.1533 -0.0894
 1276loPI   C6A20412  14.709   2.401   8.058 -0.1933 -0.0674 -0.2289
 1276loPI   C1B20413  14.787   2.779   5.754  0.0880 -0.2911  0.4135
 1276loPI   C2B20414  14.786   2.781   6.181 -0.4247  0.0874 -0.0776
 1276loPI   C3B20415  14.675   2.742   6.554 -0.0512  0.0607 -0.1707
 1276loPI   C4B20416  14.764   2.714   6.952  0.0358 -0.0160  0.2583
 1277loPI    C120417   7.791   4.954   4.952 -0.0784 -0.0729 -0.1514
 1277loPI    C220418   8.035   4.914   4.637  0.0059  0.2302 -0.1278
 1277loPI    C320419   7.867   5.269   4.716  0.0462  0.1766  0.2136
 1277loPI   PO420420   7.890   4.862   5.190 -0.1700 -0.1406 -0.0792
 1277loPI   GL120421   8.051   4.730   5.636  0.4608  0.1305  0.1542
 1277loPI   GL220422   7.753   4.684   5.872 -0.1088  0.5304  0.0010
 1277loPI   C1A20423   8.196   4.803   6.037 -0.0367  0.0255 -0.0733
 1277loPI   C2A20424   8.351   4.773   6.447 -0.1218  0.2590  0.1557
 1277loPI   C3A20425   8.432   4.886   6.792 -0.0392  0.0523  0.2075
 1277loPI   C4A20426   8.396   4.802   7.178  0.3607 -0.2847  0.3569
 1277loPI   C5A20427   8.444   4.557   7.487  0.2133 -0.0805 -0.0239
 1277loPI   C6A20428   8.391   4.104   7.545  0.0158 -0.0413 -0.4177
 1277loPI   C1B20429   7.457   4.665   6.243  0.1513 -0.1754 -0.4659
 1277loPI   C2B20430   7.310   4.777   6.705 -0.1814  0.1100 -0.0215
 1277loPI   C3B20431   7.448   4.737   7.184  0.1377  0.2943 -0.0786
 1277loPI   C4B20432   7.689   4.790   7.533 -0.0189 -0.1152  0.1923
 1278loPI    C120433  18.226   5.920   4.962 -0.0544  0.0869  0.1229
 1278loPI    C220434  17.991   6.073   4.678  0.0419 -0.0797 -0.0490
 1278loPI    C320435  18.073   5.682   4.680 -0.0221 -0.0938  0.2562
 1278loPI   PO420436  18.128   6.013   5.173 -0.3564 -0.3180  0.2158
 1278loPI   GL120437  17.992   6.033   5.628  0.1288  0.0894 -0.1405
 1278loPI   GL220438  18.281   5.845   5.641 -0.1438  0.1503 -0.2746
 1278loPI   C1A20439  17.856   6.029   6.060  0.0466  0.0158 -0.0807
 1278loPI   C2A20440  17.904   6.094   6.446 -0.0569  0.1910  0.0647
 1278loPI   C3A20441  17.917   6.133   6.873 -0.0219 -0.0427  0.1233
 1278loPI   C4A20442  17.914   6.196   7.316  0.1020 -0.1085  0.0163
 1278loPI   C5A20443  17.884   6.258   7.807  0.1910 -0.1204 -0.0468
 1278loPI   C6A20444  17.783   6.528   8.104 -0.0442  0.0656 -0.2499
 1278loPI   C1B20445  18.206   5.608   6.050 -0.2093  0.0670 -0.2111
 1278loPI   C2B20446  18.228   5.694   6.401  0.0910  0.2042 -0.1351
 1278loPI   C3B20447  18.228   5.732   6.857  0.0976 -0.0025 -0.1013
 1278loPI   C4B20448  18.248   5.754   7.288 -0.0751 -0.0398  0.1742
 1279loPI    C120449   2.015   9.773   5.089  0.0158 -0.0858  0.1682
 1279loPI    C220450   1.759   9.582   4.848 -0.1270  0.1252  0.1495
 1279loPI    C320451   2.152   9.571   4.773 -0.1329 -0.1584  0.1494
 1279loPI   PO420452   1.950   9.748   5.292  0.0988  0.0646  0.1634
 1279loPI   GL120453   1.731   9.961   5.589  0.1552  0.0840 -0.2343
 1279loPI   GL220454   1.463  10.054   5.705  0.1673  0.1453 -0.1535
 1279loPI   C1A20455   1.844   9.703   5.957 -0.1128  0.1314  0.1589
 1279loPI   C2A20456   1.840   9.626   6.338 -0.1990  0.1255 -0.0505
 1279loPI   C3A20457   1.907   9.571   6.745 -0.1471  0.4030  0.1849
 1279loPI   C4A20458   1.910   9.593   7.199 -0.4281 -0.3952 -0.1178
 1279loPI   C5A20459   2.064   9.692   7.614 -0.0150 -0.1047  0.2003
 1279loPI   C6A20460   2.193   9.739   7.985  0.0384  0.0517  0.0692
 1279loPI   C1B20461   1.612  10.055   6.148 -0.1392 -0.2370 -0.1426
 1279loPI   C2B20462   1.645  10.029   6.606  0.0053 -0.1352  0.1442
 1279loPI   C3B20463   1.641   9.943   7.005  0.1211  0.1088  0.2485
 1279loPI   C4B20464   1.574   9.995   7.441 -0.1088 -0.0822 -0.2300
 1280loPI    C120465  15.730   0.652   5.341  0.0772 -0.1522  0.0252
 1280loPI    C220466  15.824   0.376   5.067  0.5189 -0.1146  0.1305
 1280loPI    C320467  15.890   0.764   4.992  0.1844 -0.0595  0.1031
 1280loPI   PO420468  15.493   0.565   5.406 -0.0348 -0.0030  0.2611
 1280loPI   GL120469  15.348   0.501   5.751 -0.1615  0.0217 -0.1483
 1280loPI   GL220470  15.172   0.211   6.021  0.1125 -0.1118  0.2145
 1280loPI   C1A20471  15.302   0.716   6.024  0.0594 -0.0889  0.0937
 1280loPI   C2A20472  15.416   0.670   6.389  0.1261 -0.3861 -0.2285
 1280loPI   C3A20473  15.263   0.611   6.765 -0.0888 -0.1926  0.1614
 1280loPI   C4A20474  15.260   0.651   7.241 -0.0819 -0.1991 -0.2004
 1280loPI   C5A20475  15.204   0.669   7.690  0.1034  0.0592 -0.0209
 1280loPI   C6A20476  15.232   0.561   8.151 -0.0970 -0.1696 -0.0254
 1280loPI   C1B20477  15.156   0.156   6.483  0.0276  0.1368  0.1503
 1280loPI   C2B20478  15.045   0.171   6.941  0.2633 -0.1416 -0.1500
 1280loPI   C3B20479  15.116   0.177   7.369  0.2755 -0.1245 -0.0951
 1280loPI   C4B20480  15.109   0.178   7.751 -0.1097  0.1877  0.0460
 1281loPI    C120481   1.125   9.314   5.147 -0.3528 -0.2200 -0.0322
 1281loPI    C220482   1.034   8.992   4.928  0.0748 -0.2562 -0.1659
 1281loPI    C320483   1.355   9.212   4.836 -0.0883  0.0837  0.0585
 1281loPI   PO420484   1.142   9.177   5.431  0.0675  0.2246  0.0346
 1281loPI   GL120485   0.944   9.044   5.718 -0.0056  0.0011  0.1396
 1281loPI   GL220486   0.656   9.360   5.700  0.0426 -0.1110  0.1928
 1281loPI   C1A20487   0.899   8.861   6.144 -0.0183 -0.1012 -0.1624
 1281loPI   C2A20488   1.130   8.512   6.190 -0.0247  0.0109 -0.0277
 1281loPI   C3A20489   1.215   8.232   6.489  0.2616 -0.0019 -0.1949
 1281loPI   C4A20490   1.435   8.185   6.870  0.1472  0.0782  0.0648
 1281loPI   C5A20491   1.332   8.124   7.284 -0.0772  0.1044  0.0690
 1281loPI   C6A20492   1.436   8.141   7.727  0.0369  0.2205  0.0039
 1281loPI   C1B20493   0.902   9.427   6.112  0.1849  0.0475  0.1490
 1281loPI   C2B20494   0.880   9.445   6.612  0.0122 -0.0596  0.2254
 1281loPI   C3B20495   0.919   9.501   7.040 -0.2188 -0.0236  0.0034
 1281loPI   C4B20496   1.011   9.491   7.578 -0.0376  0.1019 -0.0135
 1282loPI    C120497   1.993   3.258   4.903 -0.0330  0.1161  0.0852
 1282loPI    C220498   1.596   3.237   4.860 -0.0555  0.2995  0.1913
 1282loPI    C320499   1.827   3.331   4.547 -0.0960  0.2064  0.1328
 1282loPI   PO420500   2.013   3.384   5.128  0.0863  0.1855 -0.2713
 1282loPI   GL120501   2.237   3.427   5.414 -0.0349  0.0229  0.1791
 1282loPI   GL220502   2.522   3.699   5.491  0.2641 -0.0384  0.2046
 1282loPI   C1A20503   2.152   3.279   5.804  0.0425 -0.0391 -0.0910
 1282loPI   C2A20504   2.102   3.282   6.201  0.1008 -0.0023 -0.2253
 1282loPI   C3A20505   2.170   3.344   6.567  0.1291 -0.0512  0.0762
 1282loPI   C4A20506   2.256   3.342   7.048 -0.1833  0.0056  0.1145
 1282loPI   C5A20507   2.302   3.375   7.453  0.0267  0.1665 -0.2591
 1282loPI   C6A20508   2.420   3.756   7.738 -0.3349 -0.1791  0.1724
 1282loPI   C1B20509   2.331   3.776   5.924 -0.2728 -0.1582 -0.0619
 1282loPI   C2B20510   2.376   3.771   6.347 -0.1687 -0.3227  0.0145
 1282loPI   C3B20511   2.451   3.801   6.767 -0.1575 -0.1106  0.0611
 1282loPI   C4B20512   2.486   3.858   7.212 -0.3158 -0.2793  0.1018
 1283loPI    C120513   7.105  14.457   5.096  0.0949  0.0387 -0.0185
 1283loPI    C220514   6.981  14.088   5.006  0.3592 -0.0504 -0.0274
 1283loPI    C320515   6.907  14.391   4.755 -0.0168 -0.0605  0.0650
 1283loPI   PO420516   7.142  14.474   5.387 -0.0491  0.1073  0.1003
 1283loPI   GL120517   7.078  14.537   5.753 -0.0596 -0.1087  0.0977
 1283loPI   GL220518   6.832  14.445   5.872  0.0709 -0.0762 -0.1926
 1283loPI   C1A20519   7.397  14.782   5.988  0.0850 -0.0038  0.0969
 1283loPI   C2A20520   7.412  14.910   6.453  0.2396 -0.0183 -0.1971
 1283loPI   C3A20521   7.283  15.042   6.806  0.0569  0.1452  0.2303
 1283loPI   C4A20522   7.277  14.814   7.153  0.0204  0.1282  0.0131
 1283loPI   C5A20523   7.274  14.707   7.547  0.3357 -0.0714  0.0287
 1283loPI   C6A20524   7.146  14.710   8.037  0.0545  0.0939  0.1765
 1283loPI   C1B20525   7.100  14.484   6.317 -0.0873  0.2800 -0.2484
 1283loPI   C2B20526   7.062  14.525   6.779  0.0642  0.3201  0.0262
 1283loPI   C3B20527   7.125  14.368   7.207  0.0130 -0.0687 -0.2430
 1283loPI   C4B20528   6.863  14.427   7.687 -0.1894 -0.0423 -0.1668
 1284loPI    C120529  16.626   7.785   5.380 -0.1274  0.0206  0.1646
 1284loPI    C220530  16.248   7.844   5.261 -0.0868 -0.1955 -0.0813
 1284loPI    C320531  16.442   7.510   5.155  0.1869 -0.0694  0.0106
 1284loPI   PO420532  16.632   7.791   5.662 -0.1280 -0.0735 -0.0978
 1284loPI   GL120533  16.461   7.563   6.092  0.0869 -0.2529 -0.0921
 1284loPI   GL220534  16.418   7.303   6.158 -0.2011  0.0423 -0.0019
 1284loPI   C1A20535  16.466   7.583   6.590  0.0008 -0.0764 -0.0951
 1284loPI   C2A20536  16.431   7.614   7.032 -0.1393  0.2032  0.3004
 1284loPI   C3A20537  16.597   7.883   7.265  0.0776  0.0244 -0.1671
 1284loPI   C4A20538  16.604   7.921   7.741 -0.0337 -0.0054  0.1762
 1284loPI   C5A20539  16.593   8.133   8.042 -0.0065  0.1711 -0.0362
 1284loPI   C6A20540  16.714   8.485   8.377  0.0737 -0.0332 -0.2408
 1284loPI   C1B20541  16.314   7.109   6.490 -0.0238 -0.1615 -0.1182
 1284loPI   C2B20542  16.208   7.208   6.878 -0.1654 -0.1411  0.1844
 1284loPI   C3B20543  16.340   7.168   7.254  0.0551 -0.2211  0.3895
 1284loPI   C4B20544  16.336   7.504   7.525 -0.1870 -0.0173  0.1596
 1285loPI    C120545   4.651  14.971   4.525 -0.1029  0.3038  0.0374
 1285loPI    C220546   4.590  14.825   4.157 -0.2812  0.2411  0.0914
 1285loPI    C320547   4.960  14.923   4.274 -0.1786 -0.0323  0.0040
 1285loPI   PO420548   4.594  14.763   4.708  0.2217 -0.1561 -0.0397
 1285loPI   GL120549   4.448  14.774   5.164  0.1800  0.2523 -0.2158
 1285loPI   GL220550   4.496  15.079   5.307  0.0284 -0.0970  0.0125
 1285loPI   C1A20551   4.515  14.664   5.582 -0.1517  0.0023  0.1330
 1285loPI   C2A20552   4.424  14.739   5.930 -0.0142  0.0188  0.1121
 1285loPI   C3A20553   4.373  14.741   6.356  0.1499  0.0261 -0.0641
 1285loPI   C4A20554   4.320  14.739   6.770 -0.1408 -0.0730  0.0426
 1285loPI   C5A20555   4.237  14.768   7.251  0.1944 -0.1354 -0.1041
 1285loPI   C6A20556   4.056  14.968   7.666  0.0242  0.1121 -0.0576
 1285loPI   C1B20557   4.631  15.153   5.679  0.3003  0.1945 -0.0625
 1285loPI   C2B20558   4.557  15.191   6.069 -0.0154  0.2672 -0.1980
 1285loPI   C3B20559   4.528  15.223   6.587 -0.2448  0.0599  0.4786
 1285loPI   C4B20560   4.415  15.223   6.995 -0.0173 -0.1931  0.0229
 1286loPI    C120561   0.377  11.486   4.820  0.0437  0.1052  0.0823
 1286loPI    C220562   0.727  11.298   4.865 -0.0824 -0.1264  0.1141
 1286loPI    C320563   0.526  11.268   4.520 -0.0082  0.1181  0.0470
 1286loPI   PO420564   0.308  11.664   5.104 -0.0108 -0.0854  0.2336
 1286loPI   GL120565   0.204  11.576   5.601  0.2994 -0.2835 -0.0881
 1286loPI   GL220566   0.084  11.222   5.768  0.4387 -0.1486  0.1713
 1286loPI   C1A20567   0.392  11.641   5.905  0.1642 -0.1255  0.1121
 1286loPI   C2A20568   0.434  11.646   6.373  0.0843 -0.0595  0.1075
 1286loPI   C3A20569   0.347  11.670   6.796  0.1459  0.2088 -0.1116
 1286loPI   C4A20570   0.421  11.599   7.256 -0.4142 -0.0795 -0.0239
 1286loPI   C5A20571   0.454  11.679   7.725 -0.0410 -0.0284  0.0003
 1286loPI   C6A20572   0.486  11.593   8.173 -0.0085 -0.0280 -0.2954
 1286loPI   C1B20573   0.098  11.252   6.167 -0.2021  0.2998 -0.3612
 1286loPI   C2B20574   0.183  11.177   6.679  0.0784  0.1476  0.1084
 1286loPI   C3B20575   0.183  11.104   7.217 -0.3111 -0.2001 -0.0560
 1286loPI   C4B20576   0.154  11.141   7.657  0.1009 -0.0590  0.0520
 1287loPI    C120577   8.073  13.868   5.548  0.2690 -0.0084  0.0398
 1287loPI    C220578   7.892  13.754   5.886  0.2003  0.3082  0.1137
 1287loPI    C320579   8.198  13.541   5.741 -0.1062 -0.1278  0.0883
 1287loPI   PO420580   7.974  14.155   5.593 -0.2013  0.0645  0.4176
 1287loPI   GL120581   8.090  14.264   5.964 -0.0330 -0.1644  0.0120
 1287loPI   GL220582   8.212  14.056   6.143 -0.0291  0.4207 -0.0496
 1287loPI   C1A20583   8.158  14.447   6.378 -0.0036 -0.2251  0.0350
 1287loPI   C2A20584   8.077  14.375   6.725 -0.1571 -0.0005  0.2484
 1287loPI   C3A20585   8.107  14.309   7.054 -0.1133 -0.2454  0.1446
 1287loPI   C4A20586   8.226  14.258   7.366  0.1231  0.0998 -0.3334
 1287loPI   C5A20587   8.369  14.226   7.723 -0.1468  0.1444  0.1320
 1287loPI   C6A20588   8.141  14.211   8.107 -0.1567  0.1364  0.0053
 1287loPI   C1B20589   8.071  13.897   6.487  0.1529 -0.2823  0.0105
 1287loPI   C2B20590   7.794  13.939   6.789 -0.2449 -0.0682  0.0277
 1287loPI   C3B20591   7.761  13.962   7.154 -0.1889  0.1587  0.1977
 1287loPI   C4B20592   7.850  13.957   7.550 -0.0615 -0.0571 -0.2107
 1288loPI    C120593   0.583   5.141   4.835 -0.0452  0.0512 -0.1303
 1288loPI    C220594   0.251   5.200   4.620 -0.0417  0.0198 -0.1444
 1288loPI    C320595   0.602   5.342   4.489 -0.0431  0.0190 -0.1490
 1288loPI   PO420596   0.503   5.038   5.102 -0.1579 -0.1358 -0.0074
 1288loPI   GL120597   0.561   5.110   5.522 -0.1620  0.0358 -0.0410
 1288loPI   GL220598   0.620   4.843   5.586 -0.0243 -0.0336 -0.1497
 1288loPI   C1A20599   0.555   4.922   6.073 -0.0056 -0.1150  0.0403
 1288loPI   C2A20600   0.568   4.901   6.513  0.1779 -0.0599  0.1448
 1288loPI   C3A20601   0.592   4.837   6.890  0.0210 -0.0636 -0.1119
 1288loPI   C4A20602   0.509   4.974   7.331  0.1799  0.1568  0.3950
 1288loPI   C5A20603   0.605   4.813   7.658 -0.0388 -0.2878  0.0865
 1288loPI   C6A20604   0.448   4.458   7.955  0.1543 -0.1111  0.0022
 1288loPI   C1B20605   0.414   4.476   5.871 -0.0474  0.2360 -0.0694
 1288loPI   C2B20606   0.459   4.110   6.149  0.0351  0.1764  0.0743
 1288loPI   C3B20607   0.702   4.062   6.420  0.0549 -0.0722  0.0719
 1288loPI   C4B20608   0.710   4.348   6.830 -0.0218  0.0732  0.0275
 1289loPI    C120609   2.479   6.318   5.159  0.2541 -0.1347 -0.0331
 1289loPI    C220610   2.124   6.156   5.071  0.2022 -0.0726  0.0604
 1289loPI    C320611   2.281   6.436   4.832  0.1091  0.0223  0.1096
 1289loPI   PO420612   2.432   6.399   5.382  0.3525  0.2428  0.0450
 1289loPI   GL120613   2.190   6.501   5.714  0.0962 -0.0821 -0.1853
 1289loPI   GL220614   1.964   6.739   5.751 -0.0269  0.1949 -0.1477
 1289loPI   C1A20615   2.144   6.441   6.131 -0.2383  0.2586  0.1557
 1289loPI   C2A20616   2.227   6.444   6.490 -0.0789 -0.1403 -0.0616
 1289loPI   C3A20617   2.107   6.477   6.935  0.0086  0.1113 -0.1759
 1289loPI   C4A20618   2.063   6.537   7.485 -0.2507  0.0041 -0.0467
 1289loPI   C5A20619   2.089   6.571   7.899  0.1080 -0.0403  0.1270
 1289loPI   C6A20620   2.397   6.727   8.089 -0.1446 -0.0636  0.4459
 1289loPI   C1B20621   1.838   6.851   6.184  0.2211  0.1139 -0.1445
 1289loPI   C2B20622   1.690   6.939   6.659  0.1644  0.0070  0.2792
 1289loPI   C3B20623   1.783   6.833   7.115 -0.2280 -0.0245 -0.2510
 1289loPI   C4B20624   1.946   6.982   7.567 -0.0373 -0.0849  0.1796
 1290loPI    C120625   8.932   5.506   5.232 -0.2700 -0.1440 -0.0469
 1290loPI    C220626   8.750   5.406   5.574  0.2020 -0.1573  0.2089
 1290loPI    C320627   8.750   5.151   5.265 -0.2330 -0.1421  0.1899
 1290loPI   PO420628   9.185   5.583   5.274  0.2995 -0.0658 -0.1465
 1290loPI   GL120629   9.450   5.548   5.579 -0.0776 -0.0906  0.1217
 1290loPI   GL220630   9.576   5.897   5.643 -0.2848  0.0478 -0.0971
 1290loPI   C1A20631   9.070   5.580   5.892  0.0927  0.2959 -0.3201
 1290loPI   C2A20632   9.032   5.506   6.325 -0.0867 -0.0798  0.2231
 1290loPI   C3A20633   9.136   5.621   6.665  0.1941  0.1368 -0.0481
 1290loPI   C4A20634   9.117   5.550   7.069 -0.0428 -0.0507 -0.2166
 1290loPI   C5A20635   9.182   5.451   7.520 -0.4131  0.0567 -0.0977
 1290loPI   C6A20636   9.555   5.491   7.615 -0.1076 -0.0422  0.1707
 1290loPI   C1B20637   9.613   5.924   6.059  0.0206 -0.1103 -0.0940
 1290loPI   C2B20638   9.592   5.961   6.535  0.1557  0.0083  0.0140
 1290loPI   C3B20639   9.476   5.890   6.960  0.0470  0.4093  0.0509
 1290loPI   C4B20640   9.486   5.887   7.301 -0.1681  0.4089 -0.1659
 1291loPI    C120641   7.561   5.760   5.188  0.1584 -0.1476  0.0936
 1291loPI    C220642   7.908   5.953   5.237  0.1928 -0.1350 -0.1833
 1291loPI    C320643   7.849   5.728   4.912 -0.0341 -0.1919 -0.1045
 1291loPI   PO420644   7.511   5.691   5.378  0.0199  0.1032 -0.0081
 1291loPI   GL120645   7.656   5.397   5.747  0.1857  0.2255 -0.1014
 1291loPI   GL220646   7.918   5.711   5.688  0.1539  0.2083 -0.3164
 1291loPI   C1A20647   7.869   5.192   6.026 -0.0337 -0.0446  0.0570
 1291loPI   C2A20648   7.936   5.026   6.404  0.0362  0.0478 -0.0398
 1291loPI   C3A20649   7.790   4.873   6.868 -0.2240 -0.1097 -0.1830
 1291loPI   C4A20650   7.879   5.068   7.185 -0.1682 -0.0296  0.1656
 1291loPI   C5A20651   7.745   5.363   7.472 -0.2723 -0.3004 -0.1456
 1291loPI   C6A20652   7.712   5.454   7.940  0.4507 -0.0781 -0.0114
 1291loPI   C1B20653   7.849   5.702   6.094 -0.2118 -0.2332 -0.0536
 1291loPI   C2B20654   7.804   5.528   6.473 -0.1388  0.0699  0.1420
 1291loPI   C3B20655   7.833   5.554   6.948 -0.1205 -0.1908 -0.1048
 1291loPI   C4B20656   7.599   5.825   7.283  0.0953 -0.3377  0.0995
 1292loPI    C120657  15.772   1.308   4.888 -0.1176 -0.0770 -0.0554
 1292loPI    C220658  16.110   1.245   4.684 -0.1892 -0.2690 -0.1173
 1292loPI    C320659  15.837   1.502   4.545 -0.1765 -0.2963 -0.1928
 1292loPI   PO420660  15.897   1.302   5.136 -0.0795 -0.3181  0.0709
 1292loPI   GL120661  15.785   1.202   5.478 -0.1045 -0.0306  0.0759
 1292loPI   GL220662  15.472   1.049   5.642  0.1031  0.2285 -0.2383
 1292loPI   C1A20663  15.620   1.559   5.766 -0.0204  0.0419 -0.0476
 1292loPI   C2A20664  15.672   1.592   6.182  0.0712 -0.0800 -0.2413
 1292loPI   C3A20665  15.784   1.552   6.553  0.1309  0.3141 -0.0123
 1292loPI   C4A20666  15.687   1.527   6.936  0.0821  0.0726 -0.2319
 1292loPI   C5A20667  15.705   1.584   7.374  0.0421  0.2244 -0.0171
 1292loPI   C6A20668  15.948   1.508   7.705  0.0524  0.1438  0.2022
 1292loPI   C1B20669  15.629   1.104   6.084  0.0298  0.3318  0.0856
 1292loPI   C2B20670  15.562   1.108   6.517  0.3860 -0.1924 -0.2625
 1292loPI   C3B20671  15.471   1.055   6.924  0.3190  0.1102 -0.0489
 1292loPI   C4B20672  15.395   1.122   7.384 -0.1175 -0.0678  0.0428
 1293loPI    C120673  11.613  14.960   5.161 -0.0200  0.0160 -0.0394
 1293loPI    C220674  11.335  14.686   5.073 -0.0397  0.0483 -0.0781
 1293loPI    C320675  11.641  14.747   4.823 -0.1448  0.2042 -0.1701
 1293loPI   PO420676  11.491  14.991   5.403  0.0820  0.1147 -0.1920
 1293loPI   GL120677  11.427  15.217   5.778 -0.0805 -0.4171  0.0551
 1293loPI   GL220678  11.609  14.984   5.942  0.0679  0.2726  0.1871
 1293loPI   C1A20679  11.073  15.031   5.986 -0.0246 -0.1263  0.0248
 1293loPI   C2A20680  10.990  15.044   6.420 -0.1116  0.0635 -0.1158
 1293loPI   C3A20681  10.966  14.951   6.916  0.1862 -0.2925  0.1941
 1293loPI   C4A20682  10.824  15.044   7.282  0.0288  0.2756  0.0809
 1293loPI   C5A20683  10.879  15.045   7.660  0.1177  0.2154  0.2502
 1293loPI   C6A20684  11.145  14.680   7.666  0.2087 -0.2085  0.3249
 1293loPI   C1B20685  11.485  15.102   6.284  0.1449  0.1594 -0.1148
 1293loPI   C2B20686  11.547  14.946   6.731 -0.1120  0.1044 -0.3429
 1293loPI   C3B20687  11.412  14.817   7.091 -0.1641  0.2318 -0.0698
 1293loPI   C4B20688  11.486  15.040   7.411 -0.2238 -0.1557  0.0215
 1294loPI    C120689   6.080   0.157   4.878  0.2369 -0.0167 -0.0587
 1294loPI    C220690   6.010   0.532   4.999  0.1982 -0.0139 -0.0901
 1294loPI    C320691   5.924   0.422   4.624  0.3983  0.0004 -0.1414
 1294loPI   PO420692   5.894  -0.013   4.963 -0.0101 -0.1771 -0.0886
 1294loPI   GL120693   5.729  -0.090   5.338  0.1745  0.0332 -0.2380
 1294loPI   GL220694   5.833   0.249   5.404  0.2049 -0.1440 -0.3382
 1294loPI   C1A20695   5.641  -0.057   5.833 -0.0744  0.0319  0.1813
 1294loPI   C2A20696   5.574   0.077   6.273 -0.0021  0.1374 -0.0429
 1294loPI   C3A20697   5.594   0.068   6.760  0.0056  0.2372 -0.1183
 1294loPI   C4A20698   5.528   0.097   7.163 -0.2178 -0.0390  0.0137
 1294loPI   C5A20699   5.615   0.093   7.632 -0.3002  0.1862  0.0728
 1294loPI   C6A20700   5.724  -0.088   7.986 -0.0390  0.3003  0.1797
 1294loPI   C1B20701   5.898   0.399   5.804  0.2203 -0.0462  0.2734
 1294loPI   C2B20702   5.817   0.489   6.131 -0.0414  0.0141  0.2255
 1294loPI   C3B20703   5.830   0.439   6.556  0.0044  0.0850  0.1721
 1294loPI   C4B20704   5.830   0.530   7.023  0.0585 -0.1712  0.0251
 1295loPI    C120705   8.314   5.550   4.849 -0.0828 -0.0529 -0.1524
 1295loPI    C220706   8.280   5.949   4.842  0.0844 -0.0384 -0.1715
 1295loPI    C320707   8.470   5.759   4.545 -0.1919 -0.1528 -0.2782
 1295loPI   PO420708   8.332   5.592   5.197 -0.1854 -0.3193 -0.2630
 1295loPI   GL120709   8.414   5.684   5.714 -0.2910 -0.2694  0.2172
 1295loPI   GL220710   8.567   5.909   5.923 -0.0689 -0.0072 -0.0417
 1295loPI   C1A20711   8.383   5.437   5.999  0.2380  0.0726  0.0269
 1295loPI   C2A20712   8.283   5.364   6.477 -0.1362 -0.1305  0.2345
 1295loPI   C3A20713   8.301   5.389   6.843 -0.3446 -0.2302 -0.0930
 1295loPI   C4A20714   8.262   5.419   7.289 -0.0269  0.0283  0.2104
 1295loPI   C5A20715   8.179   5.552   7.691 -0.1188  0.1839 -0.0855
 1295loPI   C6A20716   8.298   5.557   8.107  0.0671 -0.2027 -0.0705
 1295loPI   C1B20717   8.634   5.764   6.395 -0.1566 -0.0605  0.1412
 1295loPI   C2B20718   8.659   5.741   6.876 -0.0627 -0.1069  0.0725
 1295loPI   C3B20719   8.566   5.863   7.303  0.1300 -0.1098 -0.2782
 1295loPI   C4B20720   8.403   6.058   7.639 -0.2228 -0.4970 -0.1912
 1296loPI    C120721   3.455   5.391   5.072 -0.0580  0.2120 -0.0757
 1296loPI    C220722   3.836   5.359   4.955  0.0054 -0.0976  0.2002
 1296loPI    C320723   3.546   5.399   4.682  0.2274  0.0782 -0.0147
 1296loPI   PO420724   3.527   5.401   5.359  0.2496 -0.2212  0.2469
 1296loPI   GL120725   3.861   5.300   5.709  0.0064  0.0532  0.1447
 1296loPI   GL220726   4.010   5.430   5.818  0.2562  0.2458 -0.1964
 1296loPI   C1A20727   3.572   5.211   6.076 -0.0828  0.3568  0.0001
 1296loPI   C2A20728   3.642   5.264   6.566 -0.1863  0.0758  0.0308
 1296loPI   C3A20729   3.587   5.349   7.002  0.0390  0.1762 -0.0976
 1296loPI   C4A20730   3.556   5.406   7.540 -0.0910 -0.3146  0.2155
 1296loPI   C5A20731   3.648   5.641   7.975  0.4222  0.1709  0.0115
 1296loPI   C6A20732   3.710   6.071   8.223  0.0712  0.0046  0.1715
 1296loPI   C1B20733   4.149   5.234   6.227  0.0231 -0.1285 -0.0773
 1296loPI   C2B20734   4.145   5.242   6.608 -0.1127 -0.0962 -0.1360
 1296loPI   C3B20735   4.088   5.333   7.014  0.2092 -0.3124  0.0236
 1296loPI   C4B20736   4.038   5.304   7.440 -0.2127 -0.1009  0.3253
 1297loPI    C120737   6.213  12.306   5.380  0.0012 -0.1163  0.0258
 1297loPI    C220738   6.087  12.681   5.323  0.0196 -0.1515 -0.2586
 1297loPI    C320739   5.893  12.377   5.151 -0.0360 -0.2801  0.0255
 1297loPI   PO420740   6.374  12.246   5.555 -0.2168  0.1045  0.0558
 1297loPI   GL120741   6.492  11.997   5.841 -0.0171  0.2514 -0.0974
 1297loPI   GL220742   6.187  11.860   5.952  0.0789  0.0190 -0.1109
 1297loPI   C1A20743   6.700  11.924   6.345 -0.1127  0.2864 -0.0027
 1297loPI   C2A20744   6.781  11.684   6.688 -0.1813 -0.0378  0.1638
 1297loPI   C3A20745   7.114  11.406   6.937  0.0826  0.1115  0.0545
 1297loPI   C4A20746   7.048  11.263   7.265  0.3149  0.1431 -0.2049
 1297loPI   C5A20747   7.003  10.941   7.602 -0.1726  0.2237 -0.0930
 1297loPI   C6A20748   7.227  10.505   7.638  0.1058  0.0752  0.2586
 1297loPI   C1B20749   6.086  11.875   6.369 -0.2534 -0.2812 -0.0980
 1297loPI   C2B20750   5.887  12.033   6.628 -0.0674 -0.1029  0.2465
 1297loPI   C3B20751   5.883  11.990   7.083  0.0711  0.0077  0.1174
 1297loPI   C4B20752   5.751  12.089   7.495  0.1372  0.0424 -0.3717
 1298loPI    C120753  17.724   5.767   5.067 -0.1335  0.0675 -0.0591
 1298loPI    C220754  17.678   5.390   4.943 -0.1657  0.0103  0.1231
 1298loPI    C320755  17.507   5.690   4.741 -0.0199 -0.0580 -0.1059
 1298loPI   PO420756  17.696   5.703   5.338  0.0275 -0.1408  0.0583
 1298loPI   GL120757  17.417   5.631   5.703  0.0588  0.3065 -0.1081
 1298loPI   GL220758  17.656   5.542   5.930 -0.3116  0.4185 -0.0392
 1298loPI   C1A20759  17.365   5.907   6.132 -0.0308  0.2219 -0.0589
 1298loPI   C2A20760  17.390   5.970   6.555  0.1086 -0.1377  0.1427
 1298loPI   C3A20761  17.434   5.967   6.921 -0.0797 -0.3288 -0.2279
 1298loPI   C4A20762  17.302   6.213   7.148  0.0043  0.0652 -0.0293
 1298loPI   C5A20763  17.364   6.320   7.505  0.0343  0.1020 -0.0191
 1298loPI   C6A20764  17.384   6.369   7.893 -0.0381 -0.1770 -0.1798
 1298loPI   C1B20765  17.743   5.602   6.295 -0.1633  0.3381 -0.3614
 1298loPI   C2B20766  17.720   5.651   6.713 -0.0005 -0.1716 -0.1873
 1298loPI   C3B20767  17.775   5.714   7.243  0.0816 -0.1139  0.1223
 1298loPI   C4B20768  17.909   5.652   7.615 -0.0498 -0.0151  0.3553
 1299loPI    C120769  14.487   6.852   5.341  0.1883  0.0726 -0.0135
 1299loPI    C220770  14.491   6.664   4.988  0.2590  0.0494 -0.0006
 1299loPI    C320771  14.808   6.639   5.231  0.2376  0.1213  0.0351
 1299loPI   PO420772  14.319   6.799   5.542 -0.0591 -0.0029 -0.0989
 1299loPI   GL120773  14.106   6.539   5.751  0.1456  0.1680  0.0470
 1299loPI   GL220774  13.961   6.642   6.080  0.1927  0.0397 -0.1350
 1299loPI   C1A20775  14.474   6.355   6.102  0.0101 -0.1855 -0.0115
 1299loPI   C2A20776  14.553   6.368   6.449  0.1877  0.0109  0.0006
 1299loPI   C3A20777  14.690   6.327   6.811 -0.1134  0.0764 -0.1208
 1299loPI   C4A20778  14.592   6.273   7.175 -0.1645  0.2543 -0.1558
 1299loPI   C5A20779  14.732   6.194   7.618 -0.2048  0.0482  0.0889
 1299loPI   C6A20780  15.103   6.115   7.926 -0.4075 -0.0470  0.0414
 1299loPI   C1B20781  14.211   6.747   6.406 -0.1129  0.3200 -0.0444
 1299loPI   C2B20782  14.259   6.728   6.772 -0.1516  0.1241 -0.2309
 1299loPI   C3B20783  14.306   6.683   7.181  0.3304 -0.0332 -0.0303
 1299loPI   C4B20784  14.426   6.583   7.586  0.0378  0.4833  0.1472
 1300loPI    C120785  14.252   7.960   5.238 -0.0871 -0.1830 -0.0017
 1300loPI    C220786  14.105   7.610   5.112 -0.0748 -0.1412 -0.1338
 1300loPI    C320787  13.975   7.952   4.950 -0.0642 -0.0860 -0.0269
 1300loPI   PO420788  14.321   7.848   5.559  0.2922  0.1210 -0.0896
 1300loPI   GL120789  14.308   7.607   5.863 -0.1518  0.0477 -0.2924
 1300loPI   GL220790  14.566   7.684   6.064 -0.3586 -0.0628 -0.0911
 1300loPI   C1A20791  14.109   7.474   6.279 -0.1046  0.0691  0.0328
 1300loPI   C2A20792  13.913   7.204   6.606  0.0013 -0.0853  0.0022
 1300loPI   C3A20793  13.857   7.030   6.995 -0.1366  0.1492 -0.1022
 1300loPI   C4A20794  13.866   6.987   7.470  0.2132  0.4757 -0.2848
 1300loPI   C5A20795  13.649   7.156   7.896 -0.0379 -0.1555 -0.3115
 1300loPI   C6A20796  13.318   7.047   8.199  0.2083  0.0420 -0.0892
 1300loPI   C1B20797  14.629   7.655   6.468 -0.0371 -0.1478 -0.0323
 1300loPI   C2B20798  14.579   7.725   6.989 -0.0025  0.0604  0.3095
 1300loPI   C3B20799  14.559   7.697   7.352 -0.1959 -0.1776  0.2223
 1300loPI   C4B20800  14.529   7.670   7.721  0.1248  0.0578  0.2170
 1301loPI    C120801   1.627   6.275   5.484 -0.2090 -0.1058  0.0174
 1301loPI    C220802   1.647   6.318   5.087 -0.1399  0.0198  0.0338
 1301loPI    C320803   1.300   6.377   5.277 -0.1346  0.1260  0.0111
 1301loPI   PO420804   1.879   6.077   5.515  0.5520 -0.0594 -0.1911
 1301loPI   GL120805   1.973   5.730   5.663  0.2034 -0.1643  0.0978
 1301loPI   GL220806   1.824   5.406   5.538 -0.0127  0.3224  0.2946
 1301loPI   C1A20807   1.969   5.912   6.136 -0.0815  0.0140  0.2153
 1301loPI   C2A20808   1.975   6.013   6.657  0.0358 -0.0669 -0.0703
 1301loPI   C3A20809   1.911   6.069   7.172 -0.2451  0.0860  0.1110
 1301loPI   C4A20810   1.903   6.088   7.603 -0.0487 -0.1515  0.4731
 1301loPI   C5A20811   1.734   6.192   8.034 -0.1039  0.0852 -0.0997
 1301loPI   C6A20812   1.578   6.284   8.424 -0.1804 -0.0028 -0.1512
 1301loPI   C1B20813   1.734   5.448   6.051 -0.2324 -0.0471  0.0508
 1301loPI   C2B20814   1.724   5.576   6.513 -0.1912 -0.3149  0.0997
 1301loPI   C3B20815   1.774   5.611   6.990  0.0287  0.1540  0.1611
 1301loPI   C4B20816   1.706   5.629   7.438 -0.1515 -0.2817  0.1224
 1302loPI    C120817  17.182  10.992   5.193 -0.0575  0.0964 -0.1425
 1302loPI    C220818  17.030  10.627   5.136 -0.1065  0.1483 -0.3539
 1302loPI    C320819  17.369  10.732   4.952  0.2030  0.0267  0.1296
 1302loPI   PO420820  17.171  11.061   5.404 -0.0853  0.0112 -0.0565
 1302loPI   GL120821  17.210  11.099   5.802 -0.0359  0.1346 -0.0969
 1302loPI   GL220822  17.030  11.012   6.092 -0.0418 -0.0974  0.2036
 1302loPI   C1A20823  17.275  11.428   6.104  0.1877  0.1939 -0.1725
 1302loPI   C2A20824  17.266  11.535   6.565  0.2731  0.1736  0.0488
 1302loPI   C3A20825  17.328  11.450   6.984  0.1465  0.2330  0.2892
 1302loPI   C4A20826  17.293  11.490   7.403 -0.0498 -0.1114  0.0623
 1302loPI   C5A20827  17.165  11.606   7.722 -0.0748 -0.1684  0.0448
 1302loPI   C6A20828  16.863  11.640   8.067  0.1438  0.3204 -0.0020
 1302loPI   C1B20829  17.041  11.049   6.496 -0.0502  0.2016 -0.1230
 1302loPI   C2B20830  17.012  10.979   6.954 -0.1871  0.1019 -0.1777
 1302loPI   C3B20831  17.122  10.986   7.392  0.2590  0.4086 -0.3424
 1302loPI   C4B20832  16.986  11.178   7.845  0.0816  0.1444  0.1509
 1303loPI    C120833   2.749  10.120   4.957  0.2627  0.0356 -0.0815
 1303loPI    C220834   3.032   9.926   5.163  0.2701  0.0911 -0.0392
 1303loPI    C320835   3.101  10.039   4.786  0.1667 -0.2309 -0.1577
 1303loPI   PO420836   2.685  10.268   5.179 -0.2540 -0.2539  0.4243
 1303loPI   GL120837   2.712  10.605   5.455  0.0899  0.1324  0.1333
 1303loPI   GL220838   2.486  10.512   5.681 -0.0810  0.0319 -0.1086
 1303loPI   C1A20839   2.810  10.721   5.954  0.0893  0.1782  0.0369
 1303loPI   C2A20840   2.979  10.994   6.352  0.2299 -0.2495  0.0011
 1303loPI   C3A20841   3.075  11.188   6.702  0.2492  0.0757 -0.0102
 1303loPI   C4A20842   3.045  11.117   7.195 -0.3206  0.0174  0.1004
 1303loPI   C5A20843   3.181  11.041   7.593 -0.1353  0.0243 -0.1089
 1303loPI   C6A20844   3.132  10.950   8.010  0.1015 -0.0324 -0.0543
 1303loPI   C1B20845   2.312  10.559   6.141 -0.2723  0.3204 -0.2882
 1303loPI   C2B20846   2.385  10.518   6.567  0.0504 -0.1833 -0.1687
 1303loPI   C3B20847   2.328  10.574   7.011  0.0224 -0.1877  0.0662
 1303loPI   C4B20848   2.254  10.568   7.394  0.1374  0.0840 -0.0519
 1304loPI    C120849  16.793   9.897   5.520  0.1413  0.1260 -0.0568
 1304loPI    C220850  16.954  10.072   5.198 -0.2915  0.1090 -0.2898
 1304loPI    C320851  16.737  10.288   5.456 -0.0145  0.1057 -0.0485
 1304loPI   PO420852  16.994   9.818   5.595 -0.0655  0.1157 -0.3344
 1304loPI   GL120853  17.131   9.893   5.989 -0.0948  0.0098 -0.0573
 1304loPI   GL220854  16.930  10.137   5.958 -0.3876 -0.1129  0.1665
 1304loPI   C1A20855  17.354   9.789   6.420 -0.1447 -0.0445  0.0572
 1304loPI   C2A20856  17.359   9.786   6.959 -0.0732  0.1591 -0.2241
 1304loPI   C3A20857  17.427   9.686   7.335  0.0496  0.0101  0.1546
 1304loPI   C4A20858  17.428   9.686   7.739 -0.1782  0.0635  0.0767
 1304loPI   C5A20859  17.279   9.699   8.179 -0.1496 -0.0632  0.1878
 1304loPI   C6A20860  16.855   9.583   8.187 -0.1867 -0.2242  0.1185
 1304loPI   C1B20861  17.059  10.166   6.485  0.0749  0.0678 -0.1637
 1304loPI   C2B20862  17.116  10.200   6.948 -0.0980 -0.0300  0.1240
 1304loPI   C3B20863  17.045  10.084   7.370 -0.0731 -0.0485  0.1212
 1304loPI   C4B20864  17.120  10.101   7.825  0.1587 -0.2194 -0.0839
 1305loPI    C120865  13.175  13.065   5.462 -0.1292 -0.1542 -0.0022
 1305loPI    C220866  13.445  13.251   5.233 -0.0879 -0.0018  0.1679
 1305loPI    C320867  13.068  13.212   5.105 -0.0344 -0.0345  0.0180
 1305loPI   PO420868  13.099  13.199   5.669  0.0876 -0.2150  0.1699
 1305loPI   GL120869  12.966  13.295   6.060  0.1888 -0.1472  0.1981
 1305loPI   GL220870  13.236  13.594   5.975 -0.1777  0.1052  0.1321
 1305loPI   C1A20871  12.914  13.253   6.491  0.0932 -0.2282 -0.1309
 1305loPI   C2A20872  13.142  13.515   6.878  0.1055 -0.1307 -0.3701
 1305loPI   C3A20873  13.514  13.469   7.122  0.2276  0.1513 -0.0574
 1305loPI   C4A20874  13.888  13.544   7.176  0.3489  0.0926  0.1250
 1305loPI   C5A20875  14.123  13.942   7.251  0.0183 -0.1133  0.0925
 1305loPI   C6A20876  14.492  14.041   7.353 -0.0941 -0.1035  0.0290
 1305loPI   C1B20877  13.170  13.747   6.427  0.1681 -0.5367 -0.2444
 1305loPI   C2B20878  13.493  13.881   6.745 -0.2045  0.1827 -0.1110
 1305loPI   C3B20879  13.904  13.849   6.708  0.0631 -0.1328  0.0094
 1305loPI   C4B20880  14.107  13.573   6.446 -0.1406 -0.5111 -0.1408
 1306loPI    C120881  16.745   0.478   5.194 -0.0013 -0.2840  0.1410
 1306loPI    C220882  16.923   0.619   4.865 -0.0747  0.0683  0.2471
 1306loPI    C320883  16.938   0.228   4.949 -0.0886 -0.0326 -0.1918
 1306loPI   PO420884  16.751   0.672   5.401  0.2333  0.2919  0.0580
 1306loPI   GL120885  16.520   0.691   5.708 -0.4157  0.1448  0.0064
 1306loPI   GL220886  16.531   0.379   5.774 -0.3671  0.1349 -0.0560
 1306loPI   C1A20887  16.392   0.883   6.156 -0.0220  0.1337  0.0587
 1306loPI   C2A20888  16.342   0.802   6.578 -0.0174 -0.1257 -0.0515
 1306loPI   C3A20889  16.349   0.796   6.935  0.0396 -0.0137 -0.1153
 1306loPI   C4A20890  16.328   0.846   7.364 -0.0808  0.2443 -0.0541
 1306loPI   C5A20891  16.156   0.924   7.800 -0.0339 -0.3915 -0.2692
 1306loPI   C6A20892  16.126   1.122   8.228  0.1554  0.0188 -0.1024
 1306loPI   C1B20893  16.665   0.414   6.162  0.1798  0.0389 -0.0188
 1306loPI   C2B20894  16.614   0.372   6.532  0.1133 -0.2518 -0.1566
 1306loPI   C3B20895  16.664   0.401   6.894 -0.1328  0.0610 -0.1178
 1306loPI   C4B20896  16.691   0.416   7.395  0.3463 -0.0128  0.0287
 1307loPI    C120897  18.074  14.114   4.945  0.0396 -0.0396  0.0197
 1307loPI    C220898  17.732  14.286   4.829 -0.0517 -0.1336  0.1472
 1307loPI    C320899  18.005  14.179   4.556 -0.0934  0.0041  0.0504
 1307loPI   PO420900  18.108  14.129   5.280 -0.2240 -0.0533 -0.2207
 1307loPI   GL120901  17.875  14.048   5.642 -0.0204 -0.1606 -0.4104
 1307loPI   GL220902  17.822  13.712   5.674  0.0059 -0.0373  0.2882
 1307loPI   C1A20903  18.074  14.163   6.062  0.0686 -0.1524  0.1646
 1307loPI   C2A20904  18.152  14.263   6.487  0.0891  0.1919 -0.3457
 1307loPI   C3A20905  17.974  14.363   6.890  0.1436 -0.1144  0.0302
 1307loPI   C4A20906  18.039  14.372   7.293  0.1189 -0.1646  0.0035
 1307loPI   C5A20907  18.134  14.283   7.629 -0.0468 -0.1922 -0.3001
 1307loPI   C6A20908  17.992  14.521   8.001  0.0325  0.1520  0.1363
 1307loPI   C1B20909  17.802  13.765   6.077  0.3137  0.0203 -0.2169
 1307loPI   C2B20910  17.823  13.769   6.491  0.0082  0.0069 -0.1689
 1307loPI   C3B20911  17.835  13.830   6.973  0.3199 -0.1404 -0.1501
 1307loPI   C4B20912  17.896  13.908   7.445  0.2488  0.1548  0.1018
 1308loPI    C120913  13.987  17.864   4.909  0.0589  0.1320 -0.1786
 1308loPI    C220914  13.700  17.987   4.659 -0.0330 -0.0365 -0.1572
 1308loPI    C320915  14.072  17.927   4.523  0.0041  0.2252 -0.1757
 1308loPI   PO420916  13.906  18.015   5.158  0.2210  0.1623 -0.0148
 1308loPI   GL120917  13.970  18.071   5.649  0.0563 -0.0167  0.1555
 1308loPI   GL220918  13.821  18.381   5.802 -0.0892  0.2570 -0.1156
 1308loPI   C1A20919  13.904  17.909   6.009 -0.0021  0.2690 -0.0105
 1308loPI   C2A20920  13.830  17.937   6.426 -0.0257  0.0228  0.1290
 1308loPI   C3A20921  13.919  17.881   6.869 -0.0956 -0.2888 -0.0628
 1308loPI   C4A20922  13.871  17.934   7.258  0.1176  0.2073 -0.1320
 1308loPI   C5A20923  13.867  18.010   7.731 -0.1129 -0.2375 -0.0091
 1308loPI   C6A20924  13.927  17.942   8.117  0.0527  0.2497 -0.2973
 1308loPI   C1B20925  14.084  18.365   6.164  0.0941  0.1341  0.1233
 1308loPI   C2B20926  14.031  18.374   6.621 -0.0134  0.0808  0.0835
 1308loPI   C3B20927  14.076  18.316   7.020 -0.2071 -0.0166 -0.3723
 1308loPI   C4B20928  13.970  18.505   7.411  0.0333  0.1425 -0.0124
 1309loPI    C120929   1.355   4.128   5.135  0.1424  0.2677 -0.0939
 1309loPI    C220930   1.475   4.182   4.757  0.0980 -0.3264 -0.2018
 1309loPI    C320931   1.094   4.086   4.834  0.0620 -0.0230  0.0130
 1309loPI   PO420932   1.499   4.020   5.281  0.1033  0.2730  0.1333
 1309loPI   GL120933   1.651   4.172   5.685 -0.1011 -0.0852 -0.2094
 1309loPI   GL220934   1.362   4.096   5.762 -0.1988  0.0575 -0.1022
 1309loPI   C1A20935   1.393   4.578   5.950 -0.3015  0.1248  0.1447
 1309loPI   C2A20936   1.320   4.596   6.443  0.0523 -0.0895  0.0233
 1309loPI   C3A20937   1.256   4.510   6.812 -0.2593 -0.2516 -0.0263
 1309loPI   C4A20938   1.377   4.620   7.216 -0.3444 -0.0048 -0.0970
 1309loPI   C5A20939   1.493   4.676   7.576 -0.1838  0.1671 -0.0394
 1309loPI   C6A20940   1.513   4.851   8.035 -0.0512 -0.0337  0.1908
 1309loPI   C1B20941   1.600   4.084   6.142  0.0677  0.0439  0.0282
 1309loPI   C2B20942   1.649   4.159   6.650  0.2727 -0.1451  0.0866
 1309loPI   C3B20943   1.597   4.160   7.024  0.2404  0.1286  0.0853
 1309loPI   C4B20944   1.718   4.179   7.489  0.0780  0.1573 -0.0756
 1310loPI    C120945   7.888   1.295   5.109  0.1146  0.0423 -0.1732
 1310loPI    C220946   7.614   1.540   5.267  0.1809 -0.0128  0.0304
 1310loPI    C320947   7.563   1.394   4.898 -0.0318  0.0276  0.0424
 1310loPI   PO420948   7.939   1.105   5.219  0.2099 -0.1350  0.2083
 1310loPI   GL120949   8.026   1.082   5.675  0.0711 -0.0214  0.1579
 1310loPI   GL220950   7.883   1.400   5.634 -0.1736 -0.1758 -0.0043
 1310loPI   C1A20951   8.129   0.985   6.060  0.3568  0.0296  0.1036
 1310loPI   C2A20952   8.148   1.086   6.409  0.0855 -0.1859  0.0868
 1310loPI   C3A20953   8.050   1.174   6.806 -0.0317  0.3161 -0.0075
 1310loPI   C4A20954   8.008   1.237   7.170  0.2811 -0.1691  0.3377
 1310loPI   C5A20955   8.168   1.235   7.560  0.0493  0.0817 -0.5313
 1310loPI   C6A20956   8.293   1.278   8.043 -0.1386  0.1743  0.0754
 1310loPI   C1B20957   7.912   1.410   6.140 -0.0249  0.1823  0.3262
 1310loPI   C2B20958   7.789   1.587   6.557  0.1031 -0.1417 -0.4275
 1310loPI   C3B20959   7.860   1.671   6.979  0.1558 -0.1086  0.0869
 1310loPI   C4B20960   7.882   1.714   7.389 -0.1775  0.0264  0.2178
 1311loPI    C120961  10.995   0.563   4.971  0.3421 -0.1331  0.0069
 1311loPI    C220962  11.295   0.642   4.718  0.1527 -0.0483 -0.1946
 1311loPI    C320963  10.918   0.627   4.584  0.0610 -0.1138  0.0636
 1311loPI   PO420964  11.173   0.830   5.204 -0.0405 -0.2649  0.0711
 1311loPI   GL120965  11.236   0.979   5.671 -0.1074  0.0296  0.1075
 1311loPI   GL220966  11.103   0.759   5.704 -0.0501  0.1352 -0.0288
 1311loPI   C1A20967  11.382   1.264   5.928 -0.1511 -0.0580 -0.2037
 1311loPI   C2A20968  11.303   1.213   6.305 -0.0786 -0.2182 -0.1759
 1311loPI   C3A20969  11.291   1.302   6.796  0.1391 -0.2010  0.3724
 1311loPI   C4A20970  10.961   1.377   7.168 -0.2098 -0.1177 -0.0522
 1311loPI   C5A20971  10.827   1.269   7.592  0.1501  0.0595 -0.1452
 1311loPI   C6A20972  10.563   1.384   7.923 -0.0348 -0.3883  0.0652
 1311loPI   C1B20973  11.031   0.792   6.092  0.0800 -0.1929  0.0555
 1311loPI   C2B20974  11.070   0.792   6.533  0.2085  0.0300 -0.3364
 1311loPI   C3B20975  10.994   0.869   6.935  0.3692  0.0289 -0.1554
 1311loPI   C4B20976  11.022   0.922   7.344  0.1483  0.1220 -0.0015
 1312loPI    C120977  16.145  16.653   5.158 -0.2092  0.0303 -0.0951
 1312loPI    C220978  15.778  16.496   5.129 -0.2203  0.0209  0.0866
 1312loPI    C320979  16.082  16.270   5.257 -0.1783  0.0665  0.0672
 1312loPI   PO420980  16.160  16.829   5.320  0.1099 -0.0950 -0.1723
 1312loPI   GL120981  16.201  16.823   5.741  0.1016 -0.0636  0.1590
 1312loPI   GL220982  16.517  16.821   5.753  0.1340 -0.0289  0.1062
 1312loPI   C1A20983  15.865  16.798   6.093 -0.3282  0.1370  0.0872
 1312loPI   C2A20984  15.759  16.785   6.574 -0.1765  0.0783 -0.0945
 1312loPI   C3A20985  15.751  16.838   6.973 -0.0855 -0.3691  0.2637
 1312loPI   C4A20986  15.827  16.751   7.346  0.0171 -0.0692 -0.0177
 1312loPI   C5A20987  15.899  16.937   7.758  0.0598  0.0710 -0.1270
 1312loPI   C6A20988  16.164  17.051   8.101  0.1005  0.0504 -0.0798
 1312loPI   C1B20989  16.382  16.794   6.177  0.0829 -0.1685 -0.1031
 1312loPI   C2B20990  16.319  16.805   6.668  0.2515 -0.0481 -0.1884
 1312loPI   C3B20991  16.285  16.882   7.029  0.0798 -0.0641  0.0126
 1312loPI   C4B20992  16.316  16.806   7.519  0.0547  0.1243  0.1357
 1313loPI    C120993  -0.059   3.024   5.565 -0.0119 -0.0367 -0.0563
 1313loPI    C220994   0.043   3.358   5.760 -0.0764 -0.0659  0.0278
 1313loPI    C320995   0.187   3.288   5.393 -0.1998  0.1374 -0.0608
 1313loPI   PO420996  -0.315   2.990   5.690 -0.1495 -0.0861  0.2825
 1313loPI   GL120997  -0.316   2.911   6.062 -0.0309 -0.3543  0.3640
 1313loPI   GL220998  -0.595   3.014   6.225  0.2575  0.2130 -0.2772
 1313loPI   C1A20999  -0.137   2.841   6.403 -0.0812 -0.0901 -0.3036
 1313loPI   C2A21000   0.154   2.744   6.711  0.0675 -0.1824  0.0270
 1313loPI   C3A21001   0.394   2.472   6.927  0.1827  0.0010  0.2305
 1313loPI   C4A21002   0.499   1.976   6.981  0.2050  0.0875 -0.0927
 1313loPI   C5A21003   0.597   1.683   7.242 -0.0358 -0.1970 -0.1436
 1313loPI   C6A21004   0.941   1.465   7.327 -0.0326  0.1592  0.0107
 1313loPI   C1B21005  -0.455   3.195   6.601  0.1851 -0.0731 -0.0216
 1313loPI   C2B21006  -0.274   3.341   7.012 -0.0695  0.3611  0.1113
 1313loPI   C3B21007  -0.040   3.276   7.411  0.0785 -0.0518  0.0451
 1313loPI   C4B21008  -0.164   3.092   7.734 -0.0591  0.2973  0.1601
 1314loPI    C121009  14.461   0.250   5.074  0.2166 -0.1234  0.0741
 1314loPI    C221010  14.551   0.596   4.895 -0.0743 -0.0940 -0.0202
 1314loPI    C321011  14.463   0.274   4.675 -0.0085 -0.1732  0.0685
 1314loPI   PO421012  14.537   0.230   5.256  0.1093 -0.0318  0.1429
 1314loPI   GL121013  14.323   0.107   5.665 -0.0497  0.1357  0.3582
 1314loPI   GL221014  14.545   0.138   5.782 -0.1128  0.3013 -0.2271
 1314loPI   C1A21015  14.411  -0.311   5.946  0.2345 -0.3595  0.0314
 1314loPI   C2A21016  14.426  -0.408   6.349 -0.0402 -0.3061  0.2621
 1314loPI   C3A21017  14.360  -0.373   6.744  0.3085  0.1798  0.1345
 1314loPI   C4A21018  14.381  -0.407   7.096  0.0905 -0.0450  0.0138
 1314loPI   C5A21019  14.338  -0.338   7.541 -0.0103 -0.3075  0.3022
 1314loPI   C6A21020  14.461  -0.223   7.970 -0.2857 -0.1824 -0.2618
 1314loPI   C1B21021  14.620   0.064   6.225  0.0888 -0.1919  0.0266
 1314loPI   C2B21022  14.544   0.083   6.624 -0.0062 -0.2341 -0.1502
 1314loPI   C3B21023  14.593   0.073   7.106 -0.0850  0.1917 -0.0627
 1314loPI   C4B21024  14.539   0.084   7.471 -0.0699  0.0304 -0.0414
 1315loPI    C121025  10.238   1.319   5.230 -0.0366 -0.0414 -0.1076
 1315loPI    C221026  10.466   1.483   4.944 -0.0361  0.0989 -0.0279
 1315loPI    C321027  10.174   1.697   5.114  0.3106  0.2025  0.4573
 1315loPI   PO421028  10.366   1.297   5.406 -0.0670 -0.0280  0.1504
 1315loPI   GL121029  10.473   1.016   5.694  0.1463 -0.1388  0.3054
 1315loPI   GL221030  10.679   1.023   5.880 -0.0656 -0.3124 -0.1656
 1315loPI   C1A21031  10.172   0.813   6.016 -0.2122  0.0823  0.0432
 1315loPI   C2A21032   9.978   0.791   6.400  0.2039 -0.2131 -0.1392
 1315loPI   C3A21033   9.966   0.689   6.815 -0.0481  0.2495 -0.2374
 1315loPI   C4A21034  10.111   0.831   7.085  0.2486  0.1133  0.0586
 1315loPI   C5A21035  10.268   0.813   7.427 -0.1250  0.2659 -0.0416
 1315loPI   C6A21036  10.592   0.833   7.698 -0.1380 -0.2443 -0.1185
 1315loPI   C1B21037  10.546   0.830   6.303 -0.0304  0.0451 -0.0866
 1315loPI   C2B21038  10.479   0.790   6.717 -0.2597  0.0187 -0.4025
 1315loPI   C3B21039  10.671   0.545   7.262  0.1324  0.1125  0.1489
 1315loPI   C4B21040  10.778   0.176   7.404  0.1526  0.1747  0.0507
 1316loPI    C121041  13.644  12.749   5.071 -0.1302  0.3107  0.1570
 1316loPI    C221042  13.366  12.894   4.821 -0.0199  0.1076 -0.0887
 1316loPI    C321043  13.466  12.507   4.806  0.1342  0.1362  0.1355
 1316loPI   PO421044  13.611  12.737   5.344  0.0660 -0.3417 -0.0346
 1316loPI   GL121045  13.819  13.049   5.613  0.1239 -0.1574 -0.0242
 1316loPI   GL221046  13.593  13.201   5.740  0.1874  0.2892 -0.1514
 1316loPI   C1A21047  14.065  12.919   5.949 -0.0632  0.2545  0.0294
 1316loPI   C2A21048  14.015  12.980   6.384 -0.1780  0.2292 -0.3184
 1316loPI   C3A21049  13.969  13.146   6.736 -0.2018  0.0720  0.0551
 1316loPI   C4A21050  14.178  13.085   7.142  0.0634 -0.1999 -0.1793
 1316loPI   C5A21051  14.188  12.986   7.584  0.3532  0.1613  0.2287
 1316loPI   C6A21052  14.551  12.816   7.820  0.1065 -0.1987  0.0151
 1316loPI   C1B21053  13.594  13.162   6.129 -0.1841 -0.1824 -0.0110
 1316loPI   C2B21054  13.495  12.744   6.352 -0.1625 -0.0169 -0.2875
 1316loPI   C3B21055  13.501  12.616   6.792  0.1042 -0.1064  0.1837
 1316loPI   C4B21056  13.250  12.450   7.085  0.2211 -0.1109  0.0934
 1317loPI    C121057   5.094   0.085   4.611  0.0582  0.0288 -0.0649
 1317loPI    C221058   4.841  -0.083   4.351  0.0124  0.0558 -0.0380
 1317loPI    C321059   4.975   0.289   4.289 -0.1930  0.1552  0.1045
 1317loPI   PO421060   5.021   0.078   4.815 -0.1165 -0.3413 -0.1185
 1317loPI   GL121061   5.048   0.326   5.144  0.0732 -0.1948  0.0099
 1317loPI   GL221062   5.283   0.596   5.302  0.0991 -0.1591  0.2025
 1317loPI   C1A21063   4.860   0.382   5.537  0.0562 -0.3064 -0.2299
 1317loPI   C2A21064   4.729   0.329   5.939 -0.2187 -0.3483  0.0111
 1317loPI   C3A21065   4.835   0.427   6.391 -0.1220  0.0511  0.1035
 1317loPI   C4A21066   4.771   0.462   6.747 -0.0307  0.2886 -0.2362
 1317loPI   C5A21067   4.820   0.419   7.159 -0.0753 -0.0781  0.1452
 1317loPI   C6A21068   4.898   0.523   7.653  0.0632 -0.1787  0.2026
 1317loPI   C1B21069   5.368   0.339   5.632  0.1843  0.0034  0.3923
 1317loPI   C2B21070   5.313   0.435   6.052  0.0482 -0.0200  0.1415
 1317loPI   C3B21071   5.332   0.534   6.401 -0.0218  0.2356 -0.4156
 1317loPI   C4B21072   5.319   0.483   6.817 -0.1150  0.1869 -0.1579
 1318loPI    C121073  16.274   7.065   5.613  0.1422  0.1470 -0.2300
 1318loPI    C221074  16.241   7.463   5.639  0.3185  0.1425  0.1298
 1318loPI    C321075  16.600   7.296   5.581  0.2572  0.0307  0.0678
 1318loPI   PO421076  16.137   6.972   5.850 -0.0757  0.2237  0.1362
 1318loPI   GL121077  15.925   6.899   6.094  0.0967  0.2135 -0.0703
 1318loPI   GL221078  15.790   7.092   6.146  0.0338  0.0591  0.1220
 1318loPI   C1A21079  16.090   6.611   6.387 -0.0804  0.1044  0.1757
 1318loPI   C2A21080  16.158   6.708   6.767  0.1284 -0.3422 -0.0619
 1318loPI   C3A21081  16.201   6.640   7.280 -0.4139  0.1717  0.1927
 1318loPI   C4A21082  16.319   6.488   7.665 -0.1844  0.2042  0.0696
 1318loPI   C5A21083  16.400   6.685   8.074  0.2445 -0.0922  0.1578
 1318loPI   C6A21084  16.810   6.949   8.200  0.1649  0.0193  0.0132
 1318loPI   C1B21085  15.741   7.116   6.576  0.0929 -0.1756  0.2969
 1318loPI   C2B21086  15.696   7.060   7.022 -0.0424  0.2241  0.2548
 1318loPI   C3B21087  15.896   7.008   7.377 -0.3755 -0.0760  0.0261
 1318loPI   C4B21088  16.169   6.968   7.731  0.0345  0.1203  0.2056
 1319loPI    C121089  14.346   2.938   4.905  0.0713  0.1866  0.0425
 1319loPI    C221090  14.608   2.649   4.819  0.0324  0.1186  0.1495
 1319loPI    C321091  14.674   3.023   4.693  0.0199  0.0394 -0.0979
 1319loPI   PO421092  14.305   2.933   5.155 -0.4194  0.1086  0.3526
 1319loPI   GL121093  14.255   2.806   5.589 -0.2134 -0.1973  0.3449
 1319loPI   GL221094  14.459   3.120   5.587 -0.1003 -0.2688 -0.1343
 1319loPI   C1A21095  14.311   2.702   6.028  0.1184 -0.2064 -0.1039
 1319loPI   C2A21096  14.156   2.651   6.441  0.0331 -0.0032  0.1276
 1319loPI   C3A21097  14.283   2.679   6.839 -0.2350  0.2200 -0.1831
 1319loPI   C4A21098  14.371   2.656   7.299  0.0250 -0.1872  0.1679
 1319loPI   C5A21099  14.402   2.969   7.676  0.0042  0.0303 -0.0709
 1319loPI   C6A21100  14.603   2.912   8.069 -0.1675 -0.0168  0.0424
 1319loPI   C1B21101  14.479   3.157   6.029  0.0577 -0.1878  0.0489
 1319loPI   C2B21102  14.445   3.158   6.330  0.0877  0.2635 -0.2449
 1319loPI   C3B21103  14.411   3.132   6.699 -0.1252  0.0508  0.0162
 1319loPI   C4B21104  14.513   3.142   7.128  0.1754  0.0276  0.0656
 1320loPI    C121105   1.793   2.403   4.850  0.2440 -0.1909  0.1401
 1320loPI    C221106   1.718   2.779   4.734  0.1855 -0.1753  0.2279
 1320loPI    C321107   1.463   2.486   4.640  0.1313 -0.1605  0.3281
 1320loPI   PO421108   1.971   2.504   5.104  0.2751  0.0405  0.0306
 1320loPI   GL121109   1.955   2.553   5.575  0.1729 -0.1579 -0.0848
 1320loPI   GL221110   2.282   2.451   5.899  0.0547  0.0781  0.2076
 1320loPI   C1A21111   1.960   2.815   5.927  0.0017 -0.2073  0.0029
 1320loPI   C2A21112   1.997   2.789   6.390 -0.0367  0.4984  0.0287
 1320loPI   C3A21113   2.044   2.857   6.851  0.1254  0.2665 -0.1711
 1320loPI   C4A21114   2.051   2.890   7.246 -0.1165 -0.0699 -0.2502
 1320loPI   C5A21115   2.238   2.911   7.622  0.1388  0.0559 -0.0071
 1320loPI   C6A21116   2.546   3.174   7.848  0.1195  0.1360  0.1124
 1320loPI   C1B21117   2.333   2.408   6.274  0.1666 -0.0513  0.1582
 1320loPI   C2B21118   2.345   2.470   6.752  0.2453  0.1219  0.0544
 1320loPI   C3B21119   2.335   2.521   7.122 -0.1469 -0.2777  0.0305
 1320loPI   C4B21120   2.381   2.475   7.522  0.1615  0.2008  0.0464
 1321loPI    C121121   7.668   8.230   5.069 -0.0075  0.0546 -0.0565
 1321loPI    C221122   7.444   8.545   4.966 -0.1917  0.0030  0.1777
 1321loPI    C321123   7.615   8.320   4.683 -0.0331  0.3294  0.0086
 1321loPI   PO421124   7.799   8.337   5.294 -0.1350  0.0280  0.1178
 1321loPI   GL121125   8.080   8.211   5.519  0.1482  0.0513 -0.1615
 1321loPI   GL221126   8.128   7.914   5.651  0.0849  0.1316 -0.0287
 1321loPI   C1A21127   8.172   8.253   5.963 -0.1108  0.1220  0.1259
 1321loPI   C2A21128   8.239   7.945   6.336  0.2506 -0.2891 -0.0963
 1321loPI   C3A21129   8.255   7.798   6.754 -0.1256 -0.1528 -0.0298
 1321loPI   C4A21130   8.208   7.864   7.222 -0.0585 -0.2599  0.0567
 1321loPI   C5A21131   7.923   7.951   7.550 -0.2702 -0.0158 -0.2074
 1321loPI   C6A21132   7.677   8.088   7.942  0.1246 -0.1103  0.0990
 1321loPI   C1B21133   8.117   7.608   6.021 -0.1817  0.0734 -0.1562
 1321loPI   C2B21134   8.263   7.426   6.318 -0.1734 -0.4219 -0.0751
 1321loPI   C3B21135   8.338   7.235   6.736  0.0343  0.4107 -0.1317
 1321loPI   C4B21136   8.349   7.186   7.135 -0.1195  0.2841  0.4428
 1322loPI    C121137  10.597   8.269   5.027 -0.0261  0.0686 -0.0163
 1322loPI    C221138  10.969   8.317   4.888  0.0161 -0.0398  0.0577
 1322loPI    C321139  10.662   8.496   4.704  0.0919 -0.0369 -0.0677
 1322loPI   PO421140  10.612   8.303   5.242  0.1004  0.0863  0.1156
 1322loPI   GL121141  10.634   8.392   5.586  0.0929 -0.1103 -0.1455
 1322loPI   GL221142  10.875   8.266   5.825  0.1870 -0.4718 -0.0124
 1322loPI   C1A21143  10.390   8.376   5.925  0.0157 -0.1912  0.1048
 1322loPI   C2A21144  10.402   8.397   6.336  0.1555  0.1767  0.0759
 1322loPI   C3A21145  10.326   8.468   6.783 -0.0517 -0.3176  0.0257
 1322loPI   C4A21146  10.272   8.445   7.226  0.0485 -0.0603 -0.1258
 1322loPI   C5A21147  10.224   8.496   7.705  0.1299 -0.1096  0.2198
 1322loPI   C6A21148   9.926   8.410   8.060 -0.2295  0.1343  0.0965
 1322loPI   C1B21149  10.838   8.186   6.172  0.0382  0.0799  0.0846
 1322loPI   C2B21150  10.765   8.274   6.659 -0.0777  0.0863 -0.0201
 1322loPI   C3B21151  10.801   8.394   7.086 -0.0837 -0.2449  0.0393
 1322loPI   C4B21152  10.753   8.529   7.482  0.2159  0.3057 -0.0632
 1323loPI    C121153   9.801   2.033   5.155 -0.0775  0.0939  0.0007
 1323loPI    C221154  10.068   2.118   4.870  0.0475 -0.1341  0.0476
 1323loPI    C321155   9.749   1.893   4.784  0.1218 -0.2614  0.1024
 1323loPI   PO421156   9.875   2.201   5.313  0.1205 -0.0070 -0.2382
 1323loPI   GL121157   9.935   2.199   5.733  0.1186  0.3286 -0.1054
 1323loPI   GL221158   9.745   2.448   5.803  0.2056 -0.0969 -0.0242
 1323loPI   C1A21159  10.041   2.216   6.143  0.4369 -0.2187 -0.0812
 1323loPI   C2A21160  10.187   2.338   6.508  0.1133 -0.0014 -0.3266
 1323loPI   C3A21161  10.355   2.566   6.833 -0.0507  0.2860  0.4316
 1323loPI   C4A21162  10.314   2.784   7.203 -0.2663 -0.2548  0.2655
 1323loPI   C5A21163  10.420   2.863   7.575 -0.0802 -0.0676 -0.0686
 1323loPI   C6A21164  10.088   2.894   7.953  0.2108 -0.0420  0.0545
 1323loPI   C1B21165   9.982   2.698   6.135  0.0176  0.1662  0.0672
 1323loPI   C2B21166   9.897   2.795   6.618  0.1723 -0.0642  0.0328
 1323loPI   C3B21167   9.814   2.717   7.014 -0.1397  0.2711 -0.3628
 1323loPI   C4B21168   9.612   2.444   7.318 -0.0514 -0.0803  0.0908
 1324loPI    C121169   7.603  11.023   5.412 -0.0355  0.1043  0.1240
 1324loPI    C221170   7.709  10.973   5.029  0.1425 -0.0529  0.1916
 1324loPI    C321171   7.917  11.221   5.263  0.0554  0.0160  0.1968
 1324loPI   PO421172   7.564  10.847   5.474 -0.0643  0.0268 -0.1111
 1324loPI   GL121173   7.783  10.766   5.869 -0.4324  0.2991 -0.0088
 1324loPI   GL221174   8.136  10.686   5.993  0.1853  0.2167 -0.0139
 1324loPI   C1A21175   7.666  10.515   6.271 -0.0654  0.0580  0.3994
 1324loPI   C2A21176   7.718  10.249   6.561  0.0457 -0.1367 -0.1878
 1324loPI   C3A21177   7.447  10.069   6.843 -0.1232 -0.0502  0.0747
 1324loPI   C4A21178   7.295  10.300   7.175 -0.0066 -0.0342  0.2253
 1324loPI   C5A21179   6.945  10.627   7.195  0.2016  0.0071  0.2208
 1324loPI   C6A21180   6.938  10.859   6.936 -0.0086  0.0437 -0.2056
 1324loPI   C1B21181   8.125  10.703   6.416  0.0690  0.1654 -0.2174
 1324loPI   C2B21182   8.180  10.730   6.864 -0.0379  0.0586 -0.2621
 1324loPI   C3B21183   8.262  10.644   7.301 -0.1536  0.1694  0.1599
 1324loPI   C4B21184   7.938  10.704   7.643 -0.0403  0.1340 -0.1175
 1325loPI    C121185  11.352  10.926   5.303  0.0861 -0.2222 -0.1450
 1325loPI    C221186  11.165  11.265   5.201  0.2841 -0.0096  0.1774
 1325loPI    C321187  11.351  11.047   4.922  0.0396  0.0722 -0.0542
 1325loPI   PO421188  11.222  10.815   5.456  0.1129  0.1695 -0.0766
 1325loPI   GL121189  11.256  10.824   5.907  0.2821  0.1680  0.1588
 1325loPI   GL221190  11.655  10.831   5.905  0.0698  0.1157  0.1526
 1325loPI   C1A21191  11.247  11.076   6.191  0.3494  0.0721  0.1116
 1325loPI   C2A21192  11.420  11.212   6.640  0.0778 -0.1096  0.1406
 1325loPI   C3A21193  11.203  11.040   7.050 -0.0950  0.0314 -0.2094
 1325loPI   C4A21194  11.028  10.673   7.292 -0.5384 -0.1954  0.1188
 1325loPI   C5A21195  10.649  10.564   7.267  0.1574  0.0880  0.2262
 1325loPI   C6A21196  10.329  10.425   7.480 -0.1771 -0.0914  0.0301
 1325loPI   C1B21197  11.690  10.846   6.306 -0.0366 -0.1756 -0.3990
 1325loPI   C2B21198  11.742  10.886   6.728  0.0642  0.4547 -0.1215
 1325loPI   C3B21199  11.634  10.891   7.173 -0.3309  0.0242 -0.1206
 1325loPI   C4B21200  11.834  10.810   7.565 -0.3432 -0.2105 -0.0017
 1326loPI    C121201   0.028   6.441   5.345  0.0381 -0.1580  0.0557
 1326loPI    C221202   0.322   6.617   5.140 -0.0023 -0.1907 -0.0306
 1326loPI    C321203   0.031   6.424   4.946 -0.2748  0.1436  0.0359
 1326loPI   PO421204   0.174   6.315   5.565 -0.6377  0.0545  0.3189
 1326loPI   GL121205   0.294   6.163   5.948 -0.3100 -0.1580  0.0940
 1326loPI   GL221206   0.595   6.279   5.915  0.2267 -0.2015  0.3422
 1326loPI   C1A21207   0.059   6.119   6.257 -0.1518  0.0046 -0.0281
 1326loPI   C2A21208   0.045   6.154   6.671  0.1712 -0.0428  0.0323
 1326loPI   C3A21209   0.125   6.137   7.065 -0.0177 -0.0365  0.0789
 1326loPI   C4A21210   0.059   6.232   7.450 -0.2312  0.2808 -0.2674
 1326loPI   C5A21211  -0.003   6.371   7.826 -0.1098  0.0935 -0.0521
 1326loPI   C6A21212   0.112   6.492   8.232  0.0492 -0.0495 -0.2341
 1326loPI   C1B21213   0.547   6.269   6.352  0.3964 -0.0822  0.0312
 1326loPI   C2B21214   0.540   6.395   6.770  0.1155 -0.0310 -0.1017
 1326loPI   C3B21215   0.562   6.277   7.292 -0.2900  0.3488  0.0573
 1326loPI   C4B21216   0.531   6.331   7.658 -0.0813 -0.0373 -0.1597
 1327loPI    C121217   5.634  12.524   5.569 -0.0099 -0.0376 -0.0717
 1327loPI    C221218   5.421  12.840   5.694  0.1277 -0.0421  0.1809
 1327loPI    C321219   5.562  12.828   5.319 -0.2277  0.0066  0.0422
 1327loPI   PO421220   5.716  12.295   5.766  0.2007  0.1135 -0.0112
 1327loPI   GL121221   5.744  12.390   6.279  0.0188  0.3251 -0.0177
 1327loPI   GL221222   5.517  12.688   6.135 -0.2529  0.0857  0.0431
 1327loPI   C1A21223   5.509  12.332   6.700  0.0634 -0.1585 -0.2403
 1327loPI   C2A21224   5.430  12.255   7.169 -0.2243  0.1255  0.4056
 1327loPI   C3A21225   5.268  11.890   7.376  0.1418 -0.0521 -0.1857
 1327loPI   C4A21226   5.235  11.533   7.517 -0.1723  0.2593  0.2017
 1327loPI   C5A21227   5.441  11.267   7.890 -0.2173  0.0044 -0.1344
 1327loPI   C6A21228   5.744  11.298   8.141  0.1851 -0.0961  0.1739
 1327loPI   C1B21229   5.569  12.876   6.600  0.0031 -0.0614  0.0058
 1327loPI   C2B21230   5.622  12.749   7.047  0.2335  0.3907  0.1156
 1327loPI   C3B21231   5.698  12.582   7.481 -0.5591  0.2652  0.0640
 1327loPI   C4B21232   5.848  12.471   7.927  0.0490  0.0807  0.0781
 1328loPI    C121233  17.217   4.009   5.419  0.0573 -0.1880  0.0403
 1328loPI    C221234  16.818   4.003   5.387  0.0541 -0.0630  0.0483
 1328loPI    C321235  16.995   3.860   5.716  0.0177 -0.1445  0.0327
 1328loPI   PO421236  17.303   4.307   5.394 -0.1730  0.0121  0.0972
 1328loPI   GL121237  17.446   4.368   5.830 -0.4780 -0.0728 -0.2257
 1328loPI   GL221238  17.265   4.673   5.841 -0.1498  0.1956 -0.1800
 1328loPI   C1A21239  17.269   4.023   6.100 -0.2908  0.1946  0.1105
 1328loPI   C2A21240  17.105   3.684   6.297 -0.0973 -0.2549 -0.0474
 1328loPI   C3A21241  17.303   3.268   6.488 -0.1972 -0.4460 -0.0658
 1328loPI   C4A21242  17.530   3.131   6.958 -0.1151  0.1172  0.2045
 1328loPI   C5A21243  17.822   3.051   7.386 -0.3469 -0.0261  0.1364
 1328loPI   C6A21244  17.907   3.509   7.602 -0.1430 -0.2179  0.0086
 1328loPI   C1B21245  17.341   4.492   6.327  0.0151  0.0984 -0.0143
 1328loPI   C2B21246  17.219   4.126   6.623  0.1304  0.1470  0.1206
 1328loPI   C3B21247  17.087   3.613   6.790  0.1710  0.1023 -0.0343
 1328loPI   C4B21248  17.090   3.375   7.166  0.1042  0.2668  0.0021
 1329loPI    C121249  17.996  12.892   5.313 -0.1680  0.0076 -0.2118
 1329loPI    C221250  18.037  13.288   5.358  0.2750 -0.0395 -0.1562
 1329loPI    C321251  17.976  13.133   4.994 -0.0989  0.0911 -0.1537
 1329loPI   PO421252  17.847  12.841   5.467  0.1127 -0.0464  0.0765
 1329loPI   GL121253  17.973  12.655   5.859 -0.1842 -0.1753  0.0777
 1329loPI   GL221254  18.154  12.495   5.892  0.1249  0.0487 -0.1636
 1329loPI   C1A21255  17.911  12.893   6.223 -0.0879 -0.3272 -0.0979
 1329loPI   C2A21256  17.876  12.919   6.647 -0.0712  0.3038 -0.1571
 1329loPI   C3A21257  17.931  12.897   7.064  0.1673  0.0052  0.0429
 1329loPI   C4A21258  17.954  13.094   7.550  0.2678  0.0872 -0.1094
 1329loPI   C5A21259  18.381  13.056   7.824  0.0836  0.2032 -0.0814
 1329loPI   C6A21260  18.508  13.086   8.256  0.0480 -0.1341  0.1198
 1329loPI   C1B21261  18.163  12.483   6.362  0.0685 -0.0999 -0.3377
 1329loPI   C2B21262  18.207  12.496   6.884  0.0731  0.1671  0.2714
 1329loPI   C3B21263  18.196  12.453   7.312  0.1359  0.0207  0.2483
 1329loPI   C4B21264  18.141  12.628   7.622  0.1482  0.4693  0.2121
 1330loPI    C121265   6.596  14.388   5.181 -0.0992 -0.2214  0.0671
 1330loPI    C221266   6.222  14.516   5.122  0.0096  0.0469 -0.0611
 1330loPI    C321267   6.358  14.197   4.923 -0.0933  0.0589 -0.1519
 1330loPI   PO421268   6.617  14.463   5.429 -0.3659 -0.0175  0.1051
 1330loPI   GL121269   6.318  14.453   5.621  0.0720  0.0255 -0.0992
 1330loPI   GL221270   6.038  14.574   5.667  0.1416  0.2955 -0.0696
 1330loPI   C1A21271   6.421  14.695   6.018 -0.1287  0.0697 -0.2643
 1330loPI   C2A21272   6.343  14.835   6.372  0.1005 -0.0401  0.0170
 1330loPI   C3A21273   6.185  14.783   6.808 -0.0809  0.0176  0.0599
 1330loPI   C4A21274   6.292  14.896   7.268 -0.1100  0.0810  0.2007
 1330loPI   C5A21275   6.306  14.978   7.629  0.1900  0.1378 -0.0157
 1330loPI   C6A21276   6.249  15.008   7.967 -0.1950 -0.2935 -0.2108
 1330loPI   C1B21277   5.871  14.720   6.055  0.1415  0.0078 -0.0549
 1330loPI   C2B21278   5.790  14.851   6.499 -0.0262  0.1563 -0.1001
 1330loPI   C3B21279   5.750  14.880   7.049  0.0745 -0.1286 -0.0863
 1330loPI   C4B21280   5.823  14.947   7.508 -0.1574 -0.0882 -0.2001
 1331loPI    C121281  11.308   9.040   5.233  0.1725  0.2488  0.1349
 1331loPI    C221282  11.586   9.275   5.068 -0.1550  0.4593 -0.1297
 1331loPI    C321283  11.392   9.007   4.843  0.0264  0.1164  0.1134
 1331loPI   PO421284  11.144   9.161   5.388 -0.2419 -0.0708  0.1962
 1331loPI   GL121285  10.924   9.204   5.719  0.1473  0.1969  0.0439
 1331loPI   GL221286  11.127   9.399   5.865 -0.1496  0.0666 -0.3163
 1331loPI   C1A21287  10.731   9.217   6.154 -0.3290  0.0535  0.1173
 1331loPI   C2A21288  10.427   9.245   6.393 -0.0684 -0.4074  0.3106
 1331loPI   C3A21289  10.201   9.009   6.784 -0.1217 -0.0050  0.2638
 1331loPI   C4A21290  10.150   9.034   7.231  0.0685 -0.0020  0.0251
 1331loPI   C5A21291   9.996   9.061   7.625 -0.2492 -0.0194 -0.1050
 1331loPI   C6A21292  10.075   9.389   7.847 -0.0503  0.0151  0.3242
 1331loPI   C1B21293  11.132   9.505   6.255  0.0527 -0.0798 -0.3682
 1331loPI   C2B21294  11.040   9.877   6.474 -0.1358  0.1179  0.1404
 1331loPI   C3B21295  10.935  10.267   6.667  0.0635  0.3296 -0.1880
 1331loPI   C4B21296  10.660  10.359   6.824 -0.1475  0.2234  0.1331
 1332loPI    C121297   9.410   1.075   5.212  0.0751 -0.2699  0.1009
 1332loPI    C221298   9.796   0.995   5.147  0.0423 -0.3346 -0.0166
 1332loPI    C321299   9.516   0.834   4.911 -0.0407 -0.0766 -0.0973
 1332loPI   PO421300   9.404   1.006   5.477  0.2148 -0.0782  0.3553
 1332loPI   GL121301   9.069   1.079   5.853 -0.0833  0.0161 -0.0101
 1332loPI   GL221302   8.851   1.378   5.852 -0.0355  0.1200  0.0018
 1332loPI   C1A21303   9.170   1.134   6.281 -0.0764  0.1680  0.6547
 1332loPI   C2A21304   9.138   1.292   6.779 -0.1203  0.1521  0.0364
 1332loPI   C3A21305   9.302   1.472   7.186  0.0566 -0.2806  0.0314
 1332loPI   C4A21306   9.569   1.543   7.637  0.3584 -0.2971  0.2258
 1332loPI   C5A21307   9.590   1.560   8.107  0.0349 -0.3971 -0.3515
 1332loPI   C6A21308   9.452   1.992   8.202  0.0916 -0.0016 -0.0728
 1332loPI   C1B21309   8.811   1.495   6.281 -0.0103 -0.2592 -0.1969
 1332loPI   C2B21310   8.852   1.703   6.700  0.1539 -0.0478  0.0132
 1332loPI   C3B21311   8.981   1.842   7.150 -0.1336  0.0372 -0.0604
 1332loPI   C4B21312   8.905   1.624   7.482 -0.0498 -0.0923  0.4354
 1333loPI    C121313   3.211  14.988   4.806 -0.1537 -0.0644  0.0505
 1333loPI    C221314   3.041  15.324   4.671  0.1301  0.0070 -0.1376
 1333loPI    C321315   3.174  15.049   4.413 -0.1907 -0.2996  0.0163
 1333loPI   PO421316   3.395  15.078   5.005  0.1567  0.1100  0.1400
 1333loPI   GL121317   3.242  14.922   5.309  0.1808  0.2521  0.2023
 1333loPI   GL221318   2.992  14.893   5.480  0.1634  0.2912 -0.2527
 1333loPI   C1A21319   3.450  15.062   5.622  0.1298 -0.0282 -0.5617
 1333loPI   C2A21320   3.487  15.034   6.084  0.0137  0.0490  0.0558
 1333loPI   C3A21321   3.511  15.163   6.417 -0.1516  0.1542  0.0005
 1333loPI   C4A21322   3.455  15.123   6.940 -0.0820 -0.2937  0.0079
 1333loPI   C5A21323   3.385  15.035   7.352  0.1019  0.2247 -0.0416
 1333loPI   C6A21324   3.439  14.743   7.597 -0.3241  0.1426  0.2047
 1333loPI   C1B21325   2.980  15.055   5.937 -0.3234 -0.2090  0.0489
 1333loPI   C2B21326   2.989  15.086   6.361  0.1310 -0.3094 -0.1100
 1333loPI   C3B21327   2.984  15.087   6.725  0.1357  0.0914  0.2240
 1333loPI   C4B21328   2.898  15.117   7.181 -0.1310 -0.1720  0.4790
 1334loPI    C121329   0.242   1.361   5.480  0.1113 -0.1008  0.0190
 1334loPI    C221330   0.394   1.675   5.283  0.1941 -0.1025  0.0798
 1334loPI    C321331   0.108   1.730   5.558 -0.0353 -0.1164 -0.1524
 1334loPI   PO421332   0.428   1.223   5.501  0.1188 -0.0620  0.1220
 1334loPI   GL121333   0.606   0.939   5.823 -0.0433 -0.2999 -0.0042
 1334loPI   GL221334   0.184   0.936   5.854  0.3572 -0.1435  0.0379
 1334loPI   C1A21335   0.540   0.903   6.212 -0.0934  0.1186 -0.1119
 1334loPI   C2A21336   0.588   1.049   6.696 -0.1337  0.1467  0.3150
 1334loPI   C3A21337   0.606   1.136   7.176  0.1231 -0.0926 -0.1422
 1334loPI   C4A21338   0.549   1.142   7.595 -0.1322  0.1345  0.1068
 1334loPI   C5A21339   0.863   1.300   7.772 -0.1030  0.3777 -0.2214
 1334loPI   C6A21340   1.234   1.347   7.913 -0.1517 -0.0345 -0.1321
 1334loPI   C1B21341  -0.026   0.981   6.090 -0.0039 -0.0594  0.1647
 1334loPI   C2B21342  -0.370   0.873   6.293 -0.1536 -0.1238 -0.0735
 1334loPI   C3B21343  -0.435   0.973   6.669 -0.0367  0.1763 -0.0802
 1334loPI   C4B21344  -0.466   0.930   7.106  0.0262  0.0680  0.2162
 1335loPI    C121345  17.412  12.537   5.091  0.0634  0.2268  0.0529
 1335loPI    C221346  17.493  12.920   5.007  0.2925  0.1346 -0.1583
 1335loPI    C321347  17.387  12.669   4.714  0.0796  0.0493 -0.0112
 1335loPI   PO421348  17.589  12.410   5.244 -0.0281  0.1936  0.2996
 1335loPI   GL121349  17.509  12.380   5.700 -0.0274  0.2018 -0.2228
 1335loPI   GL221350  17.470  12.658   5.767  0.0760 -0.1882  0.2241
 1335loPI   C1A21351  17.678  12.348   6.128  0.1159  0.2232 -0.3340
 1335loPI   C2A21352  17.652  12.407   6.525  0.0269  0.3146  0.0417
 1335loPI   C3A21353  17.720  12.421   6.967  0.2789 -0.2197  0.1331
 1335loPI   C4A21354  17.691  12.464   7.421 -0.0162  0.2776 -0.0284
 1335loPI   C5A21355  17.688  12.340   7.899 -0.2616 -0.0001  0.0352
 1335loPI   C6A21356  17.771  12.086   8.258 -0.1258  0.2834 -0.0047
 1335loPI   C1B21357  17.401  12.848   6.137  0.1030 -0.0518  0.2546
 1335loPI   C2B21358  17.345  12.795   6.552 -0.1578  0.3708  0.0343
 1335loPI   C3B21359  17.416  12.787   7.005 -0.0305  0.0404 -0.0457
 1335loPI   C4B21360  17.434  12.921   7.410 -0.0914 -0.3194 -0.2728
 1336loPI    C121361  12.285  17.114   5.220 -0.1631 -0.0989 -0.0198
 1336loPI    C221362  12.068  16.785   5.286  0.0415 -0.2361 -0.0246
 1336loPI    C321363  12.308  16.805   4.967  0.0505 -0.0930 -0.0092
 1336loPI   PO421364  12.328  17.137   5.476 -0.1520 -0.1913  0.1321
 1336loPI   GL121365  12.272  17.291   5.835  0.1711 -0.1431 -0.0835
 1336loPI   GL221366  12.620  17.251   5.889  0.0040 -0.1569  0.4604
 1336loPI   C1A21367  12.244  17.428   6.187 -0.0777  0.2713 -0.1610
 1336loPI   C2A21368  12.146  17.290   6.557  0.0460  0.3152 -0.0107
 1336loPI   C3A21369  11.712  17.321   6.744  0.0704 -0.2367 -0.1885
 1336loPI   C4A21370  11.582  17.329   7.230  0.0062  0.1028  0.0449
 1336loPI   C5A21371  11.643  17.323   7.702 -0.0254 -0.0731  0.1165
 1336loPI   C6A21372  11.959  17.529   7.871  0.2442  0.1013  0.2043
 1336loPI   C1B21373  12.648  17.277   6.450  0.4281  0.2277 -0.2912
 1336loPI   C2B21374  12.676  17.275   6.898  0.0197  0.1034 -0.0321
 1336loPI   C3B21375  12.633  17.309   7.419 -0.2339 -0.1482 -0.0476
 1336loPI   C4B21376  12.601  17.246   7.850  0.2763 -0.1481  0.0247
 1337loPI    C121377   0.111   8.247   5.076  0.0038 -0.1907  0.2611
 1337loPI    C221378   0.451   8.123   4.905 -0.0019  0.0577  0.0631
 1337loPI    C321379   0.099   7.999   4.762 -0.0022  0.0970  0.0296
 1337loPI   PO421380   0.175   8.152   5.399  0.0420  0.0126  0.0410
 1337loPI   GL121381   0.115   8.156   5.874  0.1006 -0.3152 -0.2996
 1337loPI   GL221382   0.363   7.933   5.960  0.0240 -0.0068  0.3022
 1337loPI   C1A21383   0.135   8.404   6.222  0.1139 -0.0059  0.1297
 1337loPI   C2A21384   0.308   8.473   6.622  0.1408  0.0423  0.2737
 1337loPI   C3A21385   0.428   8.540   6.986  0.0008  0.2343 -0.0877
 1337loPI   C4A21386   0.552   8.578   7.455 -0.4624  0.0682 -0.2141
 1337loPI   C5A21387   0.556   8.530   7.887 -0.0775  0.0859  0.0860
 1337loPI   C6A21388   0.688   8.523   8.348 -0.4124  0.0837  0.1376
 1337loPI   C1B21389   0.272   7.951   6.383 -0.1215 -0.1526 -0.1355
 1337loPI   C2B21390   0.157   8.000   6.778  0.1646 -0.1685  0.0686
 1337loPI   C3B21391   0.320   8.127   7.232  0.2811  0.1628  0.0720
 1337loPI   C4B21392   0.357   8.163   7.649  0.1426 -0.2291  0.4371
 1338loPI    C121393   9.924   7.868   5.324  0.0384 -0.1442  0.0403
 1338loPI    C221394  10.247   8.019   5.506 -0.0323 -0.1431  0.1661
 1338loPI    C321395  10.107   8.190   5.172  0.0964 -0.1432  0.1116
 1338loPI   PO421396   9.856   7.711   5.556 -0.2671  0.3259  0.1554
 1338loPI   GL121397  10.076   7.601   5.914  0.3354  0.1787 -0.0263
 1338loPI   GL221398  10.348   7.876   5.931 -0.1668 -0.1916 -0.0359
 1338loPI   C1A21399  10.009   7.634   6.270 -0.0504  0.2165 -0.0353
 1338loPI   C2A21400  10.065   7.619   6.699 -0.0716  0.1990  0.2272
 1338loPI   C3A21401  10.104   7.636   7.183  0.1716  0.0150  0.0189
 1338loPI   C4A21402  10.065   7.617   7.608  0.0657  0.3132 -0.2261
 1338loPI   C5A21403  10.255   7.893   7.906  0.1409  0.3843  0.0757
 1338loPI   C6A21404  10.379   8.260   8.166  0.0015  0.1631  0.0000
 1338loPI   C1B21405  10.412   7.881   6.350  0.0745  0.4202 -0.1183
 1338loPI   C2B21406  10.437   7.937   6.779 -0.0736  0.0748 -0.2162
 1338loPI   C3B21407  10.424   8.001   7.187  0.0058 -0.2697  0.1957
 1338loPI   C4B21408  10.494   8.084   7.522 -0.2983  0.2518  0.1719
 1339loPI    C121409   5.135  10.818   5.012  0.0362 -0.2175  0.1000
 1339loPI    C221410   5.082  10.559   4.711 -0.0049 -0.0676 -0.0230
 1339loPI    C321411   5.040  10.952   4.647 -0.0171 -0.0347  0.1799
 1339loPI   PO421412   5.268  10.641   5.189 -0.1297 -0.1884  0.0021
 1339loPI   GL121413   5.200  10.551   5.538 -0.1545  0.1842  0.1097
 1339loPI   GL221414   5.525  10.534   5.699 -0.1725  0.0995  0.1277
 1339loPI   C1A21415   4.937  10.444   5.984 -0.0430  0.0450  0.0150
 1339loPI   C2A21416   4.803  10.458   6.345  0.0370  0.4003 -0.3372
 1339loPI   C3A21417   4.999  10.203   6.731  0.1413 -0.0983 -0.5317
 1339loPI   C4A21418   4.948  10.246   7.181  0.1234 -0.0248  0.0932
 1339loPI   C5A21419   5.061   9.965   7.527  0.0383  0.2426 -0.1829
 1339loPI   C6A21420   5.184   9.677   7.881  0.0469 -0.1193 -0.4345
 1339loPI   C1B21421   5.441  10.508   6.156 -0.0062  0.1827  0.3560
 1339loPI   C2B21422   5.382  10.419   6.593  0.1810 -0.3100 -0.1592
 1339loPI   C3B21423   5.248  10.593   7.024 -0.1152  0.0805  0.1390
 1339loPI   C4B21424   5.382  10.491   7.445  0.0130 -0.1044  0.1813
 1340loPI    C121425  13.397  10.090   5.873 -0.1946 -0.1201 -0.1513
 1340loPI    C221426  13.241   9.918   5.547  0.0039 -0.3099 -0.1486
 1340loPI    C321427  13.588  10.116   5.522 -0.1942  0.0461 -0.1395
 1340loPI   PO421428  13.439   9.982   6.042  0.2142 -0.1027 -0.2423
 1340loPI   GL121429  13.188   9.691   6.266  0.0053  0.0567  0.0749
 1340loPI   GL221430  12.924   9.692   6.488  0.0710  0.1395 -0.1335
 1340loPI   C1A21431  13.322   9.551   6.677 -0.0415  0.0451  0.1649
 1340loPI   C2A21432  13.697   9.509   6.973 -0.0719  0.1884 -0.1109
 1340loPI   C3A21433  13.698   9.312   7.426  0.1511 -0.0025  0.0478
 1340loPI   C4A21434  13.591   9.079   7.732 -0.1400  0.0467  0.1293
 1340loPI   C5A21435  13.539   8.664   7.786  0.0808  0.0854  0.0880
 1340loPI   C6A21436  13.446   8.295   8.052 -0.0863  0.2526  0.1343
 1340loPI   C1B21437  12.910   9.462   6.904  0.2096  0.1101  0.3638
 1340loPI   C2B21438  12.766   9.277   7.312 -0.1145 -0.3971 -0.0308
 1340loPI   C3B21439  12.530   9.073   7.682  0.1319 -0.0907  0.0396
 1340loPI   C4B21440  12.253   9.062   7.971 -0.3213 -0.1706 -0.0110
 1341loPI    C121441  18.247  17.932   5.026 -0.3953  0.0550  0.0347
 1341loPI    C221442  18.474  18.210   5.204 -0.1005 -0.1695  0.0175
 1341loPI    C321443  18.076  18.251   5.196 -0.0665  0.2051  0.0924
 1341loPI   PO421444  18.310  17.709   5.193  0.1652 -0.0355  0.1393
 1341loPI   GL121445  18.474  17.575   5.431  0.0144 -0.0737  0.0265
 1341loPI   GL221446  18.662  17.835   5.550  0.0182 -0.1196 -0.0371
 1341loPI   C1A21447  18.246  17.532   5.799  0.0023  0.1499 -0.1463
 1341loPI   C2A21448  18.099  17.503   6.205  0.0346 -0.0849 -0.0779
 1341loPI   C3A21449  18.078  17.475   6.615  0.2492 -0.0199 -0.1763
 1341loPI   C4A21450  18.073  17.503   7.019  0.2278 -0.0037 -0.2594
 1341loPI   C5A21451  17.963  17.335   7.529 -0.1309 -0.2216 -0.1268
 1341loPI   C6A21452  17.791  17.373   7.942 -0.0133 -0.2559 -0.0000
 1341loPI   C1B21453  18.625  17.693   6.044  0.0779  0.0326 -0.4439
 1341loPI   C2B21454  18.534  17.556   6.434 -0.0399 -0.0579  0.1643
 1341loPI   C3B21455  18.508  17.434   6.823 -0.1808 -0.0821  0.0203
 1341loPI   C4B21456  18.519  17.365   7.398  0.2217 -0.0407  0.0557
 1342loPI    C121457   2.784  15.680   4.887 -0.1747  0.0048  0.0022
 1342loPI    C221458   2.418  15.778   4.756 -0.1538  0.1834  0.0745
 1342loPI    C321459   2.684  15.615   4.505 -0.2475  0.1512 -0.0042
 1342loPI   PO421460   2.818  15.782   5.236 -0.0362  0.4520 -0.2255
 1342loPI   GL121461   2.781  16.039   5.612  0.0468 -0.1737  0.0143
 1342loPI   GL221462   2.498  15.833   5.724  0.0931  0.3016 -0.0415
 1342loPI   C1A21463   2.975  15.882   5.951  0.3010 -0.3229 -0.0896
 1342loPI   C2A21464   2.944  15.945   6.341 -0.0480 -0.0462 -0.1175
 1342loPI   C3A21465   2.817  15.989   6.748 -0.1388  0.1227  0.3483
 1342loPI   C4A21466   2.475  15.927   7.054 -0.1606  0.0512 -0.3060
 1342loPI   C5A21467   2.387  15.949   7.433 -0.1503  0.1594  0.2920
 1342loPI   C6A21468   2.150  16.150   7.729  0.0501 -0.2219 -0.0223
 1342loPI   C1B21469   2.460  15.947   6.133  0.0590 -0.2043  0.0618
 1342loPI   C2B21470   2.295  15.885   6.616 -0.4185 -0.0330 -0.1274
 1342loPI   C3B21471   1.941  15.892   6.975 -0.0275  0.2965 -0.0213
 1342loPI   C4B21472   1.913  15.895   7.397 -0.1344  0.1797 -0.4176
 1343loPI    C121473   4.185   4.465   4.627  0.3735 -0.2817  0.0289
 1343loPI    C221474   3.941   4.193   4.790 -0.1454  0.0828 -0.1141
 1343loPI    C321475   4.094   4.132   4.425 -0.0452 -0.1315 -0.0384
 1343loPI   PO421476   4.289   4.537   4.897 -0.0881 -0.0092 -0.1467
 1343loPI   GL121477   4.343   4.535   5.307  0.1234  0.1132 -0.2082
 1343loPI   GL221478   4.555   4.676   5.517 -0.0067 -0.0518  0.0200
 1343loPI   C1A21479   4.210   4.268   5.738  0.1794 -0.0245 -0.5702
 1343loPI   C2A21480   4.152   4.404   6.177  0.1071 -0.0354  0.0101
 1343loPI   C3A21481   4.232   4.377   6.727 -0.1237  0.2501  0.1269
 1343loPI   C4A21482   4.164   4.430   7.209 -0.0134  0.4910  0.0301
 1343loPI   C5A21483   4.151   4.381   7.633 -0.2225 -0.1003  0.2176
 1343loPI   C6A21484   3.986   4.351   7.994  0.2284 -0.2039 -0.0171
 1343loPI   C1B21485   4.616   4.467   5.983  0.0863  0.3351  0.2944
 1343loPI   C2B21486   4.717   4.468   6.439  0.3564  0.0299  0.1406
 1343loPI   C3B21487   4.759   4.546   6.844  0.1873 -0.1164  0.1931
 1343loPI   C4B21488   4.656   4.512   7.291 -0.0618 -0.1384  0.0877
 1344loPI    C121489   0.931   1.839   5.701 -0.1026 -0.1209  0.0368
 1344loPI    C221490   0.913   1.794   5.304 -0.1634 -0.0347  0.0294
 1344loPI    C321491   1.099   2.111   5.461 -0.0654 -0.1128  0.0719
 1344loPI   PO421492   0.647   1.769   5.733  0.1473 -0.3768 -0.1094
 1344loPI   GL121493   0.614   1.430   5.987 -0.0691 -0.3288  0.1283
 1344loPI   GL221494   0.242   1.512   6.031  0.2098 -0.1092 -0.3190
 1344loPI   C1A21495   0.787   1.407   6.351  0.1509  0.0823 -0.0203
 1344loPI   C2A21496   0.833   1.569   6.815 -0.1776 -0.1598 -0.0853
 1344loPI   C3A21497   1.026   1.920   7.036  0.0626  0.2454 -0.3338
 1344loPI   C4A21498   1.036   1.922   7.410  0.0080 -0.2075  0.0649
 1344loPI   C5A21499   1.022   1.808   7.785  0.0405  0.1740  0.1344
 1344loPI   C6A21500   1.194   1.790   8.168 -0.0542  0.0761 -0.1780
 1344loPI   C1B21501   0.240   1.278   6.399  0.3086  0.1048  0.0218
 1344loPI   C2B21502   0.097   0.926   6.690 -0.1356  0.1095 -0.0364
 1344loPI   C3B21503   0.004   0.965   7.052  0.3065  0.2365 -0.3921
 1344loPI   C4B21504  -0.048   0.901   7.479 -0.0271 -0.2503  0.0222
 1345loPI    C121505   5.730   6.563   5.075 -0.0577  0.0867 -0.2399
 1345loPI    C221506   5.451   6.832   4.975 -0.1504  0.1207  0.0999
 1345loPI    C321507   5.454   6.474   4.799 -0.1510  0.2685 -0.2072
 1345loPI   PO421508   5.860   6.799   5.338  0.3068  0.3500  0.1955
 1345loPI   GL121509   5.903   6.626   5.697  0.0035  0.1317 -0.1006
 1345loPI   GL221510   5.538   6.682   5.719 -0.1971 -0.3042  0.0072
 1345loPI   C1A21511   6.129   6.457   6.212 -0.4235  0.0447 -0.2110
 1345loPI   C2A21512   6.091   6.464   6.674 -0.0753  0.0052 -0.0377
 1345loPI   C3A21513   5.944   6.460   7.132 -0.0803 -0.1886 -0.4251
 1345loPI   C4A21514   6.200   6.507   7.404 -0.3377  0.3464 -0.1839
 1345loPI   C5A21515   6.601   6.464   7.701  0.2462  0.0115 -0.1879
 1345loPI   C6A21516   7.009   6.539   7.784 -0.0430 -0.1277 -0.1850
 1345loPI   C1B21517   5.754   6.827   6.184  0.0166 -0.2209 -0.3636
 1345loPI   C2B21518   5.674   6.819   6.672 -0.0434  0.0054  0.0179
 1345loPI   C3B21519   5.625   7.000   7.032  0.1486  0.1076 -0.3084
 1345loPI   C4B21520   5.643   7.041   7.508  0.0045  0.4085 -0.0170
 1346loPI    C121521   5.560   7.956   4.874  0.1945  0.0237 -0.2042
 1346loPI    C221522   5.758   7.613   4.817 -0.0257 -0.1035 -0.2121
 1346loPI    C321523   5.478   7.728   4.555 -0.0875 -0.0137 -0.1071
 1346loPI   PO421524   5.651   7.997   5.146 -0.0347  0.2657  0.0857
 1346loPI   GL121525   5.513   7.866   5.586  0.0921 -0.1137  0.1537
 1346loPI   GL221526   5.372   8.196   5.658 -0.4139  0.1980  0.0540
 1346loPI   C1A21527   5.284   7.842   6.073 -0.0789 -0.0562 -0.2227
 1346loPI   C2A21528   5.047   7.781   6.456 -0.0852 -0.0847 -0.0463
 1346loPI   C3A21529   4.767   7.807   6.800  0.1548 -0.4438  0.0621
 1346loPI   C4A21530   4.451   7.638   7.155  0.0451 -0.1299 -0.2293
 1346loPI   C5A21531   4.428   7.765   7.583 -0.0604 -0.0567 -0.0782
 1346loPI   C6A21532   4.269   7.808   7.984 -0.1810 -0.2417 -0.2064
 1346loPI   C1B21533   5.701   8.206   6.007  0.1340 -0.3234  0.2291
 1346loPI   C2B21534   5.775   8.423   6.452  0.0080 -0.1829 -0.3288
 1346loPI   C3B21535   5.705   8.478   6.920  0.0318 -0.0387  0.2954
 1346loPI   C4B21536   5.426   8.349   7.285  0.0048  0.1197  0.1810
 1347loPI    C121537  11.649   4.628   5.128  0.0174 -0.2132 -0.1559
 1347loPI    C221538  12.007   4.765   5.016  0.1238 -0.4424 -0.1025
 1347loPI    C321539  11.785   4.552   4.760 -0.0437 -0.1709 -0.1874
 1347loPI   PO421540  11.718   4.560   5.409 -0.4093 -0.2781  0.0168
 1347loPI   GL121541  11.486   4.635   5.731  0.3583  0.1109  0.2973
 1347loPI   GL221542  11.368   4.375   5.801  0.1789  0.1702 -0.2838
 1347loPI   C1A21543  11.654   4.672   6.173 -0.0981  0.3154  0.0151
 1347loPI   C2A21544  11.417   4.408   6.506  0.0970  0.2042  0.3439
 1347loPI   C3A21545  11.424   4.551   6.868  0.2168 -0.0303  0.3939
 1347loPI   C4A21546  11.523   4.503   7.344 -0.2379  0.1905  0.2615
 1347loPI   C5A21547  11.388   4.261   7.593  0.0435 -0.1330 -0.4580
 1347loPI   C6A21548  11.178   4.312   7.992  0.0531  0.1505 -0.0860
 1347loPI   C1B21549  11.580   4.165   6.054 -0.0606  0.1541 -0.1188
 1347loPI   C2B21550  11.753   4.040   6.440 -0.0204  0.5275 -0.1714
 1347loPI   C3B21551  11.725   4.040   6.838 -0.2113 -0.0344  0.0043
 1347loPI   C4B21552  11.778   4.101   7.257 -0.3011 -0.0801 -0.0845
 1348loPI    C121553   5.676   0.104   4.326  0.0902 -0.1392 -0.0356
 1348loPI    C221554   6.039   0.137   4.162  0.1588 -0.0494  0.1321
 1348loPI    C321555   5.755   0.404   4.073  0.0690 -0.2376 -0.1600
 1348loPI   PO421556   5.638  -0.029   4.540  0.1363 -0.0911 -0.0650
 1348loPI   GL121557   5.434  -0.228   4.941 -0.1801 -0.1372  0.1156
 1348loPI   GL221558   5.580  -0.516   5.172 -0.1018  0.0904 -0.1447
 1348loPI   C1A21559   5.201  -0.123   5.446  0.0671 -0.1084 -0.2002
 1348loPI   C2A21560   5.131  -0.054   5.880 -0.2135 -0.0329 -0.1271
 1348loPI   C3A21561   4.990   0.001   6.243 -0.2925 -0.0248 -0.0598
 1348loPI   C4A21562   5.070   0.029   6.714  0.1030  0.1459 -0.0448
 1348loPI   C5A21563   5.045  -0.166   7.181  0.1092 -0.0167  0.1622
 1348loPI   C6A21564   5.162   0.074   7.603 -0.1876 -0.1497 -0.1535
 1348loPI   C1B21565   5.846  -0.485   5.576 -0.0833  0.1203 -0.0795
 1348loPI   C2B21566   5.920  -0.408   6.052  0.1613 -0.0255 -0.2822
 1348loPI   C3B21567   5.851  -0.363   6.523 -0.0450 -0.1573 -0.3302
 1348loPI   C4B21568   5.855  -0.360   6.913 -0.0983 -0.0740 -0.1412
 1349loPI    C121569  11.270   2.076   5.237  0.1569  0.1466 -0.1472
 1349loPI    C221570  11.171   1.700   5.145 -0.0002  0.0949  0.2167
 1349loPI    C321571  11.291   1.951   4.858  0.0418 -0.2116 -0.0390
 1349loPI   PO421572  11.427   2.089   5.412 -0.2024 -0.2497 -0.1523
 1349loPI   GL121573  11.467   2.226   5.777 -0.0647 -0.1272 -0.0114
 1349loPI   GL221574  11.244   2.439   5.840 -0.0221 -0.0048  0.0157
 1349loPI   C1A21575  11.585   2.199   6.204 -0.3604 -0.1862 -0.0641
 1349loPI   C2A21576  11.645   2.249   6.636  0.2373 -0.3068 -0.1110
 1349loPI   C3A21577  11.726   2.312   7.014  0.1502 -0.1641  0.1308
 1349loPI   C4A21578  11.703   2.341   7.527 -0.1069  0.2897  0.2286
 1349loPI   C5A21579  11.818   2.452   7.999 -0.1307 -0.0281  0.2133
 1349loPI   C6A21580  11.944   2.328   8.418  0.4011  0.3370 -0.0966
 1349loPI   C1B21581  11.293   2.618   6.220 -0.2149  0.4675 -0.0622
 1349loPI   C2B21582  11.284   2.681   6.625 -0.1483 -0.2025 -0.1811
 1349loPI   C3B21583  11.310   2.590   7.042  0.1213  0.3879  0.4332
 1349loPI   C4B21584  11.327   2.741   7.414 -0.2323  0.1357  0.0542
 1350loPI    C121585  17.936   1.234   5.134  0.1725 -0.0315  0.1671
 1350loPI    C221586  17.680   1.516   5.013  0.3021 -0.0040 -0.0473
 1350loPI    C321587  17.660   1.148   4.858  0.0545 -0.1516  0.3202
 1350loPI   PO421588  18.071   1.359   5.307  0.0469 -0.2524  0.1917
 1350loPI   GL121589  17.891   1.597   5.629 -0.0816  0.0110  0.2695
 1350loPI   GL221590  18.123   1.338   5.777  0.1496 -0.1244  0.1700
 1350loPI   C1A21591  17.702   1.675   6.118  0.3141  0.2469 -0.3708
 1350loPI   C2A21592  17.817   1.800   6.541 -0.0308  0.3623  0.0658
 1350loPI   C3A21593  17.922   1.852   6.964 -0.0306 -0.3548  0.0525
 1350loPI   C4A21594  17.741   1.997   7.392 -0.0722  0.3310 -0.0196
 1350loPI   C5A21595  17.514   2.266   7.558 -0.1163  0.1293 -0.1115
 1350loPI   C6A21596  17.481   2.395   8.038  0.0738  0.1560  0.0913
 1350loPI   C1B21597  18.109   1.432   6.271 -0.0736  0.2587  0.0648
 1350loPI   C2B21598  18.179   1.428   6.710 -0.1064 -0.2512  0.0329
 1350loPI   C3B21599  18.113   1.372   7.144 -0.2388 -0.1452 -0.1910
 1350loPI   C4B21600  18.457   1.329   7.393  0.1218 -0.0649  0.0701
 1351loPI    C121601  16.483   0.087   5.387  0.1179  0.0716 -0.0786
 1351loPI    C221602  16.385   0.191   5.013 -0.0546 -0.0342 -0.0639
 1351loPI    C321603  16.246   0.403   5.322 -0.0332 -0.0357 -0.0533
 1351loPI   PO421604  16.394  -0.188   5.393 -0.0874  0.1743 -0.1038
 1351loPI   GL121605  16.080  -0.313   5.660  0.1261 -0.1941 -0.0468
 1351loPI   GL221606  16.218  -0.570   5.697 -0.0615 -0.1103  0.1198
 1351loPI   C1A21607  15.995  -0.143   6.047  0.0258  0.0890  0.0068
 1351loPI   C2A21608  15.886  -0.156   6.445 -0.1263  0.1847 -0.1355
 1351loPI   C3A21609  15.924  -0.161   6.892  0.0736  0.1287  0.1210
 1351loPI   C4A21610  15.967  -0.147   7.332  0.0237  0.0142 -0.3935
 1351loPI   C5A21611  15.985   0.089   7.690  0.3279  0.2671  0.0607
 1351loPI   C6A21612  16.245   0.402   7.777 -0.1187  0.1464  0.0975
 1351loPI   C1B21613  16.229  -0.612   6.169  0.3388  0.0980  0.0318
 1351loPI   C2B21614  16.227  -0.570   6.586 -0.1873 -0.2248 -0.1775
 1351loPI   C3B21615  16.234  -0.525   7.037  0.1161  0.1529  0.0615
 1351loPI   C4B21616  16.186  -0.522   7.470 -0.0001 -0.0378  0.2350
 1352loPI    C121617   5.229  11.581   5.166 -0.1577  0.0421 -0.1582
 1352loPI    C221618   5.611  11.472   5.213 -0.1109  0.1950 -0.1767
 1352loPI    C321619   5.367  11.254   4.982 -0.0575  0.0502 -0.0981
 1352loPI   PO421620   5.163  11.660   5.409  0.0323  0.0756 -0.1637
 1352loPI   GL121621   5.149  11.643   5.825 -0.0737 -0.0274 -0.4261
 1352loPI   GL221622   5.083  11.928   5.982  0.1476 -0.1477 -0.0218
 1352loPI   C1A21623   5.368  11.431   6.186 -0.0040  0.3543  0.2635
 1352loPI   C2A21624   5.346  11.310   6.598 -0.0870 -0.0201  0.0727
 1352loPI   C3A21625   5.337  11.294   7.030  0.3684 -0.1534 -0.0046
 1352loPI   C4A21626   5.072  11.092   7.305 -0.0540  0.0104  0.3031
 1352loPI   C5A21627   4.904  10.705   7.398  0.1601  0.0541  0.1861
 1352loPI   C6A21628   4.836  10.366   7.680  0.0394  0.0482  0.0383
 1352loPI   C1B21629   5.007  11.720   6.352  0.0014 -0.2427 -0.0492
 1352loPI   C2B21630   4.895  11.632   6.759  0.1196  0.2128  0.0004
 1352loPI   C3B21631   4.762  11.623   7.173 -0.0167 -0.1390  0.0993
 1352loPI   C4B21632   4.699  11.627   7.568 -0.1427 -0.0826  0.0650
 1353W        W21633  14.009  14.725   4.329  0.1051  0.0287  0.0373
 1354W        W21634  12.324   2.685  14.750  0.0750 -0.0786  0.0338
 1355W        W21635  15.559  16.850   3.541  0.0643 -0.0118 -0.1647
 1356W        W21636   6.612   4.493  14.351 -0.0182 -0.0059 -0.3309
 1357W        W21637   3.524  10.473  13.596 -0.3463 -0.2777  0.1017
 1358W        W21638  15.771   7.386  13.523 -0.0193 -0.0359 -0.0377
 1359W        W21639   6.105  17.986   4.045 -0.1047  0.0857  0.0131
 1360W        W21640  13.634   1.693   2.170 -0.0626 -0.3248  0.0555
 1361W        W21641  15.753  13.368   3.337 -0.0507 -0.3602 -0.4351
 1362W        W21642   4.936   4.189   0.612 -0.0273 -0.0534 -0.1325
 1363W        W21643  13.700   3.664   5.281 -0.0974 -0.2018 -0.2090
 1364W        W21644   3.490   5.996   2.155 -0.0498 -0.0678 -0.0145
 1365W        W21645  15.291   1.827   0.659  0.2431  0.2113 -0.0180
 1366W        W21646   0.414  13.451  13.849  0.0206  0.1390 -0.0758
 1367W        W21647  12.281  14.347   0.851 -0.1516 -0.0797  0.0853
 1368W        W21648  11.807   0.160  13.573 -0.0991  0.3248 -0.2444
 1369W        W21649  14.814   9.924   2.309  0.0012 -0.1050  0.2637
 1370W        W21650  11.556   7.935  11.427 -0.3333  0.0211 -0.0068
 1371W        W21651   9.196   8.789  14.445 -0.0796 -0.0236  0.3183
 1372W        W21652  15.511  15.966   1.036  0.2415  0.3614  0.2798
 1373W        W21653  17.595  14.675   3.763 -0.1948 -0.1363 -0.2019
 1374W        W21654   7.703   8.316   4.140 -0.1077  0.2686 -0.0236
 1375W        W21655  17.252   2.107  13.235  0.0073  0.0032  0.0041
 1376W        W21656   1.643   9.744  14.283 -0.1695  0.0748 -0.1405
 1377W        W21657   6.880   2.887  15.225  0.2382  0.0468 -0.0694
 1378W        W21658   6.437   7.151  15.384 -0.1896  0.2265  0.1674
 1379W        W21659  12.386   4.718   3.521 -0.0214  0.0516 -0.0756
 1380W        W21660   1.986   8.985  13.211  0.0862  0.1097 -0.0981
 1381W        W21661   0.794  11.377  13.831  0.0095  0.0625 -0.1543
 1382W        W21662   1.295   8.741   5.804  0.2214  0.3030  0.0437
 1383W        W21663   9.307   4.095   3.928 -0.0481 -0.0254 -0.0294
 1384W        W21664  13.892  14.845   1.675  0.1006  0.0995 -0.1258
 1385W        W21665  14.111   8.411  11.776 -0.1657  0.2577  0.1245
 1386W        W21666  17.380   4.483   3.594 -0.0273  0.0474 -0.2389
 1387W        W21667   2.139  11.275   1.631  0.2537  0.1684 -0.1215
 1388W        W21668  15.948   2.474   1.779 -0.0439  0.0430 -0.0695
 1389W        W21669  12.742  16.581  13.622  0.2043  0.1744  0.0770
 1390W        W21670   0.747  13.112  14.200  0.0565 -0.1586 -0.1180
 1391W        W21671  15.945  14.803   4.755 -0.1368 -0.0668  0.1649
 1392W        W21672  18.068  17.256   4.370 -0.0971  0.2232  0.1050
 1393W        W21673  14.625   0.112   1.881  0.0353  0.0667  0.5158
 1394W        W21674  11.182  11.236  14.254 -0.4527 -0.1153 -0.0221
 1395W        W21675  13.970   2.742  12.533  0.0401  0.2070 -0.3402
 1396W        W21676   7.769   2.565  12.477  0.5186 -0.1568  0.0977
 1397W        W21677   4.273   5.735   0.660 -0.2428  0.0957  0.0590
 1398W        W21678  13.633   4.393   4.453 -0.0246 -0.0059 -0.0934
 1399W        W21679  16.355   0.656   0.973 -0.2344  0.0181 -0.0273
 1400W        W21680   5.314  12.016  14.649  0.3716 -0.3141 -0.2337
 1401W        W21681  18.164   1.759   2.615  0.2510 -0.1195  0.0778
 1402W        W21682  17.243   8.929   0.286  0.0396 -0.1084 -0.3228
 1403W        W21683  15.061   1.558  12.522 -0.1558  0.2245  0.1158
 1404W        W21684   4.699   2.689  13.744 -0.0821 -0.1769 -0.3686
 1405W        W21685  11.453   1.473  12.737 -0.0637  0.0518 -0.0752
 1406W        W21686   9.872   9.116  13.217  0.1505  0.2667 -0.2962
 1407W        W21687  13.584   7.219   0.427  0.2694 -0.0663  0.1872
 1408W        W21688   4.417  18.222  15.722  0.1231 -0.1176 -0.0638
 1409W        W21689   6.668  12.008  14.887  0.1779 -0.0709 -0.3612
 1410W        W21690  13.975  17.884  12.952  0.0456 -0.0728  0.0799
 1411W        W21691  17.438   6.687   4.179 -0.1294 -0.2538 -0.2278
 1412W        W21692  12.133  16.931   3.216 -0.0123  0.3276  0.2010
 1413W        W21693   6.175  16.315   2.357 -0.2589 -0.0435 -0.2898
 1414W        W21694  12.500   6.194   2.914 -0.2004  0.0482 -0.1468
 1415W        W21695   6.626   6.644   4.371 -0.0594 -0.2000 -0.1081
 1416W        W21696   6.452   0.134  13.377  0.2175 -0.0167 -0.0509
 1417W        W21697  10.404   7.969   4.700 -0.2285 -0.1712  0.0268
 1418W        W21698   5.009   1.663  13.103 -0.1206  0.0847  0.2822
 1419W        W21699   9.284   0.323  13.035 -0.1016  0.3270  0.3734
 1420W        W21700  14.765   3.102   0.307 -0.0720 -0.2526 -0.0450
 1421W        W21701   2.280  16.749  15.458  0.0247 -0.1663  0.2139
 1422W        W21702  14.922  12.126  12.624 -0.0855  0.1076  0.1108
 1423W        W21703   9.532   8.813  15.557 -0.2140  0.0874  0.2384
 1424W        W21704  16.990   4.775   3.555  0.0056 -0.1191  0.0564
 1425W        W21705   2.931  13.487   1.529  0.5876  0.1149  0.1198
 1426W        W21706   0.236  18.243   2.618  0.1810  0.0675 -0.1436
 1427W        W21707  15.857   4.914   4.307  0.2769 -0.0984 -0.1145
 1428W        W21708  12.442  16.445  12.796 -0.0595 -0.2912 -0.1821
 1429W        W21709  12.522  17.592   2.038  0.1595 -0.3560  0.1504
 1430W        W21710   9.735   7.089   3.552 -0.0411 -0.0100  0.2384
 1431W        W21711  13.293  15.550   2.787  0.2951  0.2136  0.1201
 1432W        W21712   7.504  11.269  13.817  0.3353  0.0993  0.0071
 1433W        W21713  10.387  17.249   1.975 -0.1222  0.0995 -0.0575
 1434W        W21714   2.194  18.229  14.154 -0.1864  0.2274  0.3447
 1435W        W21715  11.692   2.196  14.069 -0.0017  0.2043 -0.1634
 1436W        W21716   4.144  14.918   2.793 -0.1790 -0.4248  0.2553
 1437W        W21717   2.646  14.362  12.183  0.1889 -0.1800  0.1382
 1438W        W21718  17.135  15.454  11.753  0.0256 -0.0318  0.2064
 1439W        W21719   9.598  15.663   4.519 -0.2007 -0.2022 -0.1973
 1440W        W21720   8.359   2.485   3.862 -0.2423  0.2374  0.2284
 1441W        W21721   9.316  16.736  14.473  0.0665 -0.2698  0.0755
 1442W        W21722   0.759   0.728   2.289 -0.1233  0.1721 -0.1744
 1443W        W21723   2.512   9.353  14.403 -0.2009 -0.2159  0.1554
 1444W        W21724   5.155   2.565   4.444  0.0419 -0.4249  0.1242
 1445W        W21725   9.536   5.633   2.884 -0.1193 -0.0379 -0.1731
 1446W        W21726   8.123   6.247  11.523  0.1136  0.1309 -0.0407
 1447W        W21727  10.918   2.962  14.888  0.1141  0.1448 -0.1674
 1448W        W21728   1.814   1.751   3.533 -0.0551 -0.0238 -0.1247
 1449W        W21729  12.411   9.525   4.629  0.2880 -0.0010  0.0309
 1450W        W21730  12.668   8.015   0.143  0.1157 -0.0445  0.0825
 1451W        W21731   8.707  12.949   1.229 -0.0980 -0.2233 -0.0882
 1452W        W21732   4.794  12.914   2.803  0.3221  0.0880 -0.0833
 1453W        W21733   2.673  14.505  13.986 -0.1005 -0.1458  0.2330
 1454W        W21734  17.048  14.386   2.077  0.2355  0.1439 -0.0516
 1455W        W21735  12.225  10.590  11.900  0.0177 -0.2814 -0.4164
 1456W        W21736  18.061  14.840  11.916  0.1551 -0.3591  0.0721
 1457W        W21737   7.857   7.723  13.846 -0.1594  0.1833 -0.4225
 1458W        W21738  12.058   8.565  14.932  0.0744  0.3070  0.1172
 1459W        W21739   1.944   3.912   4.017  0.2381  0.2413  0.0002
 1460W        W21740   8.753   8.162  15.065 -0.1550 -0.1610 -0.0213
 1461W        W21741   9.455  16.465  14.941 -0.1696  0.2324  0.2283
 1462W        W21742   8.085   1.489  14.911  0.0539  0.3234  0.0404
 1463W        W21743   2.324  17.749  15.421  0.1485 -0.0698  0.4428
 1464W        W21744   3.779  11.108   2.518  0.1370 -0.1058  0.0929
 1465W        W21745   5.658  10.215   4.036  0.1040 -0.0263 -0.3567
 1466W        W21746  12.276  17.764  14.031 -0.0958  0.1823 -0.0098
 1467W        W21747  13.816   7.347  12.283  0.1306  0.0092 -0.0950
 1468W        W21748  16.826   5.086   4.380 -0.1860 -0.0324  0.1181
 1469W        W21749   5.910   1.202  12.169  0.0457 -0.0289 -0.1947
 1470W        W21750   1.751  13.103  13.152 -0.0132 -0.1333  0.0143
 1471W        W21751  12.391   8.870   4.349 -0.1221  0.2394 -0.1379
 1472W        W21752   0.409  12.834  15.935  0.3851 -0.1854  0.3388
 1473W        W21753   8.848  14.809   1.498  0.1146 -0.0601 -0.3025
 1474W        W21754   9.052  14.262  13.922  0.0393  0.1606 -0.0133
 1475W        W21755  10.930   0.015  15.659  0.0269  0.3459 -0.3037
 1476W        W21756  12.742  15.720  14.759 -0.0773 -0.4131  0.0532
 1477W        W21757  13.565  10.394  13.570  0.0797  0.0161  0.0491
 1478W        W21758   8.160  11.933  11.502 -0.0893  0.0842 -0.3097
 1479W        W21759  10.364  13.653  12.795 -0.0139 -0.0675 -0.0366
 1480W        W21760   0.294  17.657   3.838  0.3417  0.0821  0.1413
 1481W        W21761   6.955  17.534   2.950 -0.1930  0.0375 -0.0940
 1482W        W21762   4.161  14.372  11.875  0.2172 -0.0405 -0.2711
 1483W        W21763   0.925  10.745   1.913 -0.0330 -0.0038 -0.1636
 1484W        W21764  15.088   9.142   4.358  0.1382  0.0101 -0.3104
 1485W        W21765   1.174   9.985   1.543 -0.3695  0.1429 -0.3168
 1486W        W21766  12.561  14.518   1.236 -0.2788 -0.0419  0.1942
 1487W        W21767   3.603  10.816  11.956  0.0046  0.1335  0.0775
 1488W        W21768   8.596  10.671   2.452 -0.1263  0.1727  0.1520
 1489W        W21769  17.729   3.191   1.757  0.2079 -0.0899  0.3664
 1490W        W21770  14.257  15.210   4.193 -0.0857  0.1721  0.1631
 1491W        W21771  14.631   5.954   3.651  0.1396  0.1040 -0.1206
 1492W        W21772   1.864   0.126  15.741 -0.0786  0.4715  0.0612
 1493W        W21773   8.419  15.316   4.327  0.0244 -0.1540  0.1497
 1494W        W21774   0.083   8.745   5.083 -0.1079  0.0059 -0.0978
 1495W        W21775   0.557   0.172   0.274 -0.1333 -0.1060 -0.2053
 1496W        W21776   2.738   8.180  13.121  0.0156  0.0562  0.0213
 1497W        W21777   5.274  11.684   4.670 -0.0477  0.2031 -0.0867
 1498W        W21778   1.417   2.807   0.447  0.1637 -0.0771  0.2045
 1499W        W21779  15.969   3.674   2.310  0.1349 -0.1286  0.0144
 1500W        W21780   6.230  13.792   4.621 -0.2194 -0.1803 -0.2439
 1501W        W21781   6.634   2.304  12.558 -0.1745 -0.0794 -0.1034
 1502W        W21782  18.213   4.686  13.125 -0.2337  0.2962 -0.1519
 1503W        W21783   0.808  16.557  12.382 -0.1358  0.0580  0.1386
 1504W        W21784  13.341   9.562  13.632  0.0011 -0.4749 -0.1798
 1505W        W21785  10.547   9.344  12.696  0.1462  0.0637  0.1487
 1506W        W21786   4.663   7.694  12.498  0.3079 -0.0798 -0.1484
 1507W        W21787   5.224   1.297   3.482  0.2466 -0.0482  0.3449
 1508W        W21788  17.674  13.517  13.896  0.1803  0.0117 -0.1435
 1509W        W21789   5.757   5.634   2.540 -0.1207 -0.0403 -0.0617
 1510W        W21790   0.329   4.403  14.018  0.1277 -0.0698  0.1845
 1511W        W21791   6.868  14.542  12.486 -0.3441 -0.0402 -0.0374
 1512W        W21792   7.791   1.160  15.281  0.0800  0.6710 -0.3236
 1513W        W21793   4.640  17.943   1.738  0.0296 -0.6266 -0.2001
 1514W        W21794   2.959   3.070  14.233 -0.1334  0.0081  0.2069
 1515W        W21795  16.768   1.031  12.413 -0.0992 -0.4103 -0.2313
 1516W        W21796   1.753   5.826   3.566  0.0760 -0.0429  0.3541
 1517W        W21797  10.067  13.517   4.653 -0.0950  0.4862  0.3885
 1518W        W21798  15.610   4.108  14.311 -0.1066 -0.0346  0.1257
 1519W        W21799   8.433  13.813  15.313  0.0115 -0.1558 -0.0426
 1520W        W21800   8.955  11.153  13.579  0.2920 -0.0002  0.2369
 1521W        W21801  10.297   8.027  11.748 -0.0542 -0.0624 -0.1483
 1522W        W21802  11.618   5.807  15.200 -0.0028  0.0456  0.0981
 1523W        W21803  14.792   8.573   0.774 -0.1136  0.0875 -0.0933
 1524W        W21804   9.574  15.320  14.243 -0.0400  0.4409 -0.4967
 1525W        W21805  17.556  17.508  13.999 -0.1587  0.1432 -0.1739
 1526W        W21806   4.193  13.299  11.835  0.0800  0.2103 -0.2163
 1527W        W21807  13.407  10.572   2.714  0.2599  0.2960  0.5038
 1528W        W21808  11.315   6.301   0.818 -0.0071  0.1643  0.2092
 1529W        W21809  18.227  12.672   2.923  0.0324  0.0619  0.5636
 1530W        W21810   3.604   5.442  12.889 -0.3085  0.2525 -0.2798
 1531W        W21811  18.193  15.631  14.231 -0.2264 -0.0142 -0.2235
 1532W        W21812   2.957   9.019   1.057  0.0562 -0.1623  0.3131
 1533W        W21813   6.410  17.540  15.781 -0.1495  0.3010  0.2417
 1534W        W21814   1.305   0.946  14.319 -0.0393 -0.0853 -0.0859
 1535W        W21815   2.738  14.839  11.782 -0.0135 -0.3826 -0.0604
 1536W        W21816  10.032   4.168   2.475  0.2893  0.0596 -0.1137
 1537W        W21817   5.099   4.066   2.267 -0.1792  0.3695  0.2301
 1538W        W21818   2.118   1.349  13.649 -0.2849 -0.2303 -0.0828
 1539W        W21819   3.026  15.177   2.230  0.1802  0.1015  0.1228
 1540W        W21820  17.634   4.005  11.495  0.2213 -0.2941  0.0364
 1541W        W21821   7.442  12.719  14.236  0.0493  0.0714 -0.0313
 1542W        W21822   6.649   9.604  12.325  0.1669 -0.0111 -0.1704
 1543W        W21823   9.780   5.918   1.407  0.1660  0.0875  0.2173
 1544W        W21824   8.998  12.740  15.644 -0.2173 -0.1210 -0.0741
 1545W        W21825   3.015   5.219  14.212 -0.0544  0.0923  0.1282
 1546W        W21826   9.361  14.750   0.520 -0.5412  0.3691 -0.1444
 1547W        W21827  17.809   3.878   2.502  0.1096 -0.2284 -0.0353
 1548W        W21828   4.447   8.174  12.351  0.0101 -0.1210 -0.4487
 1549W        W21829   4.741  14.491  12.083 -0.0006  0.3023 -0.0595
 1550W        W21830  17.358  16.624  15.024  0.1372  0.0455  0.3873
 1551W        W21831  18.154  14.038   2.292  0.2070  0.0756 -0.0110
 1552W        W21832  14.971  17.073  14.756 -0.3043 -0.2023  0.0791
 1553W        W21833   9.668   9.606   3.100  0.2717  0.0150 -0.1310
 1554W        W21834   6.726   0.568   4.169  0.0956 -0.1464 -0.2865
 1555W        W21835  16.182   1.599   5.535 -0.0154  0.0490 -0.0713
 1556W        W21836   5.166  15.546  12.181 -0.3428  0.1760 -0.1228
 1557W        W21837  15.713   6.244  15.517  0.3537  0.1672 -0.1805
 1558W        W21838   7.592   2.880  14.006  0.4090 -0.2432 -0.1782
 1559W        W21839   2.183  17.406   3.430 -0.1732 -0.1859  0.1953
 1560W        W21840   7.895  12.698   1.640 -0.0774  0.1496 -0.1367
 1561W        W21841  12.410  14.665   3.429  0.1601  0.0341 -0.0694
 1562W        W21842   8.282  14.291  11.737  0.0008 -0.0876 -0.1569
 1563W        W21843  17.297   2.602   3.858  0.0981 -0.0852  0.0299
 1564W        W21844   3.864  13.360   0.680  0.1575 -0.1820  0.0203
 1565W        W21845   3.768   3.633  12.326 -0.1430  0.0666 -0.1957
 1566W        W21846  11.110  17.529  13.624  0.2565 -0.0875  0.4856
 1567W        W21847   5.044   7.314  12.553  0.0599 -0.1225  0.2258
 1568W        W21848  11.224   1.492  15.085 -0.2347 -0.1381 -0.3650
 1569W        W21849  17.882  12.590   4.881  0.0291  0.0778 -0.2626
 1570W        W21850  12.885  10.228  13.247  0.0668  0.3967 -0.0641
 1571W        W21851  12.490   9.512  12.302 -0.2142  0.0226  0.1087
 1572W        W21852   6.350  11.041   1.199 -0.2461 -0.0111  0.2510
 1573W        W21853  16.246   1.866  13.289  0.2086  0.0407  0.1977
 1574W        W21854  12.442  10.633   2.852 -0.1764  0.2124 -0.2433
 1575W        W21855  10.709   7.849  13.816  0.0121  0.1538 -0.1568
 1576W        W21856  14.143   2.584   4.079 -0.1322  0.0549  0.0581
 1577W        W21857   3.368  11.135   4.245 -0.3082  0.3590 -0.4913
 1578W        W21858   4.122   9.885   2.535 -0.0565  0.1354 -0.1343
 1579W        W21859  15.625   3.925   5.191 -0.3304  0.1441 -0.0650
 1580W        W21860  17.582   9.817  14.040 -0.0252 -0.1627  0.0143
 1581W        W21861  13.087   3.723   3.744 -0.0683 -0.0380  0.4494
 1582W        W21862  12.216   2.988  13.554  0.1356 -0.1799 -0.1138
 1583W        W21863   8.028  12.224   0.166 -0.2464 -0.0564 -0.0056
 1584W        W21864   2.831  10.490  15.279  0.0094  0.1479  0.2836
 1585W        W21865   1.697  11.717  14.808  0.4458 -0.0137 -0.0372
 1586W        W21866   1.368  17.536   4.533  0.0516  0.0096  0.0370
 1587W        W21867  14.486   4.830  15.443  0.2378 -0.1039 -0.3247
 1588W        W21868   2.351   1.494  15.582 -0.3262  0.1256  0.0976
 1589W        W21869   5.442   3.013   0.245 -0.3315 -0.0962  0.1864
 1590W        W21870  13.566  17.283   0.635  0.0266  0.2256  0.1504
 1591W        W21871   4.139  13.516   5.661 -0.0632 -0.1660  0.0134
 1592W        W21872   4.200  10.906   3.477 -0.1494 -0.1849 -0.0304
 1593W        W21873   4.328   2.267   0.821 -0.2288  0.2152 -0.4078
 1594W        W21874  13.853   5.694   1.279 -0.3630 -0.0078  0.1285
 1595W        W21875  10.037   7.039  15.288 -0.0013 -0.2369 -0.1163
 1596W        W21876  16.345   8.686  12.434  0.2323 -0.1420  0.2329
 1597W        W21877  11.214   7.635  12.168  0.1342  0.1326  0.1020
 1598W        W21878   2.322  12.892   1.402  0.0871  0.1718  0.2947
 1599W        W21879  15.402  11.359   2.467  0.2106  0.1016 -0.0469
 1600W        W21880  14.966  15.560   3.112  0.4087 -0.2724 -0.0755
 1601W        W21881   2.605   0.768   0.946 -0.1802 -0.0795 -0.3146
 1602W        W21882   8.918   3.285  15.745  0.0573  0.2480 -0.0101
 1603W        W21883   3.268   4.335  15.008 -0.1445 -0.2150  0.2563
 1604W        W21884   7.830   1.666   3.415 -0.1887 -0.0430 -0.2100
 1605W        W21885   8.643  16.101   1.559  0.1802 -0.2899 -0.2342
 1606W        W21886   0.558   6.151  14.613  0.0973  0.1590 -0.0989
 1607W        W21887  17.968  10.395   1.752  0.2876  0.1499 -0.0150
 1608W        W21888  14.681   3.897  12.313 -0.2434 -0.0035 -0.1289
 1609W        W21889   6.772  11.146  12.968  0.0864  0.1363  0.1751
 1610W        W21890  10.908   4.848  13.145  0.2306  0.0517 -0.1201
 1611W        W21891   5.839  17.126   1.878 -0.1104 -0.0368 -0.1128
 1612W        W21892  18.274   4.701  11.729 -0.1213 -0.0304 -0.1441
 1613W        W21893  17.176   0.358  14.955  0.0068  0.0263  0.1912
 1614W        W21894  11.814   9.168   3.549  0.2099  0.0844  0.0456
 1615W        W21895  14.006  16.806  13.708  0.5969  0.0066  0.2640
 1616W        W21896   5.362  13.128  11.554 -0.0932  0.2523 -0.0938
 1617W        W21897  18.179  16.996   3.285  0.0889 -0.5348  0.1454
 1618W        W21898   9.923   9.088   0.550 -0.1730  0.0884  0.0581
 1619W        W21899   8.821  17.134  11.563 -0.1807  0.0590  0.4095
 1620W        W21900  18.130   5.124   1.083 -0.1595 -0.0276 -0.5014
 1621W        W21901   5.115  16.281   1.153 -0.1451 -0.1195 -0.0410
 1622W        W21902  11.319  18.221   2.007  0.1247 -0.1207  0.0683
 1623W        W21903   3.318  11.803   3.839  0.3800  0.1494  0.0914
 1624W        W21904   1.097  11.023  15.427  0.0416 -0.1073  0.2880
 1625W        W21905  17.632   2.456  15.709  0.1234 -0.0468 -0.0002
 1626W        W21906  17.637  10.660   2.035 -0.1666 -0.2244 -0.1123
 1627W        W21907  16.381   2.811   0.238 -0.0845 -0.0452 -0.0580
 1628W        W21908  13.902  14.748  15.209  0.1540 -0.0576 -0.0857
 1629W        W21909  11.171   7.094   0.531  0.1397  0.1681 -0.1303
 1630W        W21910   8.250   2.228   2.992 -0.0647 -0.0624 -0.1197
 1631W        W21911  14.309  11.522  13.340  0.1737  0.0648  0.2945
 1632W        W21912   7.325  17.705  15.797 -0.2008  0.1849 -0.0477
 1633W        W21913   8.270  12.375  11.753 -0.0383 -0.0313 -0.0247
 1634W        W21914  17.892  10.120   3.910 -0.3552 -0.0085  0.2862
 1635W        W21915   9.286  17.439  15.087  0.2722  0.1369 -0.2130
 1636W        W21916   6.128   3.971  15.584  0.0157  0.2356 -0.1179
 1637W        W21917   7.747  10.481   0.810 -0.0676  0.0693 -0.2785
 1638W        W21918  16.088  16.074  15.093 -0.1612 -0.1978 -0.0310
 1639W        W21919   8.112  11.132  14.596 -0.0640  0.0531  0.0733
 1640W        W21920  15.347  10.449   4.020  0.2982  0.1855  0.1399
 1641W        W21921   6.596  11.993   2.778 -0.0894 -0.2207 -0.2380
 1642W        W21922  18.177  13.258  12.602  0.2230 -0.2400 -0.1876
 1643W        W21923  13.325   6.333   1.890 -0.1878 -0.0127  0.0122
 1644W        W21924   7.128  13.656   4.827  0.2076 -0.2332  0.1006
 1645W        W21925  12.200  16.027  15.318  0.0800  0.0444 -0.2737
 1646W        W21926   1.928   8.840   2.799  0.2480  0.0698 -0.2207
 1647W        W21927  10.153   6.473  12.956  0.2461  0.2119 -0.1566
 1648W        W21928   1.970   9.529  14.973  0.0970  0.1577 -0.1656
 1649W        W21929   8.702   8.781  14.646 -0.1846  0.2149 -0.0863
 1650W        W21930   3.769   6.768   1.639 -0.1659  0.0360  0.0658
 1651W        W21931   6.872  11.561   4.084  0.1717 -0.1252 -0.0231
 1652W        W21932   6.262   6.237  14.021  0.1026 -0.1412 -0.3256
 1653W        W21933  16.743   8.793  14.890  0.1999 -0.0593 -0.1425
 1654W        W21934  11.955  10.446   3.176  0.4077  0.0590 -0.1547
 1655W        W21935  12.626  13.682  11.786  0.0503  0.0248  0.0870
 1656W        W21936  18.297  11.472  13.474 -0.0383  0.3400  0.0536
 1657W        W21937   2.873   4.394   3.970 -0.1618  0.4775  0.1436
 1658W        W21938  10.265  16.086   4.688  0.0365  0.2602 -0.0441
 1659W        W21939  13.038   2.050  11.675  0.2148 -0.2014 -0.0680
 1660W        W21940  10.485   9.818   3.294 -0.2438 -0.1988  0.2396
 1661W        W21941   1.703   1.590   2.580  0.0475 -0.1003  0.0667
 1662W        W21942   1.844   5.422  11.889 -0.0269 -0.0877 -0.0174
 1663W        W21943   7.829   3.485  14.571  0.1729 -0.1984  0.2290
 1664W        W21944  11.279   6.987  15.890  0.0150  0.1773 -0.0639
 1665W        W21945   2.753  14.819   4.201 -0.2771 -0.3526 -0.0465
 1666W        W21946  11.992   6.908   0.585 -0.2165 -0.0974  0.1164
 1667W        W21947   0.751   7.633   1.308  0.0136 -0.2833 -0.3052
 1668W        W21948   9.227  17.824   1.963 -0.1685  0.1883  0.0744
 1669W        W21949  13.765   5.831   4.330  0.3467  0.0590  0.0134
 1670W        W21950  14.886   0.042   2.689 -0.2237  0.0623  0.2714
 1671W        W21951   3.971  16.087  13.989  0.0541  0.3282  0.0146
 1672W        W21952   4.866  11.537   2.333  0.2059 -0.0169 -0.1952
 1673W        W21953  15.743   6.198   0.080 -0.0546 -0.1204 -0.0862
 1674W        W21954  15.888   4.727   1.396 -0.1045 -0.2904  0.3038
 1675W        W21955  11.131   0.814   2.174  0.3238 -0.0722  0.0375
 1676W        W21956   7.587  12.701  14.785 -0.1046 -0.2356 -0.1133
 1677W        W21957  13.956   0.123   5.285 -0.1349 -0.1041 -0.1814
 1678W        W21958  17.977   1.499   0.744  0.2643 -0.1678 -0.0943
 1679W        W21959   4.005  11.359  13.692  0.1056 -0.2184  0.2379
 1680W        W21960   2.092  11.421  13.121 -0.2789 -0.1018 -0.0809
 1681W        W21961   2.145  10.775   0.553 -0.1900 -0.1329 -0.0121
 1682W        W21962  12.446   2.476   2.271 -0.0223 -0.0745 -0.2357
 1683W        W21963   8.231   8.415   0.366  0.2663  0.3924  0.1243
 1684W        W21964  17.799  11.123  13.194  0.2939 -0.1283 -0.1916
 1685W        W21965  11.669  11.342   0.339 -0.2315 -0.0916 -0.1370
 1686W        W21966  15.382   1.583  11.660  0.1050  0.2184 -0.0993
 1687W        W21967   8.274   1.776   3.190 -0.0206 -0.3279 -0.0489
 1688W        W21968  12.477  15.469  12.811 -0.2892 -0.1129  0.2926
 1689W        W21969  16.338   7.778   1.248 -0.0215  0.0954  0.1320
 1690W        W21970   4.672  15.817  12.331  0.1619 -0.3349 -0.0222
 1691W        W21971   6.388  17.261   2.004  0.0090 -0.0569 -0.3617
 1692W        W21972  12.733   7.078  13.033 -0.0936 -0.0832 -0.0910
 1693W        W21973   0.356  16.120   1.074  0.0756 -0.2101  0.0378
 1694W        W21974   6.791   7.519  12.874  0.1106  0.0418  0.0828
 1695W        W21975  10.820  13.070  14.441 -0.2731 -0.1326 -0.1430
 1696W        W21976  10.585   2.861   2.244  0.0870  0.0745 -0.0792
 1697W        W21977   7.361  14.762  14.331 -0.2341 -0.1888  0.0086
 1698W        W21978   8.501   2.308  15.864  0.1437 -0.1463  0.1819
 1699W        W21979   1.366  17.511  12.801 -0.0280  0.1852 -0.0689
 1700W        W21980  16.347  17.866  15.870  0.1659  0.0698 -0.2246
 1701W        W21981  15.058  15.941  14.395  0.2107 -0.1635 -0.0290
 1702W        W21982   9.038   5.681   2.566  0.0438 -0.0648  0.2206
 1703W        W21983   7.049   9.420   3.421  0.1750  0.3853 -0.4425
 1704W        W21984   7.262  10.702  11.575  0.2041 -0.0637 -0.1331
 1705W        W21985   1.297   2.261  11.470 -0.2330 -0.1178 -0.1486
 1706W        W21986  15.628   6.997  12.822 -0.0264  0.0486  0.0943
 1707W        W21987  10.780   5.700  13.310 -0.1552 -0.1719  0.0071
 1708W        W21988  14.636  12.762   4.915 -0.1072  0.1218 -0.3307
 1709W        W21989   9.090  12.150  11.937 -0.0213 -0.0576 -0.0445
 1710W        W21990  16.971  12.818  13.139  0.1943 -0.0432  0.1094
 1711W        W21991   7.303   0.721   1.558  0.0290  0.3637 -0.0155
 1712W        W21992   7.674   1.805  15.075 -0.0656 -0.0254  0.0007
 1713W        W21993   5.054  10.032   1.083  0.0275 -0.1060 -0.0609
 1714W        W21994  13.760   3.230  11.903 -0.0434  0.0795 -0.0596
 1715W        W21995   0.928  18.013   4.813 -0.1734  0.0302 -0.1705
 1716W        W21996   5.314   0.800  13.344  0.2496  0.0217  0.2453
 1717W        W21997   8.070  12.306   0.729 -0.0439 -0.3074  0.0802
 1718W        W21998   4.301  13.665  14.836 -0.2698  0.1406 -0.0198
 1719W        W21999  13.087  16.354   5.628 -0.0684  0.1789 -0.0258
 1720W        W22000  12.680  14.182  14.332  0.0285  0.1903 -0.0636
 1721W        W22001  17.844   0.790   3.918  0.3567 -0.3413 -0.1075
 1722W        W22002  16.697   9.550  15.395  0.0368 -0.0196 -0.0523
 1723W        W22003   7.408   8.214   2.815  0.1993  0.5449  0.0475
 1724W        W22004   8.349  11.640  14.754 -0.0265  0.1870 -0.0108
 1725W        W22005   4.915   0.559  15.654 -0.2273  0.3294  0.2105
 1726W        W22006   6.633   5.863  14.774  0.0598  0.0729  0.1080
 1727W        W22007  14.941   2.776  13.387  0.2225 -0.0298 -0.2161
 1728W        W22008  10.756   6.119   2.836 -0.1863 -0.0019  0.0932
 1729W        W22009   0.071   9.332   3.831 -0.2718  0.1028  0.0175
 1730W        W22010   5.817  11.956   0.431  0.1691  0.1452  0.1019
 1731W        W22011  13.817   0.987   5.368 -0.1676 -0.3973 -0.0867
 1732W        W22012   6.848  14.391   3.305  0.2984 -0.0088  0.0408
 1733W        W22013   5.288   7.894   1.841  0.0934 -0.0794  0.1209
 1734W        W22014   8.161   5.743   1.654 -0.0766  0.1849 -0.2841
 1735W        W22015   2.412   3.096   2.908  0.1069 -0.0226  0.0450
 1736W        W22016  10.592  10.794   4.139 -0.0378  0.0015  0.1987
 1737W        W22017   4.615   2.380  13.343 -0.2574 -0.2469  0.0607
 1738W        W22018   7.969  13.700   3.152 -0.3670  0.1432  0.1442
 1739W        W22019   2.193   7.421  15.546 -0.0050  0.2866 -0.3547
 1740W        W22020   7.008   8.915  15.202  0.0049 -0.2049 -0.1098
 1741W        W22021   4.884  10.927   1.742  0.2763  0.2479  0.3212
 1742W        W22022   2.410   0.786   4.280  0.0439  0.4140  0.0904
 1743W        W22023   1.082   7.378  11.398  0.2177  0.2151 -0.2235
 1744W        W22024  12.525  11.540   3.437 -0.1042 -0.1144  0.1617
 1745W        W22025   0.369  10.552  13.429  0.1557 -0.0020 -0.1215
 1746W        W22026  15.991   0.364   0.863 -0.1111  0.0070 -0.1556
 1747W        W22027  11.264  10.235  14.528  0.3094 -0.0369 -0.3232
 1748W        W22028  14.783  11.129  12.587 -0.2228 -0.2203  0.2715
 1749W        W22029   3.586   8.599  11.462 -0.1849 -0.1991 -0.2307
 1750W        W22030  15.174   7.468   4.286  0.0812 -0.2700 -0.0663
 1751W        W22031   1.414   4.593   5.448  0.1833  0.2216  0.0168
 1752W        W22032   7.701   7.795  12.975 -0.0213  0.0258  0.3341
 1753W        W22033   6.375   6.729   0.680  0.1007  0.1904  0.2762
 1754W        W22034  14.296   8.193   3.913  0.1479  0.1325 -0.0296
 1755W        W22035   3.953  12.381  14.678 -0.2091  0.2674  0.0728
 1756W        W22036   2.087   0.683   0.077 -0.4189  0.1202  0.1146
 1757W        W22037   6.862  14.977  13.393  0.4574 -0.1879  0.0810
 1758W        W22038  11.693   5.491   0.825 -0.1835  0.1441 -0.1560
 1759W        W22039  11.924  11.658  11.153 -0.3025  0.0353  0.0998
 1760W        W22040  14.564   4.896   0.561 -0.0001 -0.1791 -0.1248
 1761W        W22041  12.406  17.065  12.400 -0.0376  0.2112 -0.0656
 1762W        W22042   8.842  13.078   3.180  0.1732  0.0786 -0.3112
 1763W        W22043  13.061   1.492   3.875  0.1514 -0.0517 -0.1345
 1764W        W22044  10.977  12.785  14.048  0.2135 -0.0927 -0.0572
 1765W        W22045   7.028   8.744   0.086 -0.1719 -0.1107 -0.0489
 1766W        W22046   7.638   0.424  13.815 -0.1294  0.1408 -0.0845
 1767W        W22047   3.449   1.490   3.892 -0.1101  0.3400  0.2247
 1768W        W22048   8.734   7.690   0.648 -0.0988 -0.1462  0.0489
 1769W        W22049   1.187  15.499   1.137  0.1917 -0.1359 -0.1231
 1770W        W22050  17.680   1.483   4.469  0.1197  0.0902  0.1292
 1771W        W22051   4.441   8.536   4.381 -0.0271  0.2445 -0.1186
 1772W        W22052  10.455  14.289   4.485 -0.1214  0.1000 -0.0702
 1773W        W22053  16.492  17.458   4.062  0.1501 -0.0709  0.0737
 1774W        W22054  10.995   9.698  13.451  0.0697 -0.1040  0.0094
 1775W        W22055  15.604   5.108  14.781  0.0326  0.0490  0.1648
 1776W        W22056  12.650   2.259  11.977  0.2461  0.1462 -0.0280
 1777W        W22057   9.732  13.302   2.248  0.2691 -0.1459 -0.3502
 1778W        W22058  12.789   3.692  11.822 -0.1953  0.0835 -0.1284
 1779W        W22059  10.687   1.796  13.348  0.0939  0.0449  0.0589
 1780W        W22060   8.192   7.434   0.836 -0.0597  0.1236 -0.0159
 1781W        W22061  13.685   9.232  12.799 -0.0165 -0.1382 -0.0529
 1782W        W22062   4.293  12.081   0.991 -0.1539  0.3172  0.1987
 1783W        W22063  16.927   7.101  15.656 -0.0751  0.0564 -0.1230
 1784W        W22064  12.154  14.797   1.459 -0.1875  0.0659  0.0455
 1785W        W22065   6.493  10.596  12.703 -0.0531 -0.0307  0.2054
 1786W        W22066   5.391  17.586  12.203 -0.1975 -0.0964  0.1529
 1787W        W22067  14.103   9.929  14.649  0.0557  0.2137  0.2482
 1788W        W22068   9.341  10.209   2.449 -0.3726  0.1880 -0.1695
 1789W        W22069  13.340   5.260  15.569  0.1442 -0.1732 -0.0621
 1790W        W22070   1.549  14.623  12.648  0.0570 -0.0875 -0.0027
 1791W        W22071   8.431   5.511  14.464 -0.1977 -0.2162  0.0314
 1792W        W22072  13.995   3.726   1.994 -0.1260  0.0492  0.0775
 1793W        W22073  14.089  18.106  12.018 -0.1274 -0.0863 -0.1204
 1794W        W22074   0.073  17.908   3.418 -0.3246  0.0560  0.2152
 1795W        W22075  18.155   5.983  11.173  0.0664 -0.0456  0.0326
 1796W        W22076  13.694   5.827  15.109  0.0294 -0.0498  0.0683
 1797W        W22077  18.073   5.950   2.261  0.1912 -0.0532  0.1788
 1798W        W22078   2.908   1.162   0.955 -0.0275  0.0336  0.0909
 1799W        W22079   7.081  15.696   5.084 -0.3685 -0.0554 -0.0166
 1800W        W22080   6.871   2.767  11.422 -0.0716 -0.0681  0.1438
 1801W        W22081   3.395   9.077  11.551  0.1483  0.1285  0.0595
 1802W        W22082   2.772  12.130  13.139  0.0987 -0.1256  0.0172
 1803W        W22083   4.899  15.558  11.197 -0.2057  0.2165 -0.0262
 1804W        W22084   0.808  17.254   3.212 -0.1888  0.3072  0.0484
 1805W        W22085  15.495   3.997  13.747  0.2309 -0.2028 -0.0049
 1806W        W22086  16.824  13.050  15.108 -0.1073  0.0834 -0.3571
 1807W        W22087  12.902  12.476  15.901  0.0771  0.5060 -0.2901
 1808W        W22088  14.572  14.190  15.341 -0.2496 -0.2938 -0.3991
 1809W        W22089   6.693  11.881  13.567 -0.2355 -0.0551 -0.0869
 1810W        W22090  14.984   3.695   2.647 -0.1943  0.0534  0.4403
 1811W        W22091   9.599  16.185   1.242 -0.0280 -0.1163  0.1510
 1812W        W22092  12.458  16.843   3.991 -0.3210 -0.2084 -0.0735
 1813W        W22093  14.180  10.364  11.011  0.2299 -0.0573 -0.0186
 1814W        W22094   4.677   5.755   0.401  0.2746  0.2032  0.1453
 1815W        W22095   0.693  10.467  14.106  0.2946 -0.3134 -0.2406
 1816W        W22096   5.545  15.602   3.379 -0.0094 -0.3893 -0.2841
 1817W        W22097   5.094   6.658  15.237 -0.1979 -0.0834  0.1344
 1818W        W22098   3.180   6.316   2.402 -0.1073  0.2652 -0.0166
 1819W        W22099   4.431   1.916  15.271  0.0574  0.0856 -0.0374
 1820W        W22100  13.589   2.078  13.380  0.0828 -0.1474  0.0866
 1821W        W22101   0.301  17.327   3.258 -0.0437  0.0750  0.1272
 1822W        W22102  14.089  18.006   0.971 -0.0145  0.2196  0.0468
 1823W        W22103   8.857  17.423   3.170  0.0404 -0.0727  0.0965
 1824W        W22104  10.537   7.269  15.834  0.1058 -0.0947 -0.1284
 1825W        W22105  11.399   0.168   1.350 -0.1029  0.1962 -0.1834
 1826W        W22106   1.223   3.192   3.294 -0.1325  0.2550  0.2480
 1827W        W22107   6.495  12.882   1.044 -0.0490 -0.0265 -0.0104
 1828W        W22108   4.179  15.322  12.865  0.1403 -0.1035 -0.3866
 1829W        W22109  16.165   7.668  13.445  0.0094 -0.0572  0.0140
 1830W        W22110   0.564  17.173   4.663 -0.0267  0.0401 -0.1693
 1831W        W22111   3.701  16.253   2.159 -0.1876 -0.0681  0.2071
 1832W        W22112   9.601   0.818  13.682  0.1794  0.0628 -0.2265
 1833W        W22113   1.119   9.080   0.734  0.1117 -0.1002 -0.0379
 1834W        W22114  11.149   8.372   4.020  0.0733  0.1550  0.1319
 1835W        W22115   8.557  11.917  13.853 -0.0902  0.1215  0.0215
 1836W        W22116   3.883  13.674  15.828  0.2069  0.0214  0.0529
 1837W        W22117  18.167   2.200  14.940  0.0550 -0.2188 -0.3418
 1838W        W22118   5.173   9.442  13.154 -0.2163 -0.1775  0.1957
 1839W        W22119   5.602   5.060   0.781 -0.2039 -0.1889  0.2164
 1840W        W22120  15.480   0.598   3.723  0.0739 -0.1681  0.5489
 1841W        W22121   9.677  11.438   0.712 -0.2967  0.4088  0.0469
 1842W        W22122   5.867  10.090  11.526 -0.0792 -0.0436  0.1620
 1843W        W22123  14.645  10.845   3.443  0.0501 -0.0215 -0.0588
 1844W        W22124  12.109   8.710   1.403  0.2058 -0.0569 -0.1788
 1845W        W22125   6.280   7.340  15.808 -0.1848 -0.0235 -0.1155
 1846W        W22126   3.160  16.192   2.150 -0.4211  0.3366 -0.1714
 1847W        W22127   3.332  14.771   1.336 -0.0319  0.2686  0.0566
 1848W        W22128   9.138   7.616   1.788 -0.1128 -0.0637  0.0671
 1849W        W22129  16.870  16.039   4.810 -0.1655 -0.0071 -0.1599
 1850W        W22130   4.494  13.129  14.412 -0.1315  0.0422  0.0431
 1851W        W22131   2.992  14.655   1.993  0.2103 -0.1507 -0.0333
 1852W        W22132   2.335   4.666   2.832  0.0007 -0.1488  0.0431
 1853W        W22133  15.512  17.020  15.665 -0.0648  0.0713  0.1838
 1854W        W22134  18.088  12.893  14.416 -0.0132  0.0012  0.1213
 1855W        W22135   3.661  11.503   4.010  0.1797 -0.1146  0.0919
 1856W        W22136   3.301  16.111   3.499  0.0365 -0.2041 -0.1205
 1857W        W22137   2.343  14.482  10.719  0.1246 -0.0614 -0.2023
 1858W        W22138   7.470   2.510   0.962 -0.1528  0.0229  0.2261
 1859W        W22139   7.231  15.251   2.241 -0.0822  0.2299 -0.2416
 1860W        W22140   2.119  12.757  13.263  0.2313 -0.1261  0.0317
 1861W        W22141   0.776   7.760  12.108  0.2389 -0.0048 -0.3405
 1862W        W22142   9.126  15.505   4.335 -0.0737  0.0103  0.2226
 1863W        W22143   9.381  17.970   4.242  0.0987 -0.2339  0.4245
 1864W        W22144   1.887  11.306  12.424 -0.1039 -0.1055  0.0949
 1865W        W22145  10.520  18.136  11.773 -0.2583  0.0816 -0.0693
 1866W        W22146   4.980   5.155  14.401 -0.0359  0.1097  0.1942
 1867W        W22147   0.027  11.692   2.086  0.5324  0.2271 -0.3396
 1868W        W22148  17.262  18.241   0.966 -0.0235  0.1462  0.2767
 1869W        W22149   2.521   3.726  11.635  0.3570 -0.3043  0.0957
 1870W        W22150  12.459  15.168   3.739  0.3289 -0.1866 -0.3206
 1871W        W22151   3.551   1.729  10.956  0.0616  0.0451  0.1829
 1872W        W22152   8.575   8.368   1.307  0.3556  0.3533  0.0672
 1873W        W22153  11.122   0.617  10.791  0.0734 -0.0753  0.5774
 1874W        W22154  15.317   3.776   3.977  0.0585  0.0177 -0.4647
 1875W        W22155  12.166   4.983   1.367 -0.2184  0.0625 -0.2350
 1876W        W22156  12.705  12.814   2.586  0.3496 -0.0881 -0.0267
 1877W        W22157   9.815   4.605  13.050  0.1356  0.0148 -0.0318
 1878W        W22158   7.440   2.806  14.926 -0.1361  0.0524 -0.1436
 1879W        W22159  12.976  15.578   4.411 -0.1223  0.2850 -0.0503
 1880W        W22160   3.845   7.430  13.337  0.1295 -0.1169 -0.0448
 1881W        W22161   1.999  17.139   3.826 -0.2647  0.2068  0.4001
 1882W        W22162   0.014  12.894  15.512 -0.1503  0.1246 -0.0628
 1883W        W22163   7.822  15.955   4.442 -0.1021  0.1376  0.0499
 1884W        W22164  13.097   9.854  13.943 -0.1511  0.1608 -0.1834
 1885W        W22165   9.336   0.878   3.838  0.0525  0.0354  0.1182
 1886W        W22166   6.041   1.391  15.660  0.0546  0.2864  0.1681
 1887W        W22167   3.980   2.146   3.933 -0.0485 -0.1520  0.2052
 1888W        W22168  15.223  13.362   0.071 -0.0816 -0.2165  0.0861
 1889W        W22169   4.950  14.843  12.915 -0.1276  0.0160 -0.1157
 1890W        W22170  10.916   8.636   3.661  0.1824 -0.0055 -0.1018
 1891W        W22171  13.955   4.034   1.067 -0.0472 -0.1819  0.1438
 1892W        W22172  11.496   9.404  13.710  0.0005 -0.2498 -0.0209
 1893W        W22173   5.508   2.794  14.906 -0.0278  0.2657  0.1046
 1894W        W22174   9.696  14.914   0.897 -0.1120  0.0631  0.0182
 1895W        W22175   7.424   6.943  13.620  0.2235  0.0157  0.2000
 1896W        W22176   4.916  14.545  15.011  0.1822 -0.1488 -0.1114
 1897W        W22177  10.381   4.738   5.337 -0.2661 -0.3277 -0.1294
 1898W        W22178   0.036   4.156   1.090  0.1824  0.2429 -0.2408
 1899W        W22179  11.831   3.022  14.029  0.1470 -0.3534 -0.1559
 1900W        W22180   5.822   6.064   2.946 -0.0832 -0.2719 -0.2530
 1901W        W22181  14.407  17.273   1.747  0.0514 -0.1410  0.0345
 1902W        W22182  12.939  13.156  12.379 -0.0887  0.0590  0.2865
 1903W        W22183   6.900  18.020   0.537 -0.0311  0.1458 -0.2183
 1904W        W22184   4.887  15.092   2.965  0.1734 -0.0263 -0.1708
 1905W        W22185  17.596   6.387   0.573  0.0608 -0.0749 -0.0020
 1906W        W22186   9.104   7.422  13.619  0.2458 -0.0672 -0.0629
 1907W        W22187  12.850   9.935   3.019 -0.0609 -0.2503  0.1439
 1908W        W22188  11.488   9.334  14.752 -0.0991  0.1800  0.0266
 1909W        W22189   0.992  16.971   3.948 -0.1223  0.2196 -0.2449
 1910W        W22190  11.694  13.958  14.630 -0.1196 -0.0089 -0.0167
 1911W        W22191  12.933   9.591   0.360  0.2882  0.2100  0.1216
 1912W        W22192  16.739  10.373  13.403 -0.0826  0.1923 -0.2911
 1913W        W22193  10.049   2.872   1.733 -0.0730 -0.2242 -0.0644
 1914W        W22194  13.242  14.887  13.184 -0.1200  0.0363  0.1726
 1915W        W22195  11.078  10.908  15.868  0.0158  0.3031 -0.0142
 1916W        W22196   5.308   5.186   3.121 -0.0411 -0.1996 -0.0147
 1917W        W22197  13.883   8.709   3.349 -0.1222 -0.0966 -0.0482
 1918W        W22198   6.328   3.692   1.775 -0.1471  0.1206 -0.1243
 1919W        W22199   4.230  13.608  11.475 -0.0893  0.2082  0.0186
 1920W        W22200   0.653  14.570   4.028  0.0263  0.0710 -0.0549
 1921W        W22201   9.902  12.108   1.263  0.3243  0.0057 -0.2107
 1922W        W22202   7.179  10.636  13.347  0.1067 -0.3082 -0.0332
 1923W        W22203  15.287   4.965   4.426 -0.3492 -0.0102 -0.1680
 1924W        W22204   0.590  15.916   4.258  0.2336 -0.1074 -0.0809
 1925W        W22205  12.640  12.983  15.842 -0.2150 -0.1914  0.0442
 1926W        W22206   1.980   8.070  11.985  0.0685  0.1527 -0.1714
 1927W        W22207  16.994   5.900  14.708  0.1228  0.0020 -0.1738
 1928W        W22208  12.050   7.818  14.054 -0.1402  0.1382  0.2851
 1929W        W22209   6.065  11.193  14.624 -0.0192 -0.2891  0.1737
 1930W        W22210  10.966   0.335   4.010 -0.1744 -0.0030 -0.1618
 1931W        W22211  14.102   0.625  13.724  0.1944  0.0280 -0.0999
 1932W        W22212  17.126   8.443   0.083  0.3371  0.3055 -0.0130
 1933W        W22213  11.560   9.664   0.480  0.0727 -0.2337  0.2798
 1934W        W22214   6.421  14.650   4.161 -0.2831 -0.3021  0.0139
 1935W        W22215   0.263   6.177  15.479  0.0248  0.3519  0.1361
 1936W        W22216   4.251  17.614   2.748  0.4160  0.3329  0.1077
 1937W        W22217   5.649   5.281   2.229 -0.2007  0.1137  0.2116
 1938W        W22218  11.129  15.944  12.451  0.5702 -0.0934  0.1754
 1939W        W22219   3.495   7.141  14.414 -0.1519  0.0217 -0.0983
 1940W        W22220  17.510   9.772   3.156 -0.0691 -0.2509 -0.3786
 1941W        W22221   6.771   0.247   2.451  0.2056  0.2024  0.1495
 1942W        W22222   0.982   8.851   4.051  0.0783  0.1191 -0.2223
 1943W        W22223  17.523  12.127  15.799  0.0915  0.0392  0.1094
 1944W        W22224   7.138  15.447  12.226  0.1957  0.3299 -0.2319
 1945W        W22225   9.359   3.573  12.085 -0.3449 -0.5902 -0.0335
 1946W        W22226  13.256  11.619   2.211 -0.3526  0.2914 -0.4222
 1947W        W22227   0.615  15.383  12.778 -0.2207  0.2158  0.2281
 1948W        W22228   6.718  12.741   3.713  0.1295 -0.0556 -0.0348
 1949W        W22229   4.461   7.612  13.769  0.2343  0.0067 -0.1984
 1950W        W22230  10.940  13.911   3.246 -0.2485 -0.1256  0.0970
 1951W        W22231  15.677   7.220   4.484 -0.0255  0.0149 -0.1699
 1952W        W22232  10.921  18.293  14.683 -0.0131  0.0480  0.0297
 1953W        W22233   5.376  10.466   2.691 -0.2362  0.1623 -0.0688
 1954W        W22234  11.110   9.369  12.892  0.0738 -0.0423 -0.1000
 1955W        W22235   6.436  16.024   3.647 -0.1797  0.0247  0.1345
 1956W        W22236   9.661  13.949  15.659 -0.2032  0.2746 -0.4498
 1957W        W22237   6.306  17.659   1.586 -0.0909  0.1402  0.1869
 1958W        W22238  13.245  13.639   0.127 -0.0883 -0.2510 -0.2040
 1959W        W22239   3.497  12.528  11.458 -0.0583 -0.2099  0.0367
 1960W        W22240   9.599   0.164  11.388 -0.1221 -0.2336  0.1419
 1961W        W22241   2.046  13.976   2.552 -0.2601 -0.1147 -0.2450
 1962W        W22242   7.019   4.352  11.608 -0.0681 -0.1313 -0.0749
 1963W        W22243  17.012   8.267  15.108  0.0979 -0.3016  0.1144
 1964W        W22244   8.948   6.891  14.450 -0.0022  0.0446 -0.0532
 1965W        W22245  16.146   0.397  15.587 -0.2440 -0.0634 -0.0386
 1966W        W22246  16.037   2.579   0.538 -0.1777 -0.0242 -0.0985
 1967W        W22247  11.649  15.162   4.380  0.1973  0.1170  0.1206
 1968W        W22248   7.464   9.949  14.120  0.1047 -0.0322  0.0316
 1969W        W22249  18.302   3.112   3.055 -0.0396  0.0430  0.1419
 1970W        W22250  13.699  14.028  12.374  0.0185 -0.0598  0.3775
 1971W        W22251   9.990   3.050   0.942  0.1437 -0.1301 -0.1860
 1972W        W22252   3.938   0.310  11.030  0.2611  0.0200  0.2334
 1973W        W22253   5.850   6.013  14.735 -0.0018 -0.0061  0.0855
 1974W        W22254   6.736   7.837   0.105  0.0046 -0.2316  0.0065
 1975W        W22255   4.373  10.904   1.782  0.1765  0.0560  0.3119
 1976W        W22256  12.688   8.026  11.313 -0.0896  0.0818  0.0071
 1977W        W22257   2.706   5.958   1.597  0.1073  0.4300  0.2912
 1978W        W22258   7.642   7.321  15.304  0.1777 -0.0821  0.1568
 1979W        W22259   5.989   1.149  11.413  0.0466  0.0357 -0.0975
 1980W        W22260   4.871  16.921  15.401 -0.0766 -0.0050 -0.0557
 1981W        W22261   4.583  13.616  14.319  0.1519  0.2460  0.0968
 1982W        W22262   1.206  14.643  15.163 -0.0773 -0.1746  0.1048
 1983W        W22263   8.817  14.284   0.991  0.1382  0.0241  0.0332
 1984W        W22264   8.030  17.746   1.519 -0.1442  0.1222 -0.0801
 1985W        W22265   3.170  17.923   2.114  0.0950 -0.0173  0.1409
 1986W        W22266   0.690   2.507   4.768  0.0491 -0.2085 -0.2115
 1987W        W22267  12.709  14.073  12.092 -0.2349  0.0773 -0.4109
 1988W        W22268   8.020  13.329   3.557 -0.2551 -0.0899 -0.0737
 1989W        W22269  11.687   8.913  13.392 -0.0142 -0.0468  0.0758
 1990W        W22270   7.338   5.438   1.846 -0.1337  0.0473 -0.1463
 1991W        W22271   6.174   1.574  12.386 -0.0789  0.4674  0.0265
 1992W        W22272  14.818  11.553   4.313  0.0028 -0.3126  0.0997
 1993W        W22273   7.424   5.353  12.856  0.1924 -0.0943  0.2137
 1994W        W22274   7.832  17.324  11.427  0.1044  0.0622  0.0165
 1995W        W22275   8.490  12.179   3.847  0.0368 -0.0767  0.2325
 1996W        W22276   1.936  12.466   2.261 -0.0801 -0.0827  0.0061
 1997W        W22277  16.174  10.058   4.165 -0.1523  0.0947 -0.1608
 1998W        W22278  15.690   9.984  11.715 -0.0939 -0.1171  0.2288
 1999W        W22279   6.795   6.070   2.802 -0.1224 -0.0364 -0.0993
 2000W        W22280   6.747   3.677   4.346 -0.0219 -0.2261 -0.0349
 2001W        W22281  14.585   6.876  11.782 -0.2239  0.0614  0.2304
 2002W        W22282   5.899  15.135  14.716  0.0288 -0.1502 -0.0559
 2003W        W22283  11.045  14.644  13.115  0.0841 -0.1231  0.0201
 2004W        W22284   9.923   2.799  14.021 -0.3374 -0.1167 -0.1362
 2005W        W22285  10.706   8.207   3.814  0.0464  0.0351 -0.0266
 2006W        W22286  14.352   8.971   3.026  0.2394 -0.1484 -0.2684
 2007W        W22287   3.457   5.573   1.285 -0.1049 -0.0258 -0.1716
 2008W        W22288   3.787   0.387   3.538  0.0233  0.1048  0.3146
 2009W        W22289   1.514   9.864   1.215  0.1862  0.0136  0.3036
 2010W        W22290   1.228   0.455  12.860  0.0147  0.0516 -0.1978
 2011W        W22291  13.992   1.768   1.808 -0.3491 -0.0029 -0.1485
 2012W        W22292   3.959   9.231  13.649  0.3149 -0.2591 -0.1598
 2013W        W22293  16.541  12.866   4.173  0.0689 -0.0680  0.1950
 2014W        W22294   4.616  12.646  13.042 -0.1577  0.3985  0.0031
 2015W        W22295   0.869   5.585   2.740 -0.1277  0.1594  0.1763
 2016W        W22296   1.665   5.929   1.712 -0.0644  0.0263 -0.0788
 2017W        W22297   6.743   6.746   2.361  0.1115  0.0755 -0.1939
 2018W        W22298   9.226   0.427  15.466  0.0650 -0.1425  0.0151
 2019W        W22299   0.525   6.787  11.968 -0.1626 -0.0176  0.1604
 2020W        W22300  17.378   0.776  15.790 -0.1327 -0.1315 -0.2874
 2021W        W22301   4.226  14.316   3.342  0.0838 -0.0153  0.2037
 2022W        W22302  13.377  10.532   0.351 -0.2043  0.1920  0.3641
 2023W        W22303   6.546  12.552  11.457 -0.0693 -0.3110 -0.1933
 2024W        W22304   8.306   7.043   3.047  0.1359 -0.3824 -0.3599
 2025W        W22305   7.207   7.574   3.884 -0.1856  0.1917  0.1538
 2026W        W22306   1.358   8.318   2.957  0.0122 -0.2418  0.1622
 2027W        W22307  17.692   0.126   4.432 -0.1001  0.0695 -0.0994
 2028W        W22308   5.698  11.473   4.709 -0.0121 -0.2590 -0.0436
 2029W        W22309   2.046  12.271  12.137  0.0860 -0.0251 -0.3164
 2030W        W22310  13.450  10.914  15.687  0.1061  0.0737  0.2911
 2031W        W22311  12.398   9.384   3.763  0.0461  0.0314  0.3883
 2032W        W22312   2.410   5.772   3.040  0.2139 -0.0307  0.3029
 2033W        W22313   3.261  14.347  14.089  0.1584  0.4010 -0.1432
 2034W        W22314  15.943   2.690  11.199  0.1961 -0.1671  0.0103
 2035W        W22315   3.161   8.432  15.583  0.3429 -0.2045 -0.1758
 2036W        W22316   1.956   9.168   5.014  0.1362 -0.2438 -0.3666
 2037W        W22317   0.672  18.069  14.645  0.1888 -0.1099 -0.1191
 2038W        W22318   2.039   6.460  12.674 -0.1483 -0.1340 -0.0462
 2039W        W22319   6.180   6.934   2.998  0.1693 -0.0346  0.1309
 2040W        W22320  10.574  12.423   4.413  0.1529  0.0355 -0.0302
 2041W        W22321  14.705  15.761   0.073  0.0303 -0.2758 -0.2151
 2042W        W22322   8.017  13.233  11.304 -0.2149  0.3888 -0.1216
 2043W        W22323  11.236  16.867   0.153  0.0220 -0.2869 -0.2698
 2044W        W22324  11.228   3.124   0.982 -0.0344  0.0643  0.1473
 2045W        W22325   7.434   1.066   1.924  0.0477 -0.1927  0.2190
 2046W        W22326  10.328   6.752   0.990  0.1180  0.0269 -0.1889
 2047W        W22327  13.311  11.361   1.556  0.0665 -0.0728 -0.1113
 2048W        W22328  17.436   2.471   2.648 -0.1672 -0.1696  0.0863
 2049W        W22329   2.920  10.130  15.611  0.1821  0.3958 -0.0640
 2050W        W22330   9.222  12.713   3.233 -0.0695 -0.1291 -0.2718
 2051W        W22331   5.117   0.935  11.357  0.0325 -0.0633 -0.2207
 2052W        W22332   5.862  14.067   2.062 -0.1120 -0.0358  0.0251
 2053W        W22333   5.826   1.452   2.227  0.1855 -0.0336 -0.1142
 2054W        W22334  11.636   8.254   2.357  0.0497 -0.0931 -0.0619
 2055W        W22335  13.118  12.071   1.949  0.0537 -0.0290 -0.0535
 2056W        W22336  12.739   2.496  15.693 -0.0594 -0.2076  0.0114
 2057W        W22337  12.005   6.692   2.134  0.3145  0.1022 -0.0534
 2058W        W22338  17.228  13.060   0.317 -0.0419  0.0222  0.0121
 2059W        W22339   6.012   4.453  14.294  0.0956 -0.0977 -0.1046
 2060W        W22340  12.888  10.468   4.817  0.0536 -0.0974  0.1478
 2061W        W22341   3.606  10.781  15.069 -0.3391 -0.1248 -0.1335
 2062W        W22342  13.686  15.895  11.904 -0.1398 -0.1018  0.0525
 2063W        W22343   0.251   5.762   4.576  0.1414 -0.0775  0.1040
 2064W        W22344  12.635   6.408  10.992 -0.0881 -0.0815  0.0675
 2065W        W22345  10.176   3.667  14.428  0.0765  0.0093  0.0885
 2066W        W22346   5.021  17.164  14.957 -0.1413  0.0049  0.2438
 2067W        W22347  17.657   0.386   2.714  0.2453  0.1260 -0.1457
 2068W        W22348  15.299   6.175  14.412 -0.1060 -0.2222  0.0072
 2069W        W22349   9.543  10.136  11.665  0.1936  0.0448  0.3071
 2070W        W22350  17.357  12.892   3.555  0.0336  0.0389  0.0039
 2071W        W22351   6.131   1.369  14.770 -0.1800 -0.0859 -0.3868
 2072W        W22352   7.586   8.258   1.079  0.2957 -0.2050  0.2857
 2073W        W22353  17.015  16.982  13.211  0.1409  0.1336 -0.3660
 2074W        W22354   4.783  17.711   2.711  0.2983 -0.1258  0.0930
 2075W        W22355  17.424   8.500   1.401  0.1147  0.4814 -0.1026
 2076W        W22356   7.843   7.532   4.364  0.0074  0.0210  0.1782
 2077W        W22357  13.721  10.540  12.561 -0.0107 -0.2483 -0.0136
 2078W        W22358   0.902  13.298  14.897 -0.0139 -0.2576  0.0942
 2079W        W22359  14.536  11.876   2.603 -0.2830 -0.2566 -0.1254
 2080W        W22360   1.515   6.811   2.707 -0.0754  0.0017 -0.0739
 2081W        W22361   3.753   1.275   0.859 -0.0792 -0.0942 -0.4030
 2082W        W22362   2.720   5.267  13.282  0.0172  0.0963  0.0096
 2083W        W22363  16.760  17.132   4.467  0.0641  0.0121  0.4460
 2084W        W22364   1.536  14.677  13.606 -0.1116  0.2659 -0.1809
 2085W        W22365   3.942  10.735  12.905  0.0976  0.1021 -0.0998
 2086W        W22366   8.082  13.494  15.441 -0.0469 -0.2186 -0.1054
 2087W        W22367  16.250  12.940  12.803 -0.0152 -0.0059 -0.0847
 2088W        W22368  16.779   7.049   0.222  0.1932  0.0023 -0.0758
 2089W        W22369   4.908   1.739  11.528  0.1126  0.3508  0.0531
 2090W        W22370   0.155  13.469   1.280 -0.1867  0.1063  0.1792
 2091W        W22371  13.106  15.196   1.689 -0.0359 -0.4840  0.2137
 2092W        W22372   4.835  12.262  14.455  0.1596  0.2409 -0.0663
 2093W        W22373  15.364  11.991   1.289 -0.0578  0.1391  0.2501
 2094W        W22374   4.291   2.725  15.522 -0.2730 -0.0129  0.0064
 2095W        W22375   3.427   3.604  13.685  0.0471  0.0614 -0.0300
 2096W        W22376   1.125  11.582  13.486  0.3598  0.0252  0.0906
 2097W        W22377  12.164   2.856  11.663 -0.0581 -0.1097  0.3048
 2098W        W22378   4.812   0.125  15.871  0.0447 -0.0894 -0.2040
 2099W        W22379   0.385   7.715  15.108  0.1779  0.0385  0.3222
 2100W        W22380   8.188  13.865  14.351 -0.1122 -0.1029  0.0461
 2101W        W22381   7.823   8.174  13.499  0.1465 -0.0347 -0.0354
 2102W        W22382  18.285   6.415   4.471  0.0902 -0.0665  0.2317
 2103W        W22383   2.925  15.735  14.145 -0.2119 -0.0268 -0.0403
 2104W        W22384  12.300   0.423  13.466 -0.0260 -0.1700 -0.1832
 2105W        W22385   4.074   3.556  15.174  0.0473  0.1625  0.0684
 2106W        W22386   4.032   9.410   0.188  0.2365  0.0755  0.3881
 2107W        W22387  11.426   6.286  12.124 -0.0703 -0.2058 -0.0521
 2108W        W22388   2.465   8.686   4.353 -0.0871  0.3051 -0.1425
 2109W        W22389  11.135  17.821   1.821  0.3941  0.0036 -0.0856
 2110W        W22390  10.048   4.996  13.479 -0.0051  0.0988  0.0738
 2111W        W22391   7.684  13.355   2.169  0.1971  0.2577  0.1164
 2112W        W22392   9.991   1.367  12.759  0.2176  0.2463  0.0465
 2113W        W22393  17.828   4.006   4.358  0.0591 -0.1231  0.2185
 2114W        W22394   6.158   8.615  14.027  0.2204  0.0581  0.2440
 2115W        W22395   8.379  15.693   1.234 -0.0899  0.1292  0.1651
 2116W        W22396  10.633   5.945  13.814 -0.0934  0.1804  0.0492
 2117W        W22397   7.512   3.732  14.204  0.3650 -0.0502  0.0251
 2118W        W22398   0.047   7.113   1.741 -0.3552  0.2272  0.1374
 2119W        W22399  18.211  14.260   0.935  0.0558  0.2862 -0.0871
 2120W        W22400   3.001   4.515  15.378 -0.1428  0.0662  0.1361
 2121W        W22401  16.132  14.597   2.013  0.5361  0.3801 -0.1806
 2122W        W22402  12.976   9.918  12.221 -0.4079  0.1197  0.1654
 2123W        W22403  10.747   2.974  12.731 -0.1955 -0.1383 -0.2103
 2124W        W22404   9.568   4.501  14.208 -0.1056 -0.0014  0.0422
 2125W        W22405  15.186  17.204   1.427  0.2314  0.1287 -0.0652
 2126W        W22406   0.810   2.334  14.067  0.2119  0.0252  0.1283
 2127W        W22407  14.536  13.511  15.240  0.4994  0.1121  0.1385
 2128W        W22408  16.236   6.960   0.106 -0.0836 -0.0070  0.0341
 2129W        W22409  15.273   4.027   2.877 -0.2597 -0.1652 -0.0189
 2130W        W22410  17.797  17.865  15.220  0.1259  0.0804 -0.0430
 2131W        W22411  10.484  15.404   0.700  0.0531 -0.1643  0.1473
 2132W        W22412   9.057  12.609   1.039  0.0737 -0.0309  0.2929
 2133W        W22413   0.520  17.281   2.818  0.2231  0.1254  0.1478
 2134W        W22414  12.402   4.803   2.664 -0.0040 -0.0120 -0.2244
 2135W        W22415  16.564  10.450  14.151  0.2512  0.0489 -0.0055
 2136W        W22416   3.271   5.442  14.818  0.2979 -0.0879 -0.2710
 2137W        W22417  13.685  11.415  15.575 -0.2018 -0.0140  0.2383
 2138W        W22418  15.983  14.028  12.416 -0.1581 -0.0304 -0.1612
 2139W        W22419  11.871   8.701  12.945  0.1073  0.1688 -0.0491
 2140W        W22420   1.339   7.207   4.618 -0.2214  0.1464 -0.1363
 2141W        W22421  10.835   8.346   2.392  0.3583  0.1135 -0.1337
 2142W        W22422  18.154  16.762   1.220  0.2339 -0.0435  0.1118
 2143W        W22423   9.503   0.048  12.629 -0.1595 -0.1639  0.2333
 2144W        W22424   1.534  11.018   2.675 -0.1007 -0.2023  0.1618
 2145W        W22425   8.557   3.000   2.404  0.0425  0.1105 -0.0071
 2146W        W22426   1.929   3.136   1.440 -0.0335  0.0928  0.0964
 2147W        W22427  16.773   8.726   3.253 -0.1699  0.1042  0.1059
 2148W        W22428  11.697   8.924   0.725  0.0292  0.1540 -0.1628
 2149W        W22429  15.714   2.253  12.088 -0.0239 -0.2337 -0.0532
 2150W        W22430   6.760   2.915  13.220 -0.1360 -0.2542 -0.2323
 2151W        W22431  17.688   0.739   0.273 -0.1827 -0.3119  0.0621
 2152W        W22432   6.151   5.187   0.097 -0.0515  0.0540 -0.0075
 2153W        W22433   1.124   3.234   2.658  0.0749  0.0925  0.0429
 2154W        W22434   6.595  17.076  13.844 -0.1445 -0.1416 -0.0762
 2155W        W22435   8.188  16.975  15.676 -0.2084  0.1408  0.1801
 2156W        W22436   4.294   4.195  11.320 -0.0962  0.1385 -0.3261
 2157W        W22437  14.374   4.730  12.523  0.0312  0.1591 -0.3201
 2158W        W22438   9.704  12.278  15.093 -0.0852 -0.1777  0.1141
 2159W        W22439  15.696  15.927  13.796  0.0928 -0.1135  0.0416
 2160W        W22440   3.836  18.321   2.105  0.0625 -0.1676 -0.0050
 2161W        W22441  12.970  10.932  12.102  0.1075 -0.1527  0.2608
 2162W        W22442   2.983  11.028  15.879  0.1341 -0.0619 -0.2261
 2163W        W22443   8.630  16.509   1.865 -0.2958  0.1314 -0.0309
 2164W        W22444   9.450   3.606  13.001  0.0073 -0.1391 -0.1261
 2165W        W22445   7.031  11.774  12.304  0.0738  0.0078 -0.1948
 2166W        W22446   7.186   2.983  13.589  0.0335  0.0769 -0.1138
 2167W        W22447   9.475   2.036   1.879 -0.0965  0.2015 -0.0775
 2168W        W22448   7.889   8.647   3.419  0.4464 -0.2499 -0.0735
 2169W        W22449   4.019  14.687   5.333 -0.2542  0.0919 -0.1399
 2170W        W22450   0.064   4.113  13.678 -0.0536 -0.0990 -0.2692
 2171W        W22451   9.063   0.184  13.433  0.2952  0.1956 -0.1416
 2172W        W22452   3.265  17.390  13.289  0.1381  0.4395 -0.3461
 2173W        W22453  16.437   5.329   1.350  0.0538  0.1400 -0.2024
 2174W        W22454   1.309  11.841   1.873 -0.0349 -0.0841 -0.1808
 2175W        W22455   4.189  11.178   4.185 -0.0914  0.1503  0.0676
 2176W        W22456   6.418  14.810  13.274 -0.0245 -0.2389 -0.0891
 2177W        W22457  14.880   3.608  10.942 -0.0201 -0.0845  0.3483
 2178W        W22458   5.608  12.407   0.215  0.0939  0.1158  0.2701
 2179W        W22459  12.317  11.595  15.708 -0.0013  0.0452  0.0130
 2180W        W22460  17.587   1.257   5.473  0.0917  0.0939  0.0837
 2181W        W22461   7.927   8.391   2.978  0.2474 -0.0011 -0.2333
 2182W        W22462   9.527  11.154   2.571  0.0196 -0.1335 -0.1968
 2183W        W22463  13.787  18.017   1.795 -0.5305  0.1010 -0.1605
 2184W        W22464   1.400   5.671  14.374 -0.1795  0.1530  0.3575
 2185W        W22465  17.026   3.634   2.299  0.0045 -0.0373 -0.1613
 2186W        W22466  12.563   1.413  15.532 -0.1020  0.3526  0.2638
 2187W        W22467  11.912   9.540  11.924 -0.1630  0.3264 -0.2388
 2188W        W22468   7.207  14.963  11.611  0.1326 -0.1692  0.0680
 2189W        W22469   6.293   8.456  15.015  0.2894  0.1537 -0.1381
 2190W        W22470   2.831  15.313   4.141 -0.0802 -0.1054 -0.1641
 2191W        W22471  11.321  15.253  13.014  0.2330  0.2224  0.0705
 2192W        W22472  10.580   7.448  12.329 -0.1082  0.0269 -0.0278
 2193W        W22473  15.099   2.680  15.333  0.1504 -0.1124 -0.2290
 2194W        W22474   8.022  11.935  12.325 -0.0757 -0.0742 -0.2711
 2195W        W22475  15.334   8.086   2.038 -0.1322  0.0045  0.1696
 2196W        W22476   2.289   1.302  11.567 -0.0837  0.1997 -0.0240
 2197W        W22477  16.333   4.362   2.032 -0.2698 -0.0675 -0.4159
 2198W        W22478  11.498  13.259  12.884  0.1773  0.1388  0.1182
 2199W        W22479   3.760   1.085  15.629 -0.1196 -0.1419 -0.3292
 2200W        W22480  16.060  14.715  14.623  0.0445  0.0820 -0.0685
 2201W        W22481  16.760  15.079  14.873  0.3602 -0.0819 -0.3142
 2202W        W22482  12.648   3.284  12.735 -0.0234 -0.0314  0.0820
 2203W        W22483  12.978   0.283   0.915 -0.2502  0.0449  0.0689
 2204W        W22484   4.545   6.095  12.849  0.1194  0.0002  0.0713
 2205W        W22485  12.093   2.545  13.375  0.1213  0.2876 -0.1125
 2206W        W22486   7.686  16.905  15.707 -0.1486  0.0101  0.2556
 2207W        W22487  15.049  13.371   0.585 -0.3267 -0.2167 -0.2868
 2208W        W22488   4.088   5.661   3.045  0.1171  0.0560 -0.1650
 2209W        W22489   9.342   1.222  13.677 -0.1956  0.0069 -0.2837
 2210W        W22490   7.251  10.664   5.869  0.1832 -0.0152  0.0237
 2211W        W22491   2.028   9.138   5.521  0.0581 -0.0231 -0.1831
 2212W        W22492   5.297  12.976   2.749 -0.2330 -0.0581  0.0218
 2213W        W22493   0.540   9.568   2.696 -0.2673 -0.2129 -0.0633
 2214W        W22494   9.456  13.929  13.901  0.0523  0.0863 -0.0232
 2215W        W22495   9.319   0.726   2.455  0.1812  0.0754  0.2328
 2216W        W22496  17.120  15.677  12.836 -0.1460  0.5258  0.0530
 2217W        W22497   5.372  17.871   1.419  0.3530 -0.2501 -0.4813
 2218W        W22498  10.606  12.064  11.936 -0.3124 -0.0569  0.5979
 2219W        W22499   7.507  15.212  11.198  0.0331  0.0292 -0.0981
 2220W        W22500   5.995   2.817   1.017  0.2324  0.3030  0.6028
 2221W        W22501  10.936   8.156   1.039 -0.2933 -0.0460 -0.0225
 2222W        W22502  16.727   2.125   2.003 -0.3271  0.4116  0.0783
 2223W        W22503  17.095  14.570  15.078  0.2689 -0.1254  0.2044
 2224W        W22504  11.758   8.166  11.860  0.3486  0.4058 -0.1175
 2225W        W22505  17.697  15.338   0.086 -0.1402 -0.3058  0.0540
 2226W        W22506  13.555  12.933   2.134  0.1548  0.1705  0.1251
 2227W        W22507   1.199  12.090   0.970 -0.0422  0.3023 -0.0348
 2228W        W22508  17.917  10.005   2.970  0.2219 -0.0170  0.1247
 2229W        W22509  14.972   7.187   2.709 -0.0298  0.1629 -0.2599
 2230W        W22510   7.921   3.735   2.993  0.0730  0.1679  0.0671
 2231W        W22511  17.933  12.134  15.025  0.0650  0.0066  0.2261
 2232W        W22512  12.064  11.953  15.380 -0.1048  0.2083 -0.0067
 2233W        W22513  10.523  15.621  15.623 -0.1073 -0.0960 -0.1918
 2234W        W22514   7.115  12.685   0.415 -0.2516  0.3614 -0.0918
 2235W        W22515   5.911   6.582  12.382  0.1224  0.0920  0.0304
 2236W        W22516   6.298   3.826   4.379 -0.0451  0.0586  0.4320
 2237W        W22517   9.100   3.059  13.941 -0.3457  0.3601  0.0652
 2238W        W22518   0.420  14.027  12.621 -0.2225 -0.1702  0.1707
 2239W        W22519   5.981   9.015  14.301 -0.0773  0.0091 -0.1469
 2240W        W22520  11.139  12.329   0.542  0.2800  0.0768 -0.2346
 2241W        W22521  10.059   9.737  14.798 -0.0603 -0.2203 -0.0160
 2242W        W22522  12.677   8.876  15.894 -0.0611 -0.0345 -0.1551
 2243W        W22523   0.469  12.606  14.144  0.0663  0.0211 -0.0806
 2244W        W22524   9.079   9.736   0.442  0.1431  0.1231 -0.2091
 2245W        W22525   0.328  10.746  12.960 -0.2499  0.2653 -0.0721
 2246W        W22526  13.210  16.965   0.829 -0.0188 -0.2687 -0.2301
 2247W        W22527   2.428  15.112   1.466 -0.0655  0.0430 -0.2465
 2248W        W22528   5.492   4.785   2.739 -0.1248  0.0875  0.3716
 2249W        W22529  17.974   4.466   0.241 -0.0556  0.0921 -0.1471
 2250W        W22530  13.511  18.287   2.164 -0.0072  0.2870 -0.0925
 2251W        W22531   9.090  15.164  14.409  0.2648 -0.3537 -0.0787
 2252W        W22532   6.728  13.904   3.176 -0.2661  0.1719  0.1591
 2253W        W22533  14.581   6.851   1.524 -0.2785 -0.2261 -0.2443
 2254W        W22534   2.487   2.794   2.114  0.0471 -0.0944 -0.1067
 2255W        W22535  16.525  13.669  15.453 -0.0196 -0.1401  0.1372
 2256W        W22536   1.680   2.550   3.249 -0.2892 -0.0962  0.1187
 2257W        W22537  11.865   9.229   2.481  0.1282  0.1182 -0.1079
 2258W        W22538  13.519  10.033   1.074 -0.2314 -0.1539  0.2374
 2259W        W22539  14.824   0.725  13.209 -0.0447  0.3846  0.0780
 2260W        W22540  12.037  10.086  11.881  0.1814  0.1778 -0.1901
 2261W        W22541   7.995  12.596   1.165 -0.0871  0.1092  0.1603
 2262W        W22542  16.709   2.332  11.670 -0.1598 -0.0479 -0.0069
 2263W        W22543  12.989  14.308  12.925 -0.0835 -0.3561  0.1449
 2264W        W22544   0.034   2.048   4.001 -0.3046  0.2555 -0.0509
 2265W        W22545   6.827   2.787   0.569 -0.0357 -0.1617  0.0355
 2266W        W22546  11.150   4.229   3.176 -0.1617  0.2765  0.0175
 2267W        W22547   3.195   0.505  14.301  0.1075 -0.0909 -0.0240
 2268W        W22548  11.359  12.506  13.505  0.0631  0.3519  0.4661
 2269W        W22549  11.837   3.589   0.443 -0.3993 -0.1032 -0.0962
 2270W        W22550  14.378   5.730  15.823 -0.1996 -0.0865  0.4588
 2271W        W22551   3.157  11.502   1.207  0.0332 -0.0659 -0.0801
 2272W        W22552   4.625  10.913   2.759 -0.6200  0.0991  0.1556
 2273W        W22553   3.120   9.122  13.049 -0.1580 -0.3581 -0.0594
 2274W        W22554  17.429   7.505  14.698  0.3033 -0.0192 -0.1197
 2275W        W22555   2.403   5.157   0.011 -0.1793 -0.1087 -0.0750
 2276W        W22556   1.637   8.818   0.897  0.0285  0.0340 -0.1359
 2277W        W22557  16.663   6.242  15.727 -0.0976  0.1523 -0.5143
 2278W        W22558  13.946  17.836   0.536 -0.0136 -0.0885  0.0115
 2279W        W22559   0.676   6.341  12.199 -0.1063 -0.0366  0.3682
 2280W        W22560  11.558  13.414  14.775  0.0272  0.4713  0.2024
 2281W        W22561   0.271   0.803   1.824  0.1302  0.0844  0.3883
 2282W        W22562   5.713   7.721  13.672  0.2836  0.0116  0.0584
 2283W        W22563   9.190   0.547  13.758  0.1085  0.3955 -0.1239
 2284W        W22564  11.866   9.328   1.412  0.0470  0.0763 -0.1194
 2285W        W22565  12.952   7.843   4.634 -0.0954 -0.0382  0.2578
 2286W        W22566   8.104   7.464  11.095 -0.2942 -0.1255  0.1743
 2287W        W22567  13.981  13.610   3.446  0.1561 -0.0424  0.3571
 2288W        W22568  13.579  14.421  14.765 -0.0183  0.1175  0.2638
 2289W        W22569  11.213  11.137   1.186  0.3359 -0.0387  0.0804
 2290W        W22570  11.574  15.651   4.491  0.0931  0.0689  0.0983
 2291W        W22571   4.939   3.648  15.680 -0.0034  0.0265  0.0470
 2292W        W22572   5.281   6.239   0.031 -0.1263 -0.0797 -0.2167
 2293W        W22573  10.846   5.154  14.170 -0.1654 -0.0230 -0.0332
 2294W        W22574  13.206   7.586   2.575 -0.0968  0.3142 -0.2162
 2295W        W22575   8.329  17.425   3.356  0.0127  0.0676  0.0762
 2296W        W22576  14.697   9.860  13.332 -0.3172  0.0930  0.0766
 2297W        W22577  12.468   6.650   4.007  0.1018 -0.1107 -0.1394
 2298W        W22578   1.518  11.254   0.159  0.0184 -0.1132 -0.3504
 2299W        W22579   7.561  11.634  12.464  0.0257 -0.0945 -0.2628
 2300W        W22580  16.441  11.731  12.671  0.3365 -0.3447 -0.2686
 2301W        W22581  16.346  11.803   2.368  0.0365 -0.1071 -0.3108
 2302W        W22582  16.195   5.920  13.030 -0.0639  0.0598  0.0143
 2303W        W22583  10.714   9.915  13.864 -0.2743 -0.1115 -0.1158
 2304W        W22584   4.882   3.803  13.746  0.2086 -0.1738 -0.1011
 2305W        W22585  12.862   0.165   2.306  0.0025  0.0915 -0.2075
 2306W        W22586  15.728   0.745  13.377  0.2491  0.2741  0.0234
 2307W        W22587   3.425  12.548   4.779  0.1922 -0.1414  0.2074
 2308W        W22588   4.503   4.460  14.284 -0.0634  0.2787 -0.0081
 2309W        W22589  14.113   5.782  15.358 -0.1604  0.1036  0.0011
 2310W        W22590   8.848  13.796   2.485 -0.0289 -0.1448 -0.1499
 2311W        W22591  15.577  17.333  12.249 -0.1054 -0.3268  0.0672
 2312W        W22592   5.205   3.316   1.700 -0.2912  0.1581  0.1341
 2313W        W22593   2.890   7.853  15.394 -0.2693  0.0062  0.4523
 2314W        W22594   2.947   9.177  13.540  0.1258 -0.1100 -0.1768
 2315W        W22595  12.365  15.898  14.019  0.2913  0.0027  0.1403
 2316W        W22596   0.543  15.446   3.174 -0.0001 -0.0388 -0.2844
 2317W        W22597   6.971   0.206  13.070  0.0808 -0.0572 -0.1154
 2318W        W22598   9.638  17.036   1.548  0.2494 -0.0844  0.2919
 2319W        W22599   5.413   4.870   3.584 -0.0221 -0.0419  0.1246
 2320W        W22600   8.933  16.052   2.173  0.0873 -0.0189  0.2722
 2321W        W22601  14.618  18.192  13.800  0.1575  0.0608  0.0783
 2322W        W22602   0.543   2.321   2.079  0.2294 -0.1961  0.0369
 2323W        W22603  11.421  17.952  15.044  0.0880 -0.1361  0.1110
 2324W        W22604  16.100  14.208  14.807 -0.0383  0.1927 -0.4074
 2325W        W22605  10.657  10.854  15.033  0.0858  0.1075  0.1721
 2326W        W22606  15.061   8.199   3.650  0.1612 -0.0370  0.1867
 2327W        W22607   0.785  17.406   2.370 -0.0355  0.0527 -0.0959
 2328W        W22608  17.622   4.649  14.224  0.0441  0.2458 -0.1116
 2329W        W22609   8.809   7.149  12.213 -0.0066  0.3599  0.0915
 2330W        W22610  14.837   1.014   4.290 -0.1071 -0.2344 -0.5817
 2331W        W22611   0.386   3.617   2.212 -0.1472 -0.0372 -0.0558
 2332W        W22612  16.806   9.038  13.581  0.0046  0.4119  0.0731
 2333W        W22613   3.233   0.757   0.175  0.1851  0.0611  0.1604
 2334W        W22614   4.364   7.452  11.430 -0.3488 -0.3095  0.0385
 2335W        W22615   7.149   4.324   1.473 -0.1490 -0.0741  0.0024
 2336W        W22616   2.270  18.115  11.831 -0.0592 -0.0736 -0.0737
 2337W        W22617   9.031   6.011   3.876 -0.1509 -0.0509 -0.2397
 2338W        W22618  14.953  16.265  12.767 -0.0843 -0.0397 -0.0351
 2339W        W22619  10.835   8.351  14.380 -0.1129 -0.2333 -0.2357
 2340W        W22620   1.790  14.282   1.317  0.2564 -0.2702 -0.0737
 2341W        W22621   3.801   8.661  12.845 -0.0286 -0.0676 -0.0836
 2342W        W22622  11.932   1.211  13.132  0.1572 -0.5200 -0.0906
 2343W        W22623  17.927   0.123  14.343  0.0161 -0.0812  0.2143
 2344W        W22624   7.378   5.659   0.389 -0.0090  0.0913 -0.2776
 2345W        W22625   0.642   2.152   1.003 -0.0599  0.3739 -0.1236
 2346W        W22626  13.778  16.920  14.268 -0.2832  0.0384  0.0492
 2347W        W22627   0.660  16.551  12.885 -0.0129 -0.2204 -0.3662
 2348W        W22628   7.927   2.961  13.122 -0.1453  0.0731 -0.1068
 2349W        W22629  10.638  12.234   0.603 -0.3849  0.0469  0.1868
 2350W        W22630   7.795   9.344   1.823  0.1279 -0.0239  0.0973
 2351W        W22631   4.709  16.458  13.902  0.0238 -0.1822  0.0092
 2352W        W22632   7.278   9.822  11.675 -0.4622  0.0425 -0.2003
 2353W        W22633   8.000   5.711  14.659  0.0297 -0.0788 -0.0967
 2354W        W22634  15.100  17.202  11.946 -0.0959 -0.1326  0.0471
 2355W        W22635   5.399   4.057  14.858  0.0441 -0.1139  0.0755
 2356W        W22636  16.437  13.145   0.351  0.2248 -0.0880 -0.0524
 2357W        W22637   6.564   6.492   0.172 -0.1254 -0.1861 -0.0694
 2358W        W22638   8.591  12.472   1.372 -0.1201  0.0288  0.2268
 2359W        W22639   7.068   6.903  14.061  0.0652  0.0685 -0.1560
 2360W        W22640  17.069   6.867   1.661  0.0565 -0.2229 -0.0433
 2361W        W22641   7.331  13.539  15.657  0.2245 -0.0113  0.0737
 2362W        W22642   1.322   4.651   2.310 -0.0377  0.2818  0.3071
 2363W        W22643   4.784  13.932  14.615 -0.1741  0.1355 -0.0056
 2364W        W22644   8.073   2.854   4.006 -0.0763  0.0192 -0.4631
 2365W        W22645  11.481   8.402  13.231  0.0834  0.0358  0.2162
 2366W        W22646  13.045  16.472  11.687 -0.0258 -0.2531  0.2330
 2367W        W22647   8.753   5.699  12.890 -0.1395 -0.0611  0.1572
 2368W        W22648   2.601  17.266   1.242  0.0132  0.4424 -0.3381
 2369W        W22649  15.173   6.591   1.446 -0.3290 -0.2440  0.0819
 2370W        W22650  12.019   2.386   3.247 -0.2486  0.0770 -0.0300
 2371W        W22651   5.551   0.700   1.788  0.2429  0.0616  0.0620
 2372W        W22652  14.607  14.986  12.994 -0.1031  0.0629  0.1109
 2373W        W22653   8.929   9.177   4.407 -0.2296 -0.1074  0.1245
 2374W        W22654  11.182   4.036   1.025  0.0224 -0.0082  0.3056
 2375W        W22655  11.025  15.472   3.224 -0.1465 -0.0085  0.1523
 2376W        W22656   3.312   3.633  12.096  0.0080  0.3158 -0.0974
 2377W        W22657   4.856   4.697  11.996 -0.0093  0.0846  0.0750
 2378W        W22658   5.210   2.134  11.407 -0.0883  0.0536  0.0721
 2379W        W22659  11.292   6.681   1.115 -0.1924 -0.0350 -0.0923
 2380W        W22660  16.458   7.444   0.546  0.0712  0.2126 -0.1203
 2381W        W22661  17.080   0.585   3.411 -0.0121  0.0506  0.2787
 2382W        W22662  10.818  12.539  14.431 -0.0981 -0.0832  0.0809
 2383W        W22663   6.070   0.178   1.314 -0.0092 -0.4802 -0.1251
 2384W        W22664   5.882   6.428   0.738  0.2400 -0.0585  0.0970
 2385W        W22665   7.736   5.777   1.928  0.2415  0.1433  0.0712
 2386W        W22666   7.304  17.855   2.659 -0.2430  0.1895  0.0224
 2387W        W22667   5.824   4.368   0.304 -0.0237 -0.0880  0.0333
 2388W        W22668   9.851   3.373   3.904 -0.1509 -0.3640 -0.1400
 2389W        W22669  15.453   9.320  12.447  0.1114  0.1175  0.0301
 2390W        W22670  13.763  14.388   3.413  0.1116  0.0116  0.3404
 2391W        W22671   5.004   6.666   2.484 -0.1056 -0.1233 -0.1936
 2392W        W22672  12.838  13.051   4.647  0.0855  0.0270  0.0909
 2393W        W22673   5.968  12.484   3.198  0.2097  0.1158  0.0812
 2394W        W22674  12.482  18.078   2.609 -0.0625  0.2327 -0.3651
 2395W        W22675  15.989  16.007   0.453 -0.0208 -0.1220  0.0076
 2396W        W22676  13.176   9.125   2.129 -0.0805 -0.1339  0.1735
 2397W        W22677   9.953  12.466   2.147  0.3117 -0.0073  0.2068
 2398W        W22678  17.304   0.874  13.143  0.0143  0.0686  0.1036
 2399W        W22679  18.076   2.715   5.240 -0.0411  0.2245 -0.3144
 2400W        W22680  17.057  12.662  12.495 -0.0138 -0.1912 -0.0596
 2401W        W22681   4.957  16.689  12.938  0.2906 -0.0265  0.2613
 2402W        W22682   3.478   9.317   4.514  0.0146 -0.2566 -0.1235
 2403W        W22683  13.991  17.930  15.939  0.2844 -0.1278 -0.2115
 2404W        W22684  14.952   5.007  14.587 -0.0517  0.0862 -0.0038
 2405W        W22685  10.373   3.073  15.066  0.0643 -0.1191 -0.0614
 2406W        W22686   6.692   0.854   0.976  0.0974  0.2165  0.0622
 2407W        W22687   0.696   7.870  12.603 -0.0245  0.0476  0.2311
 2408W        W22688  16.760  17.584  13.826 -0.1270  0.0245  0.0734
 2409W        W22689  11.980   1.851   0.788  0.1379 -0.0444 -0.2892
 2410W        W22690   5.938  12.091  11.539  0.0239  0.0107  0.0185
 2411W        W22691   1.270   4.397  14.321 -0.0789 -0.2193 -0.1359
 2412W        W22692   6.030  14.257   2.597 -0.0468 -0.0211 -0.0028
 2413W        W22693   6.270   8.140   1.483 -0.1785  0.1234 -0.1928
 2414W        W22694   1.913  14.330   3.244  0.0193  0.1590 -0.0823
 2415W        W22695   7.757  17.704  13.831  0.2555  0.1036  0.0680
 2416W        W22696   8.977   5.934  12.500  0.1741  0.1864  0.0526
 2417W        W22697   5.396   1.704   3.651 -0.0449 -0.1044  0.2347
 2418W        W22698  14.693  15.951  15.220 -0.3277  0.0688  0.0722
 2419W        W22699   9.318   6.924  12.799 -0.0232 -0.1865  0.1882
 2420W        W22700   2.257  16.880  14.887 -0.2559  0.1516  0.3796
 2421W        W22701   5.359   0.381   0.771 -0.0121  0.2721  0.1917
 2422W        W22702   0.580  12.656  15.474  0.0251  0.1499 -0.1061
 2423W        W22703   7.478   4.609   0.610 -0.0393 -0.2362 -0.0480
 2424W        W22704   2.518   6.480  15.749 -0.1213 -0.1740  0.0219
 2425W        W22705  12.683   4.959   0.988  0.0377 -0.0917  0.0258
 2426W        W22706   9.371  10.364   4.806 -0.1132  0.0539  0.0600
 2427W        W22707  15.647  14.738   1.999  0.0108 -0.2070  0.0479
 2428W        W22708   4.309   8.003   4.517  0.0596 -0.1042  0.0371
 2429W        W22709   0.882   8.302  13.947  0.1057  0.1391  0.1133
 2430W        W22710   1.998   3.999   1.572 -0.1282 -0.1925  0.3892
 2431W        W22711  16.779  13.190   1.396 -0.1524 -0.1356  0.2360
 2432W        W22712  12.022   0.187   1.423 -0.2099 -0.2345 -0.0401
 2433W        W22713   5.079  14.260   2.572 -0.1447  0.3796 -0.0501
 2434W        W22714  12.990   0.017  10.859  0.1222 -0.0497  0.0083
 2435W        W22715  10.697   2.813   4.591  0.0942 -0.0880  0.0123
 2436W        W22716   1.363  11.161  13.414  0.0653  0.0626  0.1169
 2437W        W22717   8.732   7.380  15.487 -0.0294  0.5001 -0.1226
 2438W        W22718  16.952  16.045   1.917 -0.3132 -0.4744  0.1109
 2439W        W22719   3.780   0.973   3.029 -0.0976 -0.1027 -0.3751
 2440W        W22720   4.515  10.743  13.396 -0.2281 -0.0467  0.2122
 2441W        W22721   1.444   4.357  14.992  0.2676  0.0538  0.2310
 2442W        W22722  13.842  10.679   3.083  0.2929  0.0996  0.0104
 2443W        W22723   6.692  11.766  15.301 -0.3220 -0.0405 -0.0978
 2444W        W22724   4.025  17.370  11.687  0.2112 -0.0811  0.0579
 2445W        W22725  16.868  14.049   4.291 -0.1392 -0.2259  0.0256
 2446W        W22726  14.479  16.870   2.044 -0.2241 -0.2580 -0.0876
 2447W        W22727  16.665   5.835   5.249  0.3873  0.1155 -0.5711
 2448W        W22728  15.987  15.141  12.418 -0.3101  0.0004 -0.1340
 2449W        W22729  17.419  11.193  11.363  0.2451  0.0209 -0.0794
 2450W        W22730  16.683  10.000  12.376 -0.0468  0.2047 -0.0558
 2451W        W22731  17.059  14.278   0.128 -0.1140 -0.2333 -0.1990
 2452W        W22732  10.026  10.281   4.348  0.2336  0.1780  0.0915
 2453W        W22733   5.608  12.291  15.066 -0.1245  0.2156 -0.1134
 2454W        W22734  17.675   1.882   3.263  0.1283 -0.0407 -0.1799
 2455W        W22735   1.522   7.600  14.153  0.0099  0.1574 -0.0475
 2456W        W22736  11.317  12.768  14.410 -0.0658 -0.0229  0.1468
 2457W        W22737   8.741  14.126   0.065 -0.0549 -0.0743 -0.3800
 2458W        W22738  15.386   3.222   2.662  0.4533 -0.2442  0.1090
 2459W        W22739  18.330   7.490  14.833  0.2093  0.4643 -0.1932
 2460W        W22740  11.327  11.717  14.397  0.1987 -0.2634 -0.0099
 2461W        W22741   1.966  14.345  13.303 -0.1831  0.1697  0.0567
 2462W        W22742  17.440  15.018  12.921 -0.0499 -0.2462 -0.2150
 2463W        W22743  17.319  13.789  14.141 -0.1639  0.0071 -0.0169
 2464W        W22744  17.719   4.431  11.710 -0.0143 -0.3225 -0.0350
 2465W        W22745   2.612   5.018   1.839  0.1603  0.0297 -0.0421
 2466W        W22746   7.652  10.292  12.861 -0.2322 -0.1824 -0.1787
 2467W        W22747   7.942   4.393   4.403 -0.2838 -0.0929 -0.2679
 2468W        W22748   8.122   7.428  11.614  0.0406 -0.0824  0.0208
 2469W        W22749   9.706   5.600  12.629 -0.0055 -0.1125  0.3481
 2470W        W22750  17.607   7.106   2.416  0.1892 -0.1654  0.2117
 2471W        W22751   9.427  14.837  14.456  0.0309  0.1578  0.1218
 2472W        W22752   4.676   0.809   3.252  0.2703 -0.0164  0.1260
 2473W        W22753   6.564   8.600  15.474 -0.0725  0.0880 -0.1121
 2474W        W22754   4.542  13.901   3.835 -0.1935 -0.2275 -0.1407
 2475W        W22755  12.016   9.582  14.778 -0.1729 -0.1245 -0.0050
 2476W        W22756  15.639  10.667   3.051  0.1715 -0.1667 -0.2306
 2477W        W22757   8.106   8.796  11.428  0.0475 -0.1459  0.2557
 2478W        W22758  16.187  17.018   0.634 -0.3343  0.1084 -0.0331
 2479W        W22759   0.702  13.441  12.604 -0.0040  0.0415  0.0106
 2480W        W22760   3.377   7.979   4.099  0.0397  0.1082  0.1370
 2481W        W22761   7.681   5.579   1.460  0.0726 -0.0022 -0.1127
 2482W        W22762   5.196  10.972   3.599 -0.0219  0.3763 -0.1575
 2483W        W22763   1.727  18.323  14.307  0.0612  0.0564 -0.0302
 2484W        W22764  11.397  16.464  12.017  0.2961  0.0952 -0.3303
 2485W        W22765   0.009   3.886   2.539  0.2789  0.2499 -0.2105
 2486W        W22766  17.327   1.883  12.443  0.0822 -0.2881  0.1767
 2487W        W22767   9.047   3.942   1.729  0.0217  0.1078 -0.1291
 2488W        W22768   7.644  11.101  15.217 -0.1351 -0.1936  0.0023
 2489W        W22769   7.433   5.855  12.569  0.1188 -0.2883 -0.0326
 2490W        W22770  10.001  11.010   2.709 -0.1452  0.2271  0.2383
 2491W        W22771   7.885   6.141  13.292 -0.3153 -0.0860  0.2200
 2492W        W22772  10.896  16.007   0.504  0.0874 -0.4344  0.1467
 2493W        W22773  14.008   8.060   2.631  0.1774 -0.2642 -0.1569
 2494W        W22774  12.006  17.642   1.800  0.2623 -0.0290 -0.0669
 2495W        W22775   0.175  13.382   0.114 -0.3118  0.1588  0.1506
 2496W        W22776   3.097   2.519  11.496 -0.1890 -0.0246  0.3404
 2497W        W22777   3.934   9.066  12.493 -0.0579  0.0266 -0.0565
 2498W        W22778  15.547   8.276  13.669  0.3731 -0.2148 -0.0618
 2499W        W22779  16.161  17.276  12.813  0.1060  0.1142 -0.1991
 2500W        W22780   0.839   7.896  14.954 -0.0811 -0.1756 -0.3687
 2501W        W22781   4.901   0.891  13.681 -0.4314  0.1183 -0.0910
 2502W        W22782   1.695  13.742   2.239  0.2390  0.0640 -0.2721
 2503W        W22783  15.748   5.622  13.022  0.2870 -0.1315 -0.0875
 2504W        W22784   7.280  11.011  14.261  0.0147 -0.2996  0.0574
 2505W        W22785   1.600  17.397  13.494 -0.0238 -0.0349 -0.1474
 2506W        W22786   8.858   7.652  12.289  0.0327  0.0672  0.1150
 2507W        W22787   3.690  11.440   2.119  0.1841  0.0051 -0.0352
 2508W        W22788   6.339  14.911   0.696 -0.0989 -0.0260 -0.1683
 2509W        W22789   0.464   2.468  11.216  0.3156  0.2242  0.1854
 2510W        W22790   3.420  17.854  15.812  0.1241 -0.1110  0.1897
 2511W        W22791  17.976   2.247  14.502  0.2482 -0.1542  0.0039
 2512W        W22792  17.638  13.240   2.687  0.2276  0.1765 -0.4118
 2513W        W22793  17.829   2.619  15.187 -0.0185  0.4822 -0.0502
 2514W        W22794  16.579   3.938   2.970  0.4053 -0.2460  0.3543
 2515W        W22795   8.654   4.290   2.469 -0.0550  0.0187  0.1939
 2516W        W22796  11.741  14.420   2.598 -0.0242 -0.4176 -0.0098
 2517W        W22797  10.394  10.061  14.468 -0.2345 -0.0876 -0.0377
 2518W        W22798  15.318   3.485  14.577  0.0188  0.1500 -0.0020
 2519W        W22799   8.175  15.975  12.867  0.1758  0.0553  0.0499
 2520W        W22800   8.102  14.862   2.483 -0.0917  0.0264 -0.0748
 2521W        W22801   5.065  15.362  11.679 -0.0603 -0.1647 -0.0519
 2522W        W22802   1.890   4.987   3.690 -0.0748 -0.3814 -0.0361
 2523W        W22803   8.157  10.657   2.842  0.0435  0.0653 -0.1097
 2524W        W22804  14.368   3.832   2.343 -0.1284 -0.1023 -0.0980
 2525W        W22805  15.673  10.409  11.933  0.0570  0.3898  0.0418
 2526W        W22806   8.429  16.619  11.756 -0.0953 -0.0480 -0.4770
 2527W        W22807  10.887  11.121  14.675 -0.0471  0.0864 -0.1326
 2528W        W22808   4.424   0.266  14.870  0.0457 -0.2188 -0.0252
 2529W        W22809   7.160  17.597   3.418 -0.1662 -0.1590  0.1207
 2530W        W22810   7.995   4.369   3.841  0.1633 -0.0266 -0.2565
 2531W        W22811  11.993  13.875   1.207 -0.3473 -0.1929 -0.1195
 2532W        W22812  14.011   0.667   3.042 -0.2750  0.0256 -0.0896
 2533W        W22813   5.143  10.895   2.567  0.1590 -0.2766 -0.2095
 2534W        W22814   4.851  13.829   2.830  0.2344  0.0480  0.1478
 2535W        W22815   7.968  12.037  14.613  0.1430 -0.1081 -0.1657
 2536W        W22816  11.457  12.015   3.979 -0.2229 -0.0234  0.0856
 2537W        W22817   3.443   9.574  14.933  0.0340 -0.1426 -0.2205
 2538W        W22818   5.236   7.024   0.695 -0.1159 -0.1076  0.1223
 2539W        W22819  16.458   9.929   1.933  0.0335  0.0674  0.0297
 2540W        W22820   4.169  12.929  12.977 -0.3189 -0.0429  0.1237
 2541W        W22821   4.024  10.488   3.811 -0.0093 -0.0624  0.4005
 2542W        W22822  12.690   4.831   4.003 -0.0021 -0.2535  0.0605
 2543W        W22823  14.045  18.290  12.523  0.0541 -0.1385 -0.1221
 2544W        W22824   6.722  14.893  11.685  0.3666  0.3799 -0.2063
 2545W        W22825   9.334   6.304   4.778 -0.1733 -0.2974 -0.1067
 2546W        W22826   5.468  14.418  15.071  0.0729  0.0065  0.1117
 2547W        W22827   0.433   9.199   4.522 -0.1321  0.0490  0.1338
 2548W        W22828  11.191   9.881  12.968  0.2613 -0.0652  0.0546
 2549W        W22829   1.755  16.703  14.750 -0.0922 -0.1843  0.0899
 2550W        W22830   3.859   9.825  14.096 -0.2401  0.0182  0.4509
 2551W        W22831  11.183  11.548   1.567 -0.1423 -0.1670  0.1160
 2552W        W22832  15.854   3.588   0.091  0.1914 -0.0920 -0.4498
 2553W        W22833   6.664   5.004  13.911 -0.2006 -0.4396 -0.1234
 2554W        W22834   5.011  10.099   1.937 -0.3996 -0.1767 -0.2292
 2555W        W22835  12.405   5.361   3.931 -0.0113 -0.0164 -0.0411
 2556W        W22836  10.741  16.650   2.664 -0.1008 -0.0442 -0.2729
 2557W        W22837   6.554   7.155   2.170 -0.0888 -0.0299  0.1431
 2558W        W22838  17.742  10.524  14.199 -0.0650  0.0100 -0.5699
 2559W        W22839   6.839  14.350   4.225 -0.1588 -0.0558 -0.0466
 2560W        W22840  12.833   7.460  13.408 -0.1380 -0.1271  0.0681
 2561W        W22841  15.362  12.437  12.345  0.1558 -0.0939  0.2510
 2562W        W22842   3.232   3.931   3.080 -0.1222  0.0772 -0.0406
 2563W        W22843   4.013  17.427   2.350  0.1610 -0.0694 -0.1435
 2564W        W22844  13.671  15.632   1.455  0.0980 -0.0873  0.0908
 2565W        W22845   8.527  13.393  15.601 -0.1539  0.0005 -0.0256
 2566W        W22846   3.007   6.537  13.924 -0.0379  0.0996  0.0262
 2567W        W22847   5.039   8.627   4.445  0.0218 -0.0732 -0.1063
 2568W        W22848  16.389  12.152  12.383 -0.0420 -0.1124  0.0515
 2569W        W22849  12.103   3.758  14.137  0.0409  0.0883 -0.0331
 2570W        W22850   1.789   4.967  11.714  0.1768  0.0476 -0.1340
 2571W        W22851   3.102   9.031  14.594 -0.0529 -0.1366 -0.2388
 2572W        W22852  10.476   7.306   1.317  0.2108 -0.0919  0.1347
 2573W        W22853   6.735  11.642   1.757 -0.2556  0.1503  0.2615
 2574W        W22854   6.854  16.380   3.668  0.1990  0.0618 -0.2312
 2575W        W22855  16.518   6.731  15.718  0.0887 -0.0267  0.0737
 2576W        W22856   9.734  14.891  14.015 -0.0484 -0.1823 -0.0942
 2577W        W22857  12.079   3.378   0.013 -0.1852 -0.0105 -0.1291
 2578W        W22858  10.481   4.473   0.512  0.3561  0.0754  0.1748
 2579W        W22859  13.435  12.739  11.085 -0.2786  0.2168 -0.0145
 2580W        W22860   8.295   2.698  14.503  0.1540  0.1277 -0.1229
 2581W        W22861  17.679  15.834   4.045  0.0827 -0.0033  0.1507
 2582W        W22862  14.244  11.598   5.236 -0.0143  0.1606  0.0963
 2583W        W22863  12.437   2.306   0.845  0.0182 -0.0670 -0.2368
 2584W        W22864   9.881  17.999  13.314  0.0112 -0.1216 -0.0890
 2585W        W22865   9.946   9.772  12.728  0.0185 -0.1207 -0.0397
 2586W        W22866  18.184   3.226   1.550  0.3581 -0.3201 -0.2508
 2587W        W22867  15.298   7.531   1.796  0.2666  0.1298 -0.1276
 2588W        W22868  11.734  12.056   2.098 -0.0520 -0.0197  0.0432
 2589W        W22869   6.933   5.680  12.138  0.1349 -0.2491 -0.0898
 2590W        W22870   9.323  11.693   3.027 -0.0702 -0.1130 -0.0636
 2591W        W22871   9.716   1.378   0.696 -0.0674 -0.0367 -0.0129
 2592W        W22872  16.088  12.027   1.765  0.0854 -0.2692 -0.2096
 2593W        W22873   8.397  12.797  14.374 -0.2568  0.2903  0.0101
 2594W        W22874   3.547   2.256  13.909  0.0036 -0.3335  0.2071
 2595W        W22875  15.486  17.426  13.590  0.4244  0.0866  0.0165
 2596W        W22876  18.175   3.560   2.156 -0.0088  0.0491  0.1232
 2597W        W22877   1.393  12.840   3.467 -0.1816  0.0569 -0.1184
 2598W        W22878  13.105  13.444  14.541  0.2707  0.2397  0.0162
 2599W        W22879   6.116   3.990   0.443 -0.2335  0.0924  0.0522
 2600W        W22880   7.953  15.341  13.667 -0.0263  0.2564 -0.0888
 2601W        W22881   8.643  16.846   0.834  0.0967 -0.2938  0.1451
 2602W        W22882   1.573   6.685  15.610 -0.0208 -0.1187 -0.4452
 2603W        W22883   5.598   1.433   4.213 -0.1711  0.2465  0.0578
 2604W        W22884   1.128   1.044  15.166  0.0898  0.0753  0.1316
 2605W        W22885   4.009  15.914   1.912 -0.4021  0.0714  0.1590
 2606W        W22886  13.657  10.709   1.862 -0.0383 -0.0501  0.2139
 2607W        W22887  15.695  13.204   1.965 -0.1708  0.1140  0.1394
 2608W        W22888   3.604  11.313  13.378 -0.0884 -0.0009  0.1160
 2609W        W22889  17.898  13.381  13.445  0.2109 -0.0245  0.0135
 2610W        W22890   1.874   2.937  13.549 -0.2096 -0.0038 -0.0510
 2611W        W22891   8.143   3.678   1.749  0.2882  0.1118 -0.5097
 2612W        W22892   6.902   7.348   1.790 -0.1765  0.1629 -0.1201
 2613W        W22893  16.941  18.222   4.594  0.1295 -0.0475 -0.0252
 2614W        W22894  16.337   9.580  11.906 -0.3558  0.0948 -0.2118
 2615W        W22895  12.275  16.385   2.241  0.1039 -0.1996 -0.2100
 2616W        W22896   5.414   4.162  12.516 -0.0965  0.0666  0.1073
 2617W        W22897  15.961   6.633  11.582 -0.1980 -0.0931 -0.1642
 2618W        W22898  12.290   7.212   2.374  0.0800 -0.0750  0.0984
 2619W        W22899  15.701   4.008  15.703 -0.1606  0.2564  0.2586
 2620W        W22900   3.041   6.535  12.298 -0.2129  0.0355  0.0002
 2621W        W22901   6.102   5.098   4.285 -0.2387  0.0057 -0.0658
 2622W        W22902  14.356   7.787   0.393  0.3418  0.0246  0.3038
 2623W        W22903   9.751   2.852   5.335  0.2028 -0.0733  0.3263
 2624W        W22904   2.072   0.281  14.881 -0.3146  0.0556  0.4466
 2625W        W22905  11.462   8.741  14.742 -0.1693  0.3648 -0.1677
 2626W        W22906   1.790   0.385   1.006  0.1686 -0.0205 -0.0626
 2627W        W22907  10.442  15.311   3.552  0.1821 -0.2431 -0.0398
 2628W        W22908  16.487   9.981  14.283  0.2290  0.0858 -0.2863
 2629W        W22909   4.187  12.421   1.656  0.1158 -0.0636 -0.0404
 2630W        W22910  12.232  10.733   3.534 -0.0453 -0.0017  0.2679
 2631W        W22911   8.988   8.390  11.612 -0.2862 -0.3689  0.1135
 2632W        W22912  17.873   7.479   4.767  0.1083  0.1616 -0.2815
 2633W        W22913  16.584   2.340   2.558 -0.2102 -0.1777  0.2517
 2634W        W22914  14.398  16.766  15.006  0.0213  0.2733  0.0137
 2635W        W22915   3.319   1.206   3.018  0.0617  0.0771 -0.1496
 2636W        W22916  14.722  12.243   2.308 -0.0434 -0.1886  0.0119
 2637W        W22917  15.425  16.012   0.549 -0.1236 -0.0088  0.1842
 2638W        W22918  16.670  18.034   2.916  0.1593  0.0325  0.1171
 2639W        W22919   0.239   2.706   2.219  0.0794  0.0544 -0.0452
 2640W        W22920  13.827   3.993  13.904  0.0297 -0.0350 -0.0770
 2641W        W22921   9.144   9.711  14.776 -0.0357  0.1485  0.2590
 2642W        W22922  15.029   7.165   2.043  0.0022 -0.1742 -0.1011
 2643W        W22923   7.379  18.053  13.713 -0.2331  0.1550 -0.3706
 2644W        W22924  18.145  16.644  12.951 -0.0304 -0.2066  0.2265
 2645W        W22925  16.628   4.702   0.232 -0.3016 -0.0927  0.1632
 2646W        W22926   2.427  12.395  14.770 -0.3113  0.1286  0.4048
 2647W        W22927   2.705   7.152  12.912  0.0416 -0.1809  0.1640
 2648W        W22928   4.052   8.387  13.929 -0.1040 -0.0598 -0.0160
 2649W        W22929   6.689  10.993  12.471 -0.1477  0.0424  0.0020
 2650W        W22930   0.139  10.400  12.643  0.1911  0.0284 -0.1492
 2651W        W22931   0.221   9.048   0.194 -0.1405  0.0491  0.1180
 2652W        W22932   9.054  13.470  14.544  0.1587 -0.1420  0.0355
 2653W        W22933  15.346  14.009  15.205  0.2863 -0.2997  0.3253
 2654W        W22934   7.472  15.147  14.834  0.2698  0.2820  0.0055
 2655W        W22935   6.084   7.444   2.770  0.3790  0.0344  0.1816
 2656W        W22936  15.061   6.670  13.609 -0.0852  0.2426  0.0502
 2657W        W22937  10.178   4.848   2.635  0.0718  0.2454  0.0609
 2658W        W22938   7.369  17.318  11.182  0.0756 -0.1981  0.0014
 2659W        W22939   4.115  13.994   4.217 -0.0428 -0.3903  0.0464
 2660W        W22940  16.765  11.173   4.185 -0.0219  0.0828  0.0765
 2661W        W22941  14.377  10.353   3.564 -0.2314  0.0088 -0.1557
 2662W        W22942   4.606   3.839   3.672  0.1335 -0.2644 -0.2974
 2663W        W22943  16.598   0.027  15.673 -0.0951  0.2410 -0.0555
 2664W        W22944  14.295   8.151  14.716 -0.1434 -0.1193 -0.3336
 2665W        W22945   2.679  10.635   3.820 -0.3082 -0.2335 -0.2446
 2666W        W22946   4.853  11.305   2.843  0.0861  0.0468 -0.1390
 2667W        W22947  12.868   8.518  13.599 -0.0840  0.0073 -0.0451
 2668W        W22948   2.336   3.664  13.937 -0.0035 -0.2348 -0.0701
 2669W        W22949  12.043   6.423   0.409  0.1389  0.0982  0.1813
 2670W        W22950   2.698  15.646   3.013 -0.0733  0.2696  0.0599
 2671W        W22951  12.463  15.688  15.631  0.0987 -0.0480 -0.0098
 2672W        W22952   6.347  13.006  12.964  0.3980  0.0115 -0.1280
 2673W        W22953  10.921   7.165   2.865 -0.0008 -0.0754 -0.0726
 2674W        W22954  14.823  10.558  12.702  0.2310  0.0273 -0.1547
 2675W        W22955   0.628  11.537  10.733  0.0039 -0.0868 -0.1691
 2676W        W22956  16.006   8.242  10.569  0.2168 -0.1797  0.1444
 2677W        W22957   8.763   1.306  15.232 -0.0123  0.0437  0.0076
 2678W        W22958  13.239   7.704  15.459  0.0340 -0.0850 -0.0672
 2679W        W22959   9.895   6.139   1.937 -0.1473  0.2076  0.2006
 2680W        W22960  13.349   9.521   3.830 -0.4452  0.1941 -0.1921
 2681W        W22961   3.630  18.191  11.932  0.3801  0.1954 -0.1927
 2682W        W22962  15.586   0.071   1.832 -0.0801  0.0492  0.0158
 2683W        W22963  14.552   6.455   1.137 -0.0885  0.1253  0.1571
 2684W        W22964   5.594  13.386  12.549 -0.1349 -0.0051  0.1225
 2685W        W22965  14.444   1.654  11.801  0.2183 -0.0789  0.2483
 2686W        W22966   4.040  10.162   1.310  0.1043  0.1723 -0.1604
 2687W        W22967  13.793  14.572   2.525  0.1280 -0.1469 -0.0409
 2688W        W22968   9.662   7.338  15.152 -0.0106 -0.0734 -0.2292
 2689W        W22969   8.433  15.244  11.689 -0.1175  0.2079 -0.1547
 2690W        W22970  18.011  12.538  15.296  0.2765 -0.1216  0.4479
 2691W        W22971   9.817   2.398   0.392  0.0080 -0.5988 -0.3072
 2692W        W22972   0.346  11.623  12.591 -0.0486 -0.2129  0.1670
 2693W        W22973   5.821   5.248  12.768  0.1003  0.2519 -0.0931
 2694W        W22974   1.065   5.464   0.039 -0.1275 -0.0122 -0.2134
 2695W        W22975   6.269   9.287   0.107 -0.4510 -0.2136  0.1378
 2696W        W22976   9.571  14.328   2.924 -0.1501  0.0676 -0.2623
 2697W        W22977   0.449  13.902   2.473 -0.0010  0.0597 -0.0757
 2698W        W22978  10.927   0.696   3.230  0.0578 -0.2708 -0.0108
 2699W        W22979  15.745  16.786   0.685  0.0077  0.0292 -0.1409
 2700W        W22980  15.047  10.814   3.780  0.2459  0.0506 -0.0758
 2701W        W22981  16.975   8.985   2.807 -0.0155 -0.0329 -0.1665
 2702W        W22982   4.895   1.645   3.217 -0.1950  0.0836 -0.0401
 2703W        W22983  16.172  10.399  14.486 -0.0533  0.2039  0.0484
 2704W        W22984  10.443   1.228  15.438  0.0979 -0.2110 -0.2101
 2705W        W22985   4.064   0.297   1.047  0.2009  0.2134 -0.0946
 2706W        W22986  12.721   5.856   1.928 -0.1507  0.0833 -0.1026
 2707W        W22987  14.075   4.638   5.460 -0.1100 -0.3713  0.1323
 2708W        W22988  10.515  15.896  13.730  0.2477  0.1422  0.4090
 2709W        W22989   5.458  17.598   1.886  0.3186 -0.0870  0.2829
 2710W        W22990   6.850  16.637   1.872 -0.1368 -0.0392  0.0377
 2711W        W22991   8.127  13.582   0.968 -0.2046 -0.0438  0.0423
 2712W        W22992  14.426   5.287   2.757 -0.0824  0.1740  0.0849
 2713W        W22993  11.813   2.352   2.766  0.1366  0.1011 -0.0992
 2714W        W22994   8.507   1.701  14.761  0.2437  0.3335 -0.0086
 2715W        W22995  11.108   6.443  12.449  0.2365 -0.1139 -0.0319
 2716W        W22996  13.552   9.340   4.481  0.0014 -0.1085 -0.0658
 2717W        W22997   8.099   6.180   2.313 -0.1450  0.0840 -0.1100
 2718W        W22998   0.221   3.844  15.733  0.0995  0.0709 -0.1948
 2719W        W22999   3.825   1.739  13.812 -0.1354  0.1207  0.1361
 2720W        W23000   0.750  10.642   3.112 -0.1492  0.3582 -0.3400
 2721W        W23001   0.454   1.801   0.248  0.3392  0.3743  0.1595
 2722W        W23002  16.685  13.969   2.150  0.0840  0.0346 -0.0441
 2723W        W23003  11.933   9.625  13.353  0.1087  0.0427  0.0191
 2724W        W23004  14.447  12.634   3.020  0.2969 -0.0999  0.3714
 2725W        W23005   7.844  17.474  13.382  0.2563  0.1973 -0.0221
 2726W        W23006  13.514   1.468   1.205  0.3487 -0.0665  0.1140
 2727W        W23007   9.849   0.901   5.642 -0.0712 -0.0235 -0.1018
 2728W        W23008  12.251  12.609   2.335 -0.2844 -0.0561  0.1145
 2729W        W23009   7.876  13.497   2.688  0.1725  0.0141 -0.0884
 2730W        W23010  16.222   3.345  13.138 -0.1494  0.1434  0.0198
 2731W        W23011  11.379  13.685   3.336 -0.3093 -0.0468  0.2112
 2732W        W23012  11.577   1.492   3.546 -0.1895  0.0840  0.0561
 2733W        W23013   3.437  18.326   4.335 -0.2237 -0.0369  0.0529
 2734W        W23014  13.993   5.885   0.754  0.0023 -0.1036  0.2296
 2735W        W23015  18.062   8.649   4.271  0.1494  0.0704  0.0544
 2736W        W23016  12.902   6.545   0.392  0.0834  0.0143  0.2053
 2737W        W23017  11.927  15.797   0.399 -0.2308 -0.0906 -0.0328
 2738W        W23018  17.829   4.955  11.634  0.0530 -0.0109 -0.0064
 2739W        W23019  16.197  15.840  14.203 -0.1551 -0.1656 -0.1533
 2740W        W23020  17.424  13.146   1.488  0.1324 -0.1927  0.3782
 2741W        W23021   5.518  12.487  15.575  0.1089 -0.1269  0.0486
 2742W        W23022   5.909   9.487   1.860  0.3054 -0.2554  0.1200
 2743W        W23023  14.712  16.459   1.796 -0.1040 -0.3039 -0.1240
 2744W        W23024   7.801  13.231  11.753  0.2448  0.4291  0.1180
 2745W        W23025   3.611  17.109   2.338 -0.1069  0.0772  0.2540
 2746W        W23026   6.673  17.706   3.875  0.1324 -0.1225  0.0988
 2747W        W23027   1.981   4.235  15.078  0.0204 -0.1073 -0.0723
 2748W        W23028   7.305   7.691  11.388 -0.2098 -0.2706 -0.2123
 2749W        W23029   0.852   8.690   0.578  0.0926 -0.4493  0.0445
 2750W        W23030   5.551   1.088  15.576  0.3896 -0.3549  0.0130
 2751W        W23031  11.298   1.796   1.909 -0.1624  0.0271 -0.1395
 2752W        W23032  15.268   1.077   2.683 -0.1011 -0.1694 -0.2426
 2753W        W23033  11.530  11.103  12.156 -0.1172 -0.2413 -0.0713
 2754W        W23034  14.886   3.267  11.801 -0.0277  0.0167 -0.2309
 2755W        W23035   2.384  11.884  12.962 -0.0582 -0.0211 -0.0213
 2756W        W23036  15.018   4.246   0.672 -0.0224  0.0236  0.2542
 2757W        W23037  11.338  12.290  12.574 -0.0446  0.0589 -0.0714
 2758W        W23038   1.649   8.119  13.974  0.1526  0.1247  0.0323
 2759W        W23039   2.690   0.316  11.688  0.0545  0.0216 -0.1084
 2760W        W23040  11.991   8.794  11.313  0.4481  0.1666 -0.0862
 2761W        W23041   1.911  11.748  12.741  0.2057  0.2010 -0.0071
 2762W        W23042   9.673   5.303  12.088 -0.1396 -0.0417  0.0459
 2763W        W23043   1.559  16.545   1.656  0.1737  0.1522 -0.1942
 2764W        W23044  12.215   3.386   1.548  0.3509 -0.0633 -0.3718
 2765W        W23045  13.568   1.386   3.067  0.0646  0.1074 -0.1524
 2766W        W23046   4.051   8.553   3.646 -0.3733 -0.0547 -0.1413
 2767W        W23047   7.932  14.037  15.227 -0.0907 -0.1015 -0.1993
 2768W        W23048   8.353  17.133   0.602  0.3184  0.0621 -0.2015
 2769W        W23049   2.254   1.265  12.053  0.0328 -0.0840 -0.0574
 2770W        W23050  16.405   4.787   1.580  0.1168  0.2680  0.0992
 2771W        W23051   1.812  17.400   2.327 -0.1419  0.1493  0.0060
 2772W        W23052  13.868   2.514  11.687  0.3882  0.5184 -0.1301
 2773W        W23053   6.486  16.316  15.481 -0.0400  0.1201 -0.0230
 2774W        W23054  17.908   3.543   4.850 -0.0146  0.0959 -0.1387
 2775W        W23055  15.541   2.312   0.635  0.1792 -0.2868  0.2002
 2776W        W23056  12.448   7.720  13.424  0.1256  0.0840  0.2421
 2777W        W23057   7.184   0.246  11.316  0.0625  0.4054 -0.0311
 2778W        W23058   3.117  11.922   0.879  0.2297  0.0978 -0.1009
 2779W        W23059  15.055  10.870   2.463  0.0516  0.1397  0.1668
 2780W        W23060   0.309  15.264  11.489 -0.0222 -0.0903  0.2675
 2781W        W23061   5.341  10.378   1.702 -0.3225 -0.3248  0.0086
 2782W        W23062   9.088  17.161   3.915  0.1019 -0.1823  0.0736
 2783W        W23063  16.961  14.540   4.318 -0.0409  0.0439 -0.1798
 2784W        W23064   2.609   2.183  11.745 -0.2732 -0.0570  0.4305
 2785W        W23065   3.984   2.416  12.299  0.2581 -0.2451  0.1338
 2786W        W23066  10.619   1.612  13.891  0.0650 -0.0435  0.0312
 2787W        W23067  16.736   9.810   1.558  0.0049  0.0443  0.0152
 2788W        W23068  13.435   7.470   3.790 -0.2090 -0.0777  0.0431
 2789W        W23069  10.243   3.450  11.102 -0.0796  0.3945 -0.2746
 2790W        W23070   1.557  14.680   3.057  0.1918 -0.3157 -0.1090
 2791W        W23071   2.814  16.702   1.483 -0.2685 -0.2090 -0.1911
 2792W        W23072   1.247   7.897   4.250  0.3360  0.0770 -0.0661
 2793W        W23073  10.614  10.288   0.544  0.0857  0.1719 -0.0238
 2794W        W23074   6.392   2.953  13.560  0.2419 -0.1462  0.0298
 2795W        W23075   0.145  16.756   0.478 -0.0470 -0.0215 -0.1087
 2796W        W23076  16.677   0.541   1.374 -0.0677  0.1110  0.2604
 2797W        W23077  12.265   6.789   1.069  0.2327  0.1535  0.0507
 2798W        W23078   3.549   9.274   1.881 -0.1913  0.1449  0.0825
 2799W        W23079   6.243  13.719  13.349  0.2194 -0.1816  0.1522
 2800W        W23080   6.984  14.858   3.411  0.1115  0.1353  0.2795
 2801W        W23081  14.975  11.791   2.389  0.1809  0.0311 -0.0698
 2802W        W23082   5.058  16.770  14.556 -0.0148 -0.0790 -0.0071
 2803W        W23083  16.908   8.898   0.661 -0.0404 -0.0701 -0.0072
 2804W        W23084  14.774  11.394   2.742  0.1474 -0.4838  0.0271
 2805W        W23085  11.141  14.767  14.883 -0.2097  0.0269 -0.1636
 2806W        W23086  12.562   2.444  13.937  0.3920  0.0173  0.0728
 2807W        W23087   1.874   4.701  13.371  0.2188  0.0402 -0.1460
 2808W        W23088  11.392   4.546  12.605  0.1219 -0.0115 -0.0384
 2809W        W23089   6.998  16.364  14.407 -0.2264 -0.0704 -0.1947
 2810W        W23090  10.957   2.225  13.196  0.1309  0.2214 -0.0115
 2811W        W23091   4.874  17.066  12.513  0.0589 -0.1731 -0.0639
 2812W        W23092  13.845  11.950   4.388  0.1059  0.1292  0.2403
 2813W        W23093   6.800  17.088   3.012  0.2973 -0.1160  0.1085
 2814W        W23094   1.820  11.475   0.978  0.5079  0.0365 -0.2728
 2815W        W23095   8.081   2.805   5.098  0.0829  0.1438 -0.1615
 2816W        W23096  10.752  17.893  13.868 -0.3285 -0.0509 -0.1114
 2817W        W23097   9.390  12.183   1.198 -0.2268  0.0950  0.1539
 2818W        W23098  16.539  17.227  11.468  0.1797 -0.0001 -0.1872
 2819W        W23099   3.865   9.316  14.129  0.1128 -0.1859  0.3355
 2820W        W23100   1.892   5.640   0.279 -0.1419  0.2345 -0.0802
 2821W        W23101   0.246   0.314   0.657 -0.1838  0.0307 -0.2906
 2822W        W23102   8.133   2.129  12.474 -0.0993  0.1672 -0.0806
 2823W        W23103   3.061  11.455  13.822 -0.0744 -0.1873 -0.0288
 2824W        W23104   6.499   9.198  12.016  0.1571  0.0743  0.0089
 2825W        W23105  15.035   0.406  15.410  0.1368  0.0682  0.0349
 2826W        W23106  16.216   0.032  12.788  0.1134 -0.3052 -0.1925
 2827W        W23107  13.140  10.111   4.098 -0.1264 -0.2206  0.0674
 2828W        W23108   6.307   0.057  14.347 -0.1257  0.3174  0.2220
 2829W        W23109  13.909   4.587  11.570  0.2128 -0.2472  0.0216
 2830W        W23110   5.676   1.906  14.028  0.2451 -0.0882  0.1162
 2831W        W23111   5.113  12.743  15.421  0.3617 -0.2421 -0.0711
 2832W        W23112   8.823   1.963  13.157  0.1261  0.0013 -0.0214
 2833W        W23113  15.900   3.155  12.652 -0.1815 -0.2017 -0.1884
 2834W        W23114   1.740  11.689   2.809  0.5084  0.2891 -0.0353
 2835W        W23115  16.681   7.835  11.848  0.1714 -0.0660 -0.0260
 2836W        W23116  14.137   3.817  13.513  0.5018  0.0193 -0.2129
 2837W        W23117  13.772   0.475   2.012 -0.0130  0.1818  0.1020
 2838W        W23118  10.376   6.118  13.438 -0.1499  0.0831  0.0072
 2839W        W23119   2.789   9.101   0.117 -0.1512 -0.0670 -0.1426
 2840W        W23120   1.072   4.519  14.764  0.0211 -0.2228  0.0768
 2841W        W23121  17.258  10.342  15.853 -0.3203 -0.0328  0.1737
 2842W        W23122   3.606   0.460   0.458  0.2442  0.1287  0.2278
 2843W        W23123  13.111  16.573   4.480  0.0045  0.1248  0.0279
 2844W        W23124   3.775   2.317   1.624  0.1767 -0.1783  0.1379
 2845W        W23125   2.282  12.923   3.691 -0.1192  0.1670  0.1637
 2846W        W23126  15.060   8.135  13.829  0.1279  0.1130 -0.1525
 2847W        W23127   2.255   5.138  11.721 -0.0028 -0.3205  0.1164
 2848W        W23128  15.155   3.113   0.643 -0.0192 -0.0039  0.0907
 2849W        W23129   1.766  18.188  12.844  0.1496 -0.0229 -0.3548
 2850W        W23130   6.999  18.065   0.044 -0.0029 -0.0406 -0.3751
 2851W        W23131  10.531   4.210  15.148  0.1609 -0.1026 -0.0651
 2852W        W23132   7.146   0.924   2.889  0.1228 -0.0881 -0.0137
 2853W        W23133   9.240   0.462   3.073 -0.1037 -0.0556  0.1055
 2854W        W23134  18.218  16.069  13.801 -0.1162 -0.2378  0.0148
 2855W        W23135   9.161   5.759   4.794  0.1138  0.1452 -0.0520
 2856W        W23136   1.274  17.724  13.728  0.1388  0.1733 -0.0616
 2857W        W23137   3.241  10.995  13.664  0.0759 -0.0984 -0.2386
 2858W        W23138   6.490  17.522  15.173  0.2999 -0.1164  0.1541
 2859W        W23139  10.064  15.743  13.886 -0.2879 -0.1244  0.2219
 2860W        W23140  10.805   8.028  11.472  0.1369  0.0385 -0.2043
 2861W        W23141   8.974  10.444   4.084  0.1269  0.0136 -0.0741
 2862W        W23142   1.849   1.435  11.843 -0.0436 -0.0332 -0.0612
 2863W        W23143  16.283   5.985   2.126 -0.1006 -0.0933 -0.1215
 2864W        W23144  11.998  15.482  11.103  0.1075  0.0118  0.1625
 2865W        W23145  16.824   9.373   0.620  0.0095 -0.2439  0.0823
 2866W        W23146  16.147   5.830  14.727 -0.0751 -0.2305 -0.0530
 2867W        W23147  12.626  18.127   2.055 -0.1675  0.0282  0.0186
 2868W        W23148  17.048   0.576   2.344 -0.1375  0.1446 -0.2428
 2869W        W23149   7.663   6.298  11.830 -0.0771 -0.4118  0.1637
 2870W        W23150   4.857   3.949   1.046 -0.0582  0.1568  0.1702
 2871W        W23151   6.988   1.871  12.716  0.2279 -0.0363  0.2188
 2872W        W23152  12.234   4.063   0.943 -0.0087 -0.1410 -0.0311
 2873W        W23153   9.323   6.228  12.102 -0.2638 -0.1195  0.1043
 2874W        W23154  10.542   2.090  14.109  0.5111 -0.0207  0.1178
 2875W        W23155  14.498   2.922   2.610  0.0849 -0.2800 -0.0331
 2876W        W23156  13.136   1.349  13.412 -0.1147 -0.0197  0.0202
 2877W        W23157   9.992   0.597   4.903 -0.0078  0.0446  0.2123
 2878W        W23158  13.432  12.330   2.838 -0.0708  0.1527  0.0694
 2879W        W23159  16.549   5.570   0.041  0.1462 -0.0668  0.0282
 2880W        W23160  11.715  11.318   2.543  0.2094 -0.3572  0.0154
 2881W        W23161  14.834   9.334  13.980  0.3439  0.1382 -0.0115
 2882W        W23162  16.565  14.476   2.176 -0.2226  0.1556  0.3442
 2883W        W23163   0.232  16.779   2.104  0.0375  0.2415  0.1730
 2884W        W23164   9.800   9.156   4.354 -0.1819 -0.2782 -0.2872
 2885W        W23165  15.487   3.954   1.428 -0.1963 -0.1243 -0.2849
 2886W        W23166  18.073  13.699   0.097 -0.1418  0.1328 -0.0166
 2887W        W23167  13.026  17.766  13.444 -0.0973 -0.0259  0.0446
 2888W        W23168   6.198   5.474   1.456 -0.1538 -0.0137  0.0077
 2889W        W23169   2.437   2.321   0.200  0.3264 -0.0254  0.0318
 2890W        W23170  16.960  11.689  13.800  0.4218  0.1492 -0.1428
 2891W        W23171  10.306  15.559  12.246 -0.0286 -0.2935 -0.0217
 2892W        W23172   2.903  12.734   0.263  0.1155 -0.0014 -0.1132
 2893W        W23173  14.583   1.242   0.007 -0.1452  0.2307 -0.3273
 2894W        W23174   5.729  12.482   0.672  0.0914  0.1108  0.1825
 2895W        W23175  11.957  10.573  12.823  0.0220 -0.2633 -0.0790
 2896W        W23176  10.982   8.823  14.588  0.0621 -0.0943  0.2794
 2897W        W23177   5.651  14.542  13.494  0.0719 -0.1007 -0.0708
 2898W        W23178   8.604   6.849   0.398  0.3034  0.1172  0.2678
 2899W        W23179   6.985  13.506  14.414  0.0140  0.1526  0.0684
 2900W        W23180  14.868  17.713   0.189  0.3759 -0.2665  0.2114
 2901W        W23181   0.000  14.245  13.270 -0.0776 -0.0494 -0.1943
 2902W        W23182   7.227  10.539  14.507 -0.0651  0.1039 -0.1008
 2903W        W23183   8.453   5.107   4.517 -0.0444 -0.2040 -0.0910
 2904W        W23184  15.514   8.981   2.540 -0.1224  0.0345 -0.1466
 2905W        W23185  17.345   6.647  14.997  0.0098 -0.0952 -0.0264
 2906W        W23186  14.701   3.981  14.971  0.0610 -0.1834 -0.0956
 2907W        W23187   2.714   2.906   1.229 -0.5888 -0.1335  0.0721
 2908W        W23188   3.286   1.798  14.018  0.1966  0.3005  0.1557
 2909W        W23189   8.231   5.578  12.169 -0.1283  0.2071 -0.1042
 2910W        W23190  17.551  16.707  13.695  0.3941  0.1150  0.0312
 2911W        W23191  11.885   0.329   0.255  0.0097  0.1527  0.0607
 2912W        W23192   8.632   6.188   4.219  0.5610 -0.0092 -0.1384
 2913W        W23193  10.118  14.329  11.800  0.1153  0.1669  0.2908
 2914W        W23194  17.363   3.405  12.192  0.1288  0.0114 -0.0564
 2915W        W23195  15.101   9.247  11.555  0.2310 -0.0069 -0.2998
 2916W        W23196   7.171  15.705   2.528 -0.3165 -0.1261 -0.1505
 2917W        W23197   6.860   5.416  13.538  0.2123 -0.0125  0.1593
 2918W        W23198   2.085   2.951   4.424  0.0725 -0.1517  0.2333
 2919W        W23199   9.391  12.538  14.224 -0.1232  0.1641 -0.1760
 2920W        W23200   5.013  14.674   0.388  0.0294 -0.1533 -0.2252
 2921W        W23201  14.085   1.144   3.198 -0.2462  0.0660 -0.2960
 2922W        W23202   4.226  10.981  10.920  0.1909  0.1070 -0.0310
 2923W        W23203  14.090   4.941  14.527 -0.0924 -0.0764 -0.0077
 2924W        W23204   5.803   6.944   2.611 -0.0300  0.1696  0.2899
 2925W        W23205   9.147   2.479   3.276  0.2178  0.3529 -0.1648
 2926W        W23206   4.910   0.007  14.360  0.0684  0.4118  0.2040
 2927W        W23207  11.268   1.536  12.146  0.0899 -0.1705  0.1883
 2928W        W23208   6.460  12.116  11.639  0.2381  0.0281  0.4114
 2929W        W23209  15.538   7.475   2.715 -0.0903 -0.2110  0.0305
 2930W        W23210   4.227  13.291   1.873  0.0722 -0.1369  0.0830
 2931W        W23211  11.841   5.433  14.214  0.0519  0.1081 -0.1324
 2932W        W23212   5.092   5.556  14.649 -0.1014 -0.0500  0.3231
 2933W        W23213  12.845  16.064   0.571 -0.1836 -0.1284 -0.1239
 2934W        W23214   6.039   7.726   1.666 -0.0783  0.1957  0.4119
 2935W        W23215   5.653  17.705  11.779  0.0697  0.1053 -0.1563
 2936W        W23216  17.970   9.890   0.934  0.4563 -0.0300 -0.1086
 2937W        W23217  10.736   7.877  14.337 -0.2057  0.0204  0.2318
 2938W        W23218  11.710  17.625   0.365 -0.3831  0.3467  0.1383
 2939W        W23219  17.620   4.202   2.049  0.1715 -0.0890 -0.4309
 2940W        W23220   0.333  14.246   1.406 -0.3547  0.0023  0.0450
 2941W        W23221  17.204   9.630  12.240 -0.3098 -0.1607  0.0194
 2942W        W23222  10.410  16.960  15.419 -0.2896 -0.0176  0.2061
 2943W        W23223  12.150   2.473  14.357 -0.3405  0.0758  0.1942
 2944W        W23224   9.410   4.504   1.352  0.2058 -0.0365  0.2818
 2945W        W23225   3.000   6.959  14.187  0.1879  0.0645 -0.2548
 2946W        W23226  13.542   3.888   2.336  0.2843  0.0303 -0.2381
 2947W        W23227   1.339  12.299  12.029  0.1170  0.0092 -0.2578
 2948W        W23228   4.163  12.889  13.981  0.1964  0.1153 -0.0436
 2949W        W23229   6.639   0.919  15.430  0.1017 -0.1065 -0.0975
 2950W        W23230   9.338  12.006  14.848  0.2015  0.1286 -0.0799
 2951W        W23231   6.689   6.774   2.835  0.1759 -0.0105 -0.0074
 2952W        W23232  17.347  15.459   4.156  0.1658 -0.1200 -0.0637
 2953W        W23233  18.097   8.777  14.722  0.0961  0.0254 -0.1947
 2954W        W23234   4.324   9.090  12.783 -0.0437  0.0016  0.0660
 2955W        W23235  14.522   3.918   4.011  0.0916 -0.0189 -0.1608
 2956W        W23236  17.895   5.503  14.234 -0.0225 -0.0713  0.3369
 2957W        W23237  13.002   7.033   0.597  0.0826  0.0192  0.2307
 2958W        W23238  17.871  12.552  14.041 -0.1012  0.2992  0.2195
 2959W        W23239  13.494  14.016   3.170  0.0696 -0.0245 -0.0988
 2960W        W23240   1.166   1.431   3.856 -0.0616 -0.1804  0.1781
 2961W        W23241   9.197  11.880  14.188 -0.1009 -0.0495  0.0442
 2962W        W23242  12.062  13.675   3.950 -0.1712  0.0176  0.1395
 2963W        W23243   4.916  14.208  14.191  0.2381 -0.2532 -0.1372
 2964W        W23244  16.459   7.405  14.252 -0.2035 -0.0668  0.1327
 2965W        W23245   0.696  16.436   2.757 -0.1351 -0.3315  0.1114
 2966W        W23246   6.648   5.160   0.864 -0.0537  0.1767 -0.3750
 2967W        W23247   3.478   5.143   0.580  0.1319  0.2454 -0.0414
 2968W        W23248   9.674   1.667  13.015 -0.1935  0.0535 -0.0456
 2969W        W23249   6.776   7.308  15.841 -0.1583 -0.1033 -0.0248
 2970W        W23250  10.359   9.160   0.290  0.2168 -0.1368 -0.1443
 2971W        W23251  15.885   6.142   3.408 -0.0531 -0.2266 -0.1429
 2972W        W23252  13.363  15.360   4.837  0.0282  0.2537 -0.1134
 2973W        W23253  17.388   4.857  13.822 -0.0221 -0.0410  0.2872
 2974W        W23254   5.454   0.868  15.101 -0.2165 -0.2773  0.2177
 2975W        W23255   8.034  11.641  13.026  0.0565  0.2649  0.0919
 2976W        W23256  16.092   4.282  14.040  0.1600  0.1589 -0.2263
 2977W        W23257  13.073  14.771  14.246  0.3068  0.0956 -0.2400
 2978W        W23258  12.393   4.675   0.612  0.0582 -0.1477 -0.2026
 2979W        W23259   4.850   3.542   3.340 -0.0225  0.1128  0.0497
 2980W        W23260  16.510   4.711  12.525  0.1131  0.1785  0.1157
 2981W        W23261  15.019  10.874   0.869 -0.0734  0.2219  0.3415
 2982W        W23262  16.567  15.333  15.302  0.0942  0.1150 -0.4264
 2983W        W23263   8.697   2.922  15.421 -0.1403  0.1181  0.0111
 2984W        W23264  16.069   0.460  14.078  0.1407 -0.0173  0.0560
 2985W        W23265   0.259   0.972   3.132  0.3196  0.0522 -0.1713
 2986W        W23266  12.012   4.613  15.211  0.1889 -0.0523 -0.1740
 2987W        W23267   5.278  11.274   3.083 -0.0487  0.1393 -0.1717
 2988W        W23268  11.491   6.052   2.642 -0.1509 -0.3099 -0.0779
 2989W        W23269   0.229   2.610   0.348  0.2191  0.1064 -0.5319
 2990W        W23270  12.336   0.440  14.012 -0.3983 -0.0337  0.0537
 2991W        W23271   3.175  18.057   1.581 -0.1122 -0.0309 -0.0414
 2992W        W23272   7.335  16.970   2.239  0.0065 -0.1135  0.0071
 2993W        W23273  16.052   1.183   1.243  0.1555  0.1837 -0.1578
 2994W        W23274   2.823  12.749   2.964 -0.3317  0.1875  0.0454
 2995W        W23275   3.093   9.815   1.710 -0.0179 -0.1155  0.1935
 2996W        W23276   4.812   5.954   1.361  0.0746  0.1215  0.3775
 2997W        W23277  14.453  10.116  15.612  0.2278  0.0141  0.0110
 2998W        W23278  12.154  17.444  13.675  0.0095 -0.2425 -0.0094
 2999W        W23279  15.936  14.595  12.407 -0.0021 -0.0334  0.1714
 3000W        W23280  15.581  10.584  15.053 -0.3768  0.2105  0.2550
 3001W        W23281  10.480  14.469  15.520  0.1447  0.0767 -0.1061
 3002W        W23282  16.579  18.063  11.590  0.1884  0.2064 -0.4346
 3003W        W23283  10.769   1.262   3.938 -0.1070 -0.0166 -0.2258
 3004W        W23284   1.521   1.650  13.153 -0.0210 -0.3521  0.1279
 3005W        W23285   0.837   2.340  14.549  0.1814  0.2980  0.1680
 3006W        W23286   1.078   4.971   0.225 -0.0461 -0.0054  0.0316
 3007W        W23287   2.986  14.126   0.272  0.0960 -0.2347 -0.2573
 3008W        W23288  10.879   6.883  12.353 -0.0312 -0.1653  0.0201
 3009W        W23289  14.879   7.861   1.872  0.1295  0.0712  0.0798
 3010W        W23290  11.551  11.132   0.784  0.2903  0.1425 -0.1870
 3011W        W23291  10.271   6.166  11.979 -0.0520  0.1674  0.1540
 3012W        W23292  12.035   7.045   3.357  0.0400 -0.1974 -0.2913
 3013W        W23293  13.640   2.134   0.264  0.1688 -0.0217 -0.0478
 3014W        W23294   4.863   1.809   4.291  0.0939  0.3784 -0.1333
 3015W        W23295  18.053  11.256  14.693 -0.2375 -0.1012  0.1434
 3016W        W23296   5.447   7.842  12.696  0.1094 -0.0685  0.2516
 3017W        W23297   9.230   8.285  14.148 -0.1241  0.0660 -0.1124
 3018W        W23298  12.737  16.559   0.078 -0.0994 -0.0122 -0.1311
 3019W        W23299   4.818  12.044   2.309 -0.1344  0.1160 -0.2864
 3020W        W23300   0.304   2.702   1.727  0.1934 -0.0636  0.1111
 3021W        W23301   7.342  18.232  12.286 -0.0385  0.0711 -0.3002
 3022W        W23302   2.822   6.550  13.420 -0.1513 -0.1336  0.0082
 3023W        W23303  12.040  17.961  11.540 -0.0383 -0.1292  0.0735
 3024W        W23304   2.530  17.941  13.427  0.0043 -0.0728 -0.1105
 3025W        W23305   6.021   9.827  12.931 -0.1197  0.0529  0.2379
 3026W        W23306  13.130  14.315   1.956 -0.2197 -0.0876 -0.1723
 3027W        W23307  16.317   6.165   4.073  0.2461  0.0754 -0.0920
 3028W        W23308   7.679   0.332   2.394 -0.0593  0.0130  0.0051
 3029W        W23309   1.928  11.637  13.941 -0.0697  0.2225 -0.2800
 3030W        W23310  15.654  17.795  10.269  0.0252  0.0089  0.0206
 3031W        W23311  16.609   8.300   0.126 -0.0386 -0.0695  0.0802
 3032W        W23312  16.465  11.265  12.344  0.1114  0.0354 -0.0573
 3033W        W23313   9.577  12.073  14.414  0.3735 -0.0803  0.2399
 3034W        W23314  10.148   0.241   4.079  0.0013  0.0313 -0.0516
 3035W        W23315  10.957  14.166  11.783  0.0349  0.0304 -0.2597
 3036W        W23316  15.673   7.879  15.089 -0.1130  0.0145 -0.2127
 3037W        W23317  15.754   0.844  14.166 -0.1396  0.0194  0.0606
 3038W        W23318   4.780  10.513   2.405  0.1329  0.2084 -0.2582
 3039W        W23319   2.335   6.765   1.078 -0.1231  0.0116 -0.1221
 3040W        W23320  13.538  16.836   1.811 -0.1309  0.2809 -0.2130
 3041W        W23321   0.656   8.830  15.898 -0.1425 -0.3362  0.1036
 3042W        W23322   4.635  17.762  12.911 -0.0110 -0.0497  0.1052
 3043W        W23323  15.314  16.735   1.111  0.0034 -0.2343 -0.1747
 3044W        W23324  10.546   8.443  15.272  0.5500 -0.0339  0.0026
 3045W        W23325  12.827   5.298  12.049 -0.0929  0.2574  0.4415
 3046W        W23326   5.863   2.375  14.045  0.0539  0.0004  0.1307
 3047W        W23327   1.509   4.443   4.018 -0.1177 -0.0006 -0.4514
 3048W        W23328   6.819  17.039   2.097  0.3315  0.3043  0.1536
 3049W        W23329  12.831   9.696   2.523 -0.0533 -0.0526  0.3941
 3050W        W23330  13.720   4.413  14.134 -0.0249  0.0238 -0.0349
 3051W        W23331  18.107   9.688   1.611  0.0293  0.1367  0.2055
 3052W        W23332  16.870   5.436   1.551 -0.3760  0.0675 -0.1104
 3053W        W23333   3.086  13.875  12.881 -0.0574  0.2303 -0.0278
 3054W        W23334  10.527   1.526  12.811 -0.1934  0.0607 -0.0529
 3055W        W23335  13.989  11.700  14.338  0.2744 -0.4136  0.2163
 3056W        W23336  16.009   2.534  14.651  0.0567  0.0486  0.3970
 3057W        W23337   2.072  11.764  12.168 -0.0745 -0.0158 -0.0193
 3058W        W23338   3.934   0.804  11.924 -0.0123  0.0811 -0.0311
 3059W        W23339   4.864  13.091   0.302  0.2004  0.0191 -0.1029
 3060W        W23340   7.820  14.925   1.475  0.1600  0.0655 -0.2495
 3061W        W23341   7.184  16.350  13.939  0.1404 -0.1568  0.1790
 3062W        W23342  13.120   3.791   4.644  0.0843 -0.0942 -0.0371
 3063W        W23343  13.478   0.861   2.355 -0.0367  0.2728  0.2223
 3064W        W23344   1.534   7.928   3.211  0.1320  0.3354 -0.0116
 3065W        W23345  11.076  14.136  13.286 -0.1488  0.1210 -0.2450
 3066W        W23346  14.416  11.498   0.411  0.1316  0.0064  0.2032
 3067W        W23347   3.555  14.369  11.949  0.0404  0.0544  0.0002
 3068W        W23348  14.045  12.779   3.842 -0.2089 -0.2104 -0.1850
 3069W        W23349  14.363  12.692   0.793 -0.1980  0.1960 -0.3166
 3070W        W23350  17.481   3.586  15.856  0.0607 -0.0681  0.1323
 3071W        W23351   4.968   9.290  14.366 -0.4461  0.0704 -0.1671
 3072W        W23352   3.592   0.803   3.565 -0.2010 -0.1439 -0.0436
 3073W        W23353   5.463   0.557   1.308 -0.1781  0.0262 -0.1188
 3074W        W23354   3.336   2.989  11.703  0.2866  0.2110 -0.1130
 3075W        W23355   7.077   2.480   2.641 -0.0653 -0.2129  0.3225
 3076W        W23356   9.004   9.345  12.935  0.0019 -0.1404  0.1192
 3077W        W23357  15.149  16.546   4.095  0.3789  0.0939 -0.2572
 3078W        W23358   7.812   2.901  14.441 -0.4537 -0.1085 -0.2604
 3079W        W23359   1.873   6.090   0.508  0.0692 -0.1705  0.0316
 3080W        W23360   3.993  11.440   9.934  0.1853 -0.0156 -0.0556
 3081W        W23361  12.298  13.101   2.362  0.2957  0.0873 -0.1900
 3082W        W23362   2.984  11.977  15.619 -0.3905  0.1710 -0.1429
 3083W        W23363   6.491  15.310   1.036  0.0025  0.0153  0.4133
 3084W        W23364  16.579   9.725   0.941  0.2948  0.0621  0.4071
 3085W        W23365  12.764   4.452   0.872  0.1624 -0.0519  0.1256
 3086W        W23366  13.966  17.155   1.340  0.0982  0.3269 -0.0151
 3087W        W23367  17.436   3.914   0.930 -0.0507  0.0359 -0.2481
 3088W        W23368  18.252   5.488   4.225  0.0216 -0.4506  0.0556
 3089W        W23369   8.861  14.170   3.134 -0.2153  0.0461 -0.1441
 3090W        W23370   2.173   0.876  14.132 -0.0974 -0.4267  0.1847
 3091W        W23371  10.049  12.139  14.491  0.0750  0.0972  0.2045
 3092W        W23372   5.983  14.530  15.934  0.4132  0.0794  0.0261
 3093W        W23373   6.822  12.050  14.450  0.2287 -0.0386  0.3141
 3094W        W23374   3.434   8.161  11.629 -0.1176  0.2223 -0.1272
 3095W        W23375   6.493  14.353   0.716  0.2447 -0.0359  0.0687
 3096W        W23376   9.240   8.126  12.344 -0.1992 -0.0742 -0.0082
 3097W        W23377   8.566  14.499  13.838  0.1676  0.0711  0.0730
 3098W        W23378   6.393  18.205   2.417 -0.0555  0.2687 -0.0746
 3099W        W23379  18.218  17.166  15.227 -0.3184  0.1039 -0.1398
 3100W        W23380   5.654   2.344  12.257 -0.1898 -0.0206 -0.1430
 3101W        W23381  15.507  15.045  13.393 -0.2713 -0.1265  0.1200
 3102W        W23382   6.397  14.108  15.801 -0.3416  0.2550  0.0776
 3103W        W23383  11.907   6.546   3.423 -0.0940 -0.1781  0.0770
 3104W        W23384  18.242  12.220   2.147  0.2376  0.2384  0.3129
 3105W        W23385  15.579  16.490  15.793 -0.4738 -0.1858 -0.1105
 3106W        W23386  15.794   8.159   2.346  0.1533 -0.1323  0.4042
 3107W        W23387  14.226  12.204   3.116 -0.0585 -0.0744 -0.0547
 3108W        W23388  14.882   7.698  13.495 -0.0908  0.1613  0.3471
 3109W        W23389  11.633   0.689  12.239  0.0856 -0.0439 -0.0558
 3110W        W23390   4.959  10.999   1.133  0.2142  0.1524 -0.0937
 3111W        W23391   9.738  15.458   3.183 -0.2043 -0.1870 -0.3935
 3112W        W23392   7.190   0.519  14.800 -0.1471 -0.0758  0.1925
 3113W        W23393  15.363  16.483   0.721 -0.0352  0.1685  0.1217
 3114W        W23394  14.390   3.814  14.518  0.0047  0.0253  0.1326
 3115W        W23395  12.227   8.986  12.635  0.0948 -0.2014 -0.1604
 3116W        W23396   3.042   7.302   3.231 -0.0632 -0.0579 -0.1013
 3117W        W23397   0.477   8.059   1.140  0.0500  0.0708 -0.0865
 3118W        W23398   8.695   1.553  12.934  0.0083 -0.3050  0.3006
 3119W        W23399   9.184  16.165   2.627 -0.1235 -0.2959  0.2354
 3120W        W23400  16.534   8.904  13.187  0.1796 -0.0163 -0.1938
 3121W        W23401  11.536   4.918   1.559  0.3585 -0.0878  0.0878
 3122W        W23402  10.426   3.290  14.590  0.2423  0.1629 -0.0908
 3123W        W23403   2.631   6.954  13.784  0.5416  0.1130  0.0582
 3124W        W23404  17.234  15.052  14.973  0.1497  0.2947  0.2127
 3125W        W23405   8.222  14.216   1.783  0.2459  0.2485 -0.1331
 3126W        W23406  14.901   0.707   3.531 -0.0008 -0.1238 -0.0193
 3127W        W23407   8.422   6.110   1.408 -0.1426  0.0737 -0.1163
 3128W        W23408   4.655   5.208  15.105  0.2518 -0.2951  0.0990
 3129W        W23409  11.173   3.067   3.739  0.1158  0.0795 -0.1367
 3130W        W23410  18.173   8.451   4.730  0.2672  0.1175 -0.0512
 3131W        W23411   1.278  10.059   0.355 -0.2588  0.1229 -0.1948
 3132W        W23412  11.760  18.318  15.129  0.0269  0.0910  0.2589
 3133W        W23413   7.426  10.521   1.856  0.2079  0.0636  0.1017
 3134W        W23414   9.145   2.271  13.555 -0.1397 -0.1684 -0.2598
 3135W        W23415  10.026  17.509   2.758 -0.1935  0.0352  0.4305
 3136W        W23416   9.991  15.401  11.840 -0.2208  0.1134  0.1027
 3137W        W23417   9.109   2.309  15.008  0.0178 -0.0508 -0.1028
 3138W        W23418  10.116   4.503  15.097 -0.0091 -0.0995  0.1037
 3139W        W23419  13.845  10.651   4.847  0.0159  0.1782 -0.1455
 3140W        W23420   5.836  16.736  11.833 -0.1140  0.0811  0.1286
 3141W        W23421   0.757  17.686   1.273  0.0242  0.0613 -0.1872
 3142W        W23422  16.461  17.787   3.666 -0.1189  0.1131  0.0379
 3143W        W23423   8.813   6.059  14.139  0.0392  0.2255  0.0170
 3144W        W23424   3.611   5.433   2.255  0.0884  0.0328 -0.0379
 3145W        W23425   6.289   1.983   4.093 -0.0507  0.1005  0.1228
 3146W        W23426  15.967   8.162   3.733  0.1650  0.0733 -0.1807
 3147W        W23427   0.806   6.437   4.469 -0.0567  0.0517  0.0581
 3148W        W23428  11.817   7.619   0.546  0.1191  0.0170 -0.1918
 3149W        W23429   0.576  11.407   4.077 -0.0658  0.2932 -0.0244
 3150W        W23430  18.242  11.857   5.278  0.0819 -0.0254 -0.2222
 3151W        W23431   0.252  16.002  15.107 -0.0217  0.0746 -0.2944
 3152W        W23432   7.925  13.480  14.203 -0.3986  0.0402  0.0999
 3153W        W23433  14.456   7.856   2.220 -0.0894  0.0759 -0.0725
 3154W        W23434   3.502  17.552   0.603  0.2467 -0.3606 -0.1688
 3155W        W23435   1.480   7.477  13.278 -0.1651 -0.1217 -0.0899
 3156W        W23436   4.856   8.729  10.371  0.2353  0.1508 -0.2507
 3157W        W23437  17.739   6.443  14.175  0.3161 -0.1656 -0.0703
 3158W        W23438  12.924   1.617  11.871  0.1040 -0.0028  0.0411
 3159W        W23439   5.588  10.100   5.395 -0.0318 -0.1342  0.0546
 3160W        W23440  13.880  14.505  11.620  0.2013 -0.1330 -0.0229
 3161W        W23441  14.771   8.772   3.162 -0.0044 -0.2707  0.0047
 3162W        W23442  17.539  14.396   2.107  0.0075  0.0142  0.2405
 3163W        W23443  11.261  14.626   1.734  0.0800 -0.1482  0.0034
 3164W        W23444   2.501   0.608   5.317  0.0953  0.3119 -0.0176
 3165W        W23445  14.227   4.002   0.120 -0.1568  0.2575 -0.3723
 3166W        W23446   1.817   5.564  12.424  0.0839 -0.1077  0.1695
 3167W        W23447   3.643  17.510   3.295 -0.2498  0.2162 -0.0752
 3168W        W23448  17.557   0.642  15.167  0.0257  0.2987  0.2394
 3169W        W23449  13.126   5.619  12.327 -0.1318 -0.2912  0.0752
 3170W        W23450   9.513  15.140  13.282 -0.3112 -0.3283  0.2180
 3171W        W23451  12.827   0.378  13.206  0.0833  0.0687 -0.0355
 3172W        W23452  10.158  17.792  14.695  0.0924  0.2282  0.0197
 3173W        W23453  15.980  15.592  11.757  0.1120 -0.0515  0.0514
 3174W        W23454  14.917   3.248  13.345 -0.0993 -0.0942 -0.0455
 3175W        W23455  15.210  13.021   1.915 -0.1146 -0.0914  0.1770
 3176W        W23456   2.991   8.276  13.537 -0.2788  0.0363  0.1540
 3177W        W23457   3.834   7.577   2.367  0.2371  0.1363  0.0336
 3178W        W23458   1.927  10.555  13.120  0.1660 -0.1342  0.1575
 3179W        W23459   7.813   1.327   1.708 -0.1558  0.0445 -0.3247
 3180W        W23460   7.557  12.235  13.705  0.0008 -0.0420  0.2123
 3181W        W23461   1.720  14.693   0.264  0.0108  0.2343 -0.1139
 3182W        W23462  10.455   2.210  14.786 -0.0574  0.0244 -0.0569
 3183W        W23463   2.115   1.392  14.184 -0.2776 -0.0080 -0.3450
 3184W        W23464   0.001   3.216   4.644 -0.4174 -0.4024 -0.0301
 3185W        W23465   7.145   5.959  14.332 -0.2077  0.1369 -0.0022
 3186W        W23466  16.763  15.995  12.693 -0.1913  0.1554 -0.0284
 3187W        W23467   8.472  15.138   2.794 -0.0633  0.1218 -0.2813
 3188W        W23468   8.598   0.009   1.843  0.3129 -0.2111  0.0455
 3189W        W23469  14.819  14.761  15.505 -0.2879  0.0566  0.0393
 3190W        W23470  14.666  11.190  13.272  0.0055 -0.0032 -0.2285
 3191W        W23471   7.216   4.648   1.824  0.3344 -0.0351 -0.4334
 3192W        W23472   2.899   6.187  12.685 -0.2417  0.0628  0.1783
 3193W        W23473  11.787  15.454   2.043 -0.0880 -0.3019 -0.3716
 3194W        W23474  13.673  13.605  15.140  0.1056  0.2153 -0.2388
 3195W        W23475  18.062   1.167  11.795 -0.1699  0.0233  0.0246
 3196W        W23476  11.773  10.447  12.128 -0.0853  0.2689  0.1232
 3197W        W23477   5.191   0.407   3.366  0.0119 -0.0189 -0.0743
 3198W        W23478   2.906  14.425   3.971  0.1607 -0.1972 -0.2823
 3199W        W23479   1.192  13.022  14.410  0.1725 -0.2129  0.2483
 3200W        W23480  10.274   7.330   3.087 -0.3560 -0.0262 -0.1427
 3201W        W23481  11.653   0.661   3.855 -0.1509 -0.0129  0.2857
 3202W        W23482   6.280   9.924  11.930 -0.0987  0.1292 -0.1515
 3203W        W23483   1.538  17.067   0.525  0.0802 -0.1475  0.1645
 3204W        W23484  10.102   7.849   2.819 -0.1223 -0.0550 -0.1157
 3205W        W23485  17.284   2.021   0.658  0.0800 -0.2427  0.1035
 3206W        W23486   2.341   2.628   4.082 -0.1172 -0.1607  0.0347
 3207W        W23487   1.105   5.465   1.029 -0.1961 -0.3334  0.2649
 3208W        W23488  11.572  13.326   5.012 -0.0777 -0.1030 -0.0647
 3209W        W23489   5.877   2.249   2.754  0.2375  0.2178  0.1948
 3210W        W23490   5.714   8.740  12.269 -0.1021  0.3711  0.1546
 3211W        W23491  10.032   4.535   2.136 -0.0969 -0.0830  0.0513
 3212W        W23492  16.099  17.824  12.149 -0.0592  0.0802  0.1177
 3213W        W23493   3.868   4.057  15.411 -0.3018  0.2445  0.1850
 3214W        W23494  13.343   3.727  12.956 -0.1718  0.1240  0.0176
 3215W        W23495  16.852  13.680   0.236 -0.1194  0.0506  0.0864
 3216W        W23496  13.420   6.808  14.332 -0.0784  0.0133 -0.0743
 3217W        W23497   5.181   7.267   1.708 -0.4669 -0.1004  0.2048
 3218W        W23498  17.493   0.430   4.098  0.0255  0.0414 -0.1005
 3219W        W23499  17.576  17.566  11.989 -0.6954  0.2681  0.3294
 3220W        W23500   7.179  15.206  14.275 -0.1725 -0.3307 -0.1517
 3221W        W23501  12.987  13.181  11.812  0.0875  0.1988  0.1478
 3222W        W23502  12.191   2.125   0.024  0.2801  0.2002 -0.0798
 3223W        W23503  16.515   0.644  13.712 -0.0459  0.0034 -0.0627
 3224W        W23504   9.922   5.214  15.703 -0.1269 -0.1681  0.1737
 3225W        W23505  16.572   9.132   4.523 -0.0123  0.1206 -0.1474
 3226W        W23506   4.074  13.426   3.551  0.1097 -0.1166  0.0258
 3227W        W23507  12.008   7.835   3.470  0.0327  0.1368 -0.0347
 3228W        W23508   1.180   0.061  10.610 -0.1014  0.0184 -0.0101
 3229W        W23509   8.002  15.305  15.679 -0.2703  0.1340 -0.1702
 3230W        W23510   8.122  14.127   4.487  0.2771  0.2248  0.0864
 3231W        W23511  17.831  16.160   0.247 -0.0530 -0.0524  0.1505
 3232W        W23512   2.259   5.451  14.260 -0.1482 -0.0758 -0.0718
 3233W        W23513  11.153   9.905   4.905  0.0602 -0.3651 -0.0671
 3234W        W23514  15.090   8.238  14.411 -0.1332 -0.0110 -0.1406
 3235W        W23515  10.422   2.834   0.555 -0.0776  0.0923 -0.0879
 3236W        W23516   3.856  12.557  14.226 -0.2027 -0.1283  0.2146
 3237W        W23517   0.721  13.490  15.819 -0.2383  0.3813 -0.0053
 3238W        W23518   2.260   4.060  14.223 -0.0398 -0.1654  0.0140
 3239W        W23519  10.994   3.471   1.214 -0.2669 -0.1646  0.2339
 3240W        W23520  15.093  17.256  14.297  0.1802  0.0938  0.2223
 3241W        W23521   7.232  15.738  13.267 -0.1430  0.1617  0.0374
 3242W        W23522  13.902  12.517   2.887 -0.0336  0.2492  0.2145
 3243W        W23523  18.201   8.107  13.097  0.1900 -0.1503 -0.1393
 3244W        W23524  15.305   7.266   4.792  0.0936 -0.2543  0.0150
 3245W        W23525   0.343  14.461   0.941 -0.0499 -0.0080 -0.0394
 3246W        W23526   0.795   0.921  11.530 -0.1864 -0.1772  0.0400
 3247W        W23527   9.697   3.316  12.461  0.0186 -0.1872  0.1139
 3248W        W23528   3.269  16.455   4.004  0.0097 -0.2311  0.1495
 3249W        W23529  15.299   1.775  14.427 -0.0815 -0.0892 -0.1352
 3250W        W23530   2.452  14.073   0.241  0.1387 -0.0838 -0.1843
 3251W        W23531   4.735  13.473  14.858 -0.1887 -0.0837  0.1103
 3252W        W23532  16.699   8.773   4.246 -0.1874 -0.0496 -0.1241
 3253W        W23533   3.617  17.854   2.287  0.2583  0.1724  0.1447
 3254W        W23534  18.183   3.672  13.270  0.1662  0.0069  0.2396
 3255W        W23535  10.118  14.820  15.483  0.0135  0.0287  0.1706
 3256W        W23536   6.312   4.649  13.203  0.2338 -0.2134  0.1786
 3257W        W23537  11.819   9.092   4.083  0.1001 -0.2637  0.2380
 3258W        W23538   6.441  17.464   2.973 -0.2099 -0.1141 -0.2799
 3259W        W23539   6.314   0.396   1.764 -0.0105  0.0807  0.0669
 3260W        W23540  15.174  11.228  13.864 -0.0238 -0.0913  0.0289
 3261W        W23541   6.592   4.558   3.252  0.0247  0.0392 -0.0812
 3262W        W23542  13.547  14.824   4.733 -0.0306  0.2182  0.1000
 3263W        W23543   8.977   7.265   0.372  0.3085 -0.1716  0.0795
 3264W        W23544  17.992  11.354   1.979 -0.0399  0.3518 -0.0603
 3265W        W23545   8.248   7.879   0.421 -0.0704  0.1803 -0.2715
 3266W        W23546  11.549  15.449   1.075  0.4122 -0.0612 -0.1485
 3267W        W23547   6.594   1.385  14.507 -0.0596 -0.0903 -0.2521
 3268W        W23548  15.090   0.880  15.738  0.2466 -0.2679  0.0377
 3269W        W23549   9.975  14.308  15.419 -0.1857 -0.2845  0.3643
 3270W        W23550  14.499   8.422   4.918  0.0235  0.2751 -0.3497
 3271W        W23551   3.571   6.787   3.434 -0.1969  0.0846 -0.1381
 3272W        W23552   4.984   3.151   2.381 -0.1370 -0.3249  0.1983
 3273W        W23553   1.172   4.587  13.854  0.1786 -0.2766 -0.1226
 3274W        W23554  18.166  15.571  13.685 -0.0439  0.1692 -0.1496
 3275W        W23555  14.277   0.973  14.065  0.2890 -0.1397 -0.3129
 3276W        W23556  11.271  13.185   3.906  0.2214  0.1642 -0.0641
 3277W        W23557   7.504  14.837   4.933 -0.3034 -0.1300  0.4628
 3278W        W23558   2.992   1.331  13.793  0.3147 -0.1776 -0.0654
 3279W        W23559   6.802   5.971   3.466  0.1033 -0.1851 -0.0028
 3280W        W23560   5.138   1.050   1.859 -0.1581 -0.2064 -0.3396
 3281W        W23561   4.565  13.102  13.243  0.3541  0.0091 -0.0861
 3282W        W23562   0.172   9.359  14.121 -0.0481 -0.2136 -0.0815
 3283W        W23563   1.360  16.651   0.713  0.0292  0.0490 -0.1699
 3284W        W23564   3.554  13.389   0.262  0.1740 -0.2697 -0.0430
 3285W        W23565  17.813  16.930  15.131 -0.0871 -0.0000 -0.3747
 3286W        W23566   2.760  10.089  13.793  0.1470 -0.1357 -0.1292
 3287W        W23567  16.398  18.263  14.703  0.0284  0.0363 -0.2772
 3288W        W23568   2.534   4.328  11.388 -0.0183  0.1463  0.1525
 3289W        W23569   4.231  18.082   2.351  0.3260 -0.2517  0.1536
 3290W        W23570   7.032   2.692  12.851 -0.1401 -0.1245 -0.1342
 3291W        W23571  15.575  16.400   3.832  0.1801  0.1401  0.2268
 3292W        W23572  13.397  14.325   0.835  0.0061 -0.0281 -0.2964
 3293W        W23573   7.647  18.333   1.979  0.2536 -0.1090  0.1527
 3294W        W23574  12.903  11.099  15.451 -0.0026  0.1123  0.1552
 3295W        W23575  18.005   0.661  14.403  0.0318  0.0880 -0.3310
 3296W        W23576  12.932   1.176   4.261 -0.3869  0.0396 -0.1803
 3297W        W23577  13.019   9.152   4.653 -0.2438 -0.0259 -0.1091
 3298W        W23578  18.128   0.107   1.308  0.0610 -0.0206  0.0350
 3299W        W23579  12.810   9.371  15.864 -0.2072 -0.0860 -0.1340
 3300W        W23580  18.284  14.760  14.114 -0.2166 -0.1005  0.0915
 3301W        W23581   5.232   8.709  12.007 -0.0224  0.1785  0.3634
 3302W        W23582   2.473   1.194   1.680  0.0259  0.3415 -0.2253
 3303W        W23583   8.376   1.719  15.864  0.0341 -0.0358  0.0280
 3304W        W23584   7.046  15.298   3.257 -0.3041 -0.1296  0.0116
 3305W        W23585   3.139   5.280  12.884  0.2200 -0.2098 -0.0315
 3306W        W23586   4.366   4.236  15.343  0.0287 -0.1315 -0.0166
 3307W        W23587   9.667  17.393   4.522 -0.3876  0.0059  0.1175
 3308W        W23588   7.738  17.104  15.250  0.1574 -0.0720 -0.0193
 3309W        W23589  10.096   6.951   4.010 -0.1646  0.2449 -0.0067
 3310W        W23590  12.272  18.007   1.054  0.1383  0.1443 -0.0624
 3311W        W23591   0.809  12.878   1.778 -0.0909  0.2875  0.0749
 3312W        W23592   3.504   0.133  14.490 -0.1279 -0.1377  0.0256
 3313W        W23593  13.286  17.208   3.265 -0.1603 -0.0134 -0.3652
 3314W        W23594  17.196   3.939   3.797  0.0381 -0.0016  0.0019
 3315W        W23595   7.759  17.865   4.008  0.0700 -0.1021 -0.0765
 3316W        W23596   2.952   4.106   1.080  0.0169 -0.2188 -0.1320
 3317W        W23597   5.973   1.123   4.417 -0.1914 -0.1302 -0.1993
 3318W        W23598  13.635   9.781  15.228 -0.1134 -0.1905  0.2989
 3319W        W23599  17.127  11.427   4.343  0.1475  0.2800  0.0160
 3320W        W23600  10.268   7.341  13.234 -0.2116  0.1353 -0.0934
 3321W        W23601   3.678  15.582   0.598  0.1324  0.0633  0.1926
 3322W        W23602  15.157   2.239   4.250  0.1490 -0.0320  0.0083
 3323W        W23603   6.571  11.289  11.535 -0.1018 -0.1599 -0.3546
 3324W        W23604  13.222  16.265   4.970 -0.0029 -0.1711  0.0375
 3325W        W23605   1.427  16.724   4.720 -0.2318  0.2408 -0.0477
 3326W        W23606  17.489   1.480  14.741 -0.0774  0.1874  0.2322
 3327W        W23607  16.293  13.872   1.864 -0.0268  0.3224  0.2497
 3328W        W23608  13.453  14.092  13.250 -0.0273 -0.1637 -0.1444
 3329W        W23609   6.795  16.231  15.866  0.0541 -0.0002  0.0576
 3330W        W23610  10.841  18.060   0.515 -0.1305 -0.5866  0.1118
 3331W        W23611  12.383   9.760   4.054 -0.1671 -0.0289 -0.0051
 3332W        W23612  18.046  12.152   3.686 -0.3444 -0.1271  0.0954
 3333W        W23613  17.708  10.012   1.942 -0.0513  0.0915  0.1633
 3334W        W23614   9.038  10.839  12.091  0.0270 -0.0530  0.0311
 3335W        W23615   4.119  15.407  11.289  0.2830  0.1444  0.0482
 3336W        W23616  14.978   7.216  14.829  0.0313 -0.0250 -0.0587
 3337W        W23617   3.920  11.933   2.162 -0.0673  0.1360 -0.0153
 3338W        W23618   2.882   6.341   4.956 -0.3924  0.0929 -0.0635
 3339W        W23619  11.984  10.871  12.348  0.0873  0.1073  0.0093
 3340W        W23620   5.780  10.063   1.698  0.2922  0.1017  0.2486
 3341W        W23621   2.806  11.433   2.558 -0.1724 -0.0898  0.0089
 3342W        W23622   5.894  10.745  14.794 -0.3072 -0.3109  0.0145
 3343W        W23623   9.797  14.999   1.727  0.1406 -0.4108  0.1327
 3344W        W23624  15.636   8.555  15.458 -0.0891  0.0525 -0.1145
 3345W        W23625   0.462   9.435  14.712 -0.0484 -0.1701  0.2492
 3346W        W23626  10.998   1.281  15.554 -0.0575 -0.0820 -0.0882
 3347W        W23627   2.543   9.952  14.600 -0.3536  0.0142 -0.1928
 3348W        W23628  16.506  17.120   0.205 -0.0592 -0.0862 -0.5429
 3349W        W23629   0.779  10.507  11.994  0.0580 -0.1024  0.0539
 3350W        W23630   3.515   3.027  15.460 -0.3545 -0.1098  0.0431
 3351W        W23631  12.411  15.674   2.981 -0.0477 -0.1689  0.1536
 3352W        W23632  10.834  16.554  14.406  0.1565 -0.1090 -0.1149
 3353W        W23633   1.847  13.680  15.741 -0.3152 -0.0179  0.2142
 3354W        W23634  12.716  15.113  11.879  0.0179  0.1684 -0.0930
 3355W        W23635   8.261   4.547  13.682  0.0305 -0.1781 -0.0122
 3356W        W23636   2.234  17.120   3.028  0.0846  0.0350  0.1123
 3357W        W23637  11.721   5.623  12.333  0.3289 -0.2047 -0.4329
 3358W        W23638   1.794   2.729  11.859 -0.0201 -0.1109  0.0581
 3359W        W23639  17.242  11.719  12.950 -0.0728 -0.2767  0.0649
 3360W        W23640   4.790   2.540  12.089  0.2232 -0.0833 -0.0412
 3361W        W23641   8.065  14.840  14.239  0.1599  0.1456  0.2182
 3362W        W23642  11.887  15.104   0.825 -0.2255  0.0062  0.1403
 3363W        W23643   6.251  12.789  11.205  0.0458  0.1046  0.0551
 3364W        W23644  14.546  14.556   4.500 -0.2346 -0.0411  0.1762
 3365W        W23645   7.759   2.712  13.565  0.4031 -0.0094 -0.2004
 3366W        W23646   3.347   0.006   1.936  0.2762 -0.0830  0.2314
 3367W        W23647  15.177   7.346   0.405 -0.1662 -0.0606  0.1595
 3368W        W23648   8.259  10.765   0.566  0.2146  0.1357 -0.1294
 3369W        W23649  16.749  16.296  15.693  0.1707  0.1951  0.0055
 3370W        W23650   3.063  16.229  12.850 -0.0148  0.2576 -0.1080
 3371W        W23651   9.947  15.255  12.443  0.0223 -0.2085 -0.4043
 3372W        W23652  17.362   2.343  15.276  0.0649 -0.5113 -0.0979
 3373W        W23653  14.752  14.057   1.880  0.3161 -0.0320 -0.0252
 3374W        W23654   4.928  18.067   1.351  0.1018  0.4569  0.1026
 3375W        W23655  10.895   9.035  14.084 -0.1130  0.1558 -0.1338
 3376W        W23656   6.699   3.355   1.964 -0.1246  0.4113 -0.1312
 3377W        W23657  11.704  14.277   0.185  0.1636 -0.0270  0.4315
 3378W        W23658   6.333   6.372   3.649  0.0678 -0.1391  0.2168
 3379W        W23659   2.026  18.148  12.417 -0.0209  0.0915  0.2834
 3380W        W23660  10.749  16.672   4.109  0.0015  0.0625  0.0379
 3381W        W23661   7.769  12.336  14.181 -0.1836 -0.0560 -0.2344
 3382W        W23662   5.689   9.172   3.328  0.1189  0.0197 -0.1585
 3383W        W23663  17.978  16.398   3.385  0.0363  0.0115  0.0870
 3384W        W23664   3.192   9.515  12.229 -0.0320 -0.1696 -0.0732
 3385W        W23665  18.294   9.770   3.305 -0.1739 -0.1176 -0.0283
 3386W        W23666   0.015   6.549   1.671 -0.1084  0.2387  0.0550
 3387W        W23667  16.837  12.869   1.010 -0.0576  0.2122  0.0394
 3388W        W23668   1.594  17.827   1.602  0.0592 -0.0756 -0.0534
 3389W        W23669   1.124   8.527   3.659 -0.2279 -0.1742  0.3404
 3390W        W23670   9.338  17.000   4.389  0.0269  0.2855 -0.2361
 3391W        W23671  15.206   8.702   2.852 -0.1129  0.1655  0.2115
 3392W        W23672   7.581  17.756   1.206 -0.2368 -0.0221 -0.2131
 3393W        W23673   4.421   2.132   1.405  0.2183  0.0913  0.2998
 3394W        W23674   4.335  13.344  12.712  0.1615 -0.1004  0.0415
 3395W        W23675  12.518  10.300   0.162  0.0894 -0.0803  0.0528
 3396W        W23676   5.003   5.671   3.359  0.4226 -0.1524  0.2826
 3397W        W23677   8.291  12.536  15.780  0.0015 -0.1675 -0.1580
 3398W        W23678   1.825   4.233   2.094  0.0185  0.1163  0.1228
 3399W        W23679   4.268  16.440  14.225 -0.0001 -0.2419 -0.0840
 3400W        W23680  16.412  16.665  15.851  0.2238  0.0683 -0.0132
 3401W        W23681  12.872  10.637  14.387 -0.1787 -0.3515 -0.0388
 3402W        W23682   2.775   2.576  14.139 -0.0692 -0.1996  0.1188
 3403W        W23683   7.342   8.045   1.836 -0.0140 -0.2202 -0.0555
 3404W        W23684   0.693  12.666   2.969  0.0709 -0.0573 -0.2732
 3405W        W23685   0.205  14.295   4.082 -0.0497  0.2012 -0.1762
 3406W        W23686  15.308  15.800   3.539  0.1834  0.0662  0.0165
 3407W        W23687   4.939   7.130   3.164  0.3235  0.0184  0.2696
 3408W        W23688   2.305   1.233  13.071  0.3412 -0.0587  0.3313
 3409W        W23689   6.138  17.022  13.572  0.0350 -0.0123  0.0836
 3410W        W23690   1.826   3.874   4.467  0.1545  0.0308 -0.2144
 3411W        W23691   9.556   4.992   0.741  0.0125 -0.1564 -0.3765
 3412W        W23692  10.817  18.156   2.026  0.3560  0.1203  0.0935
 3413W        W23693   4.067   8.210   4.129  0.2766  0.2303  0.1369
 3414W        W23694   3.440   0.801  11.229  0.1496 -0.1821  0.0129
 3415W        W23695  14.636   0.837  11.486  0.1816  0.0661  0.4318
 3416W        W23696   1.770   8.554  13.329 -0.1889  0.0387 -0.3513
 3417W        W23697  16.441  16.437  12.902 -0.2018 -0.1297  0.0434
 3418W        W23698  11.862   4.073   4.558  0.0154 -0.1290 -0.1084
 3419W        W23699   7.820   3.288  11.324  0.0314 -0.0493  0.4274
 3420W        W23700  12.113  10.150   2.813  0.1761  0.1484 -0.0524
 3421W        W23701  13.956  14.055  12.811 -0.0107 -0.1606  0.1467
 3422W        W23702  12.778   0.256   6.108 -0.0312 -0.0121  0.1291
 3423W        W23703   0.873   1.486  11.943  0.0194 -0.1491  0.0965
 3424W        W23704  16.282   8.851   2.227  0.0226  0.0625  0.0334
 3425W        W23705   1.995  11.092  15.784  0.0037  0.0024  0.1394
 3426W        W23706   1.140   4.195  15.647  0.0003 -0.0989  0.0153
 3427W        W23707  10.331   5.900  15.918  0.3558  0.0517  0.1751
 3428W        W23708  11.808  11.374  14.794  0.1548 -0.1488 -0.0364
 3429W        W23709   1.325  11.021   2.087 -0.0310 -0.2326  0.0134
 3430W        W23710  17.761   1.544  15.523  0.1484  0.0350  0.2449
 3431W        W23711   1.707   1.203  13.289  0.0010 -0.1454  0.2987
 3432W        W23712  16.644   7.943   4.943  0.1672  0.0672 -0.0133
 3433W        W23713   1.600   6.007   2.200 -0.0294  0.0449 -0.1117
 3434W        W23714  10.674   0.893   4.223 -0.2980 -0.1300  0.0290
 3435W        W23715   2.038   8.894  13.829 -0.2066  0.0438  0.3174
 3436W        W23716  17.166   4.385  12.998  0.0954  0.2827  0.3267
 3437W        W23717  10.940   6.704   1.982 -0.0980  0.4288 -0.2897
 3438W        W23718  11.215   4.510  15.718  0.0658 -0.2027 -0.0503
 3439W        W23719   7.317   4.096  12.978  0.2702  0.2312  0.1259
 3440W        W23720   3.674   3.696   3.308  0.1676  0.3753  0.3158
 3441W        W23721  17.237  12.195   0.806  0.1846  0.3816 -0.2149
 3442W        W23722   1.240   9.846   0.785  0.0595 -0.0366  0.0510
 3443W        W23723  13.319  16.692  14.343  0.1719 -0.0480 -0.0889
 3444W        W23724   9.814  11.538   2.810 -0.1243  0.2255  0.1292
 3445W        W23725  12.053  12.959  11.487 -0.0365  0.1919  0.0848
 3446W        W23726  17.717  13.041   4.532 -0.1433  0.0492  0.1604
 3447W        W23727   5.718   5.996  15.785  0.0778  0.1584  0.0949
 3448W        W23728   3.907  10.973  11.430 -0.2868  0.3981  0.0457
 3449W        W23729  13.078   4.364   2.144  0.0167 -0.1999 -0.1078
 3450W        W23730  11.961  11.566   2.195 -0.1569  0.2797  0.0639
 3451W        W23731  10.282  14.404   0.461 -0.0587  0.0734  0.2167
 3452W        W23732   2.750   6.974  12.371 -0.0640 -0.0249 -0.1338
 3453W        W23733  17.898   9.776  13.676 -0.0858 -0.3073 -0.0709
 3454W        W23734   0.136   5.710  15.294 -0.1773  0.0905 -0.0746
 3455W        W23735   6.519  15.926   2.265  0.1761  0.0025  0.1122
 3456W        W23736   5.890  13.737   2.525 -0.0478 -0.1157 -0.0947
 3457W        W23737  13.343   2.246   2.432 -0.2514 -0.2694 -0.1171
 3458W        W23738  18.247   5.549   3.415  0.1343 -0.1395  0.1141
 3459W        W23739   5.229   3.456  13.913  0.0154 -0.0287 -0.0252
 3460W        W23740  10.610  14.491   2.451 -0.2338  0.2307 -0.2633
 3461W        W23741   4.566  10.519  13.900 -0.2436  0.0070 -0.1854
 3462W        W23742  13.097  11.531  14.011 -0.2779  0.0577 -0.1451
 3463W        W23743   7.403   3.146  14.432 -0.2244 -0.2003 -0.2951
 3464W        W23744   4.739   4.328   1.940 -0.0189  0.0466  0.2901
 3465W        W23745  14.640   6.425  14.312 -0.2419 -0.1668  0.1413
 3466W        W23746   8.144   2.338   0.554 -0.0310 -0.2985  0.2730
 3467W        W23747   8.591  16.106   3.703 -0.2823  0.1500 -0.0635
 3468W        W23748  11.235  13.006   4.797 -0.0392  0.0387 -0.1917
 3469W        W23749   2.704   0.265   0.795 -0.0714  0.0146 -0.0333
 3470W        W23750   8.850  14.895  15.582 -0.2136 -0.0612  0.2229
 3471W        W23751  13.425   6.803   5.147  0.2757  0.1059  0.0802
 3472W        W23752  15.058  17.111  13.841  0.3316 -0.2085  0.0603
 3473W        W23753  11.006   9.050  11.373  0.0330 -0.2053  0.1294
 3474W        W23754   4.078   4.714   2.664 -0.2213 -0.0488  0.1867
 3475W        W23755   4.140  13.683   1.006 -0.1152 -0.0909 -0.2302
 3476W        W23756  13.378   1.415  12.726  0.1231 -0.0642 -0.1094
 3477W        W23757   4.953   1.141  14.147 -0.0233 -0.0097  0.0289
 3478W        W23758  13.463   4.040   4.907 -0.0191  0.0775 -0.1534
 3479W        W23759   5.472   8.278  11.698 -0.0677 -0.0981 -0.0719
 3480W        W23760  14.558   2.995  11.487 -0.2614 -0.0547 -0.0293
 3481W        W23761   5.591  15.268   2.154 -0.1376 -0.4513 -0.1609
 3482W        W23762  15.931  17.345   4.579  0.0864  0.0227 -0.1165
 3483W        W23763   8.357   4.872   0.025  0.1001 -0.0927 -0.1225
 3484W        W23764   4.045  14.117   1.179 -0.0116 -0.1704  0.2017
 3485W        W23765  13.737   1.824  15.262  0.0157  0.3813 -0.0498
 3486W        W23766  14.077   7.332   0.540 -0.0919 -0.1478  0.0046
 3487W        W23767   5.941  10.833  11.913 -0.1569 -0.2057 -0.0275
 3488W        W23768   8.129  16.107  15.139  0.0220  0.0902  0.0748
 3489W        W23769   6.576  15.479  15.396 -0.1648 -0.0199  0.3802
 3490W        W23770   5.398   4.603  13.299 -0.0309 -0.2032 -0.1219
 3491W        W23771  10.871   2.125   4.510 -0.0481  0.1800 -0.3890
 3492W        W23772   0.395   2.193  10.787 -0.1799  0.3770  0.1749
 3493W        W23773  14.427   3.330   1.224 -0.1794 -0.0553 -0.0042
 3494W        W23774   6.567  15.316  12.078  0.3452 -0.0181 -0.2306
 3495W        W23775   0.595  17.687   3.328  0.0903  0.1874 -0.1378
 3496W        W23776   3.454   0.882  11.736 -0.0807  0.2257  0.2390
 3497W        W23777   7.792   1.190   0.338 -0.1004  0.3069  0.2629
 3498W        W23778   6.647   0.781  14.141  0.0011 -0.2369  0.1889
 3499W        W23779   8.898  10.156   3.622 -0.2414  0.1483 -0.2349
 3500W        W23780   5.572  13.180   3.068 -0.2963  0.1267 -0.1859
 3501W        W23781   3.076  14.803  13.824  0.0699  0.0044 -0.3043
 3502W        W23782   6.751  11.675  11.265 -0.0243 -0.1367 -0.2381
 3503W        W23783  16.381   7.292   1.014 -0.0272 -0.1644  0.0968
 3504W        W23784   2.167  15.588   0.746 -0.0987 -0.0266  0.2582
 3505W        W23785  10.691  15.834   0.936 -0.0731 -0.2459  0.1959
 3506W        W23786  11.246  11.267   2.687  0.2004 -0.0849  0.1004
 3507W        W23787   1.026  13.645  14.538 -0.3149 -0.1406 -0.1505
 3508W        W23788  17.521   1.423  12.480 -0.5197 -0.0714  0.3442
 3509W        W23789   5.875   0.140   1.785  0.0279  0.0111  0.0875
 3510W        W23790   5.753   1.804  13.572 -0.1014  0.0591  0.1622
 3511W        W23791   0.965  14.217  15.221  0.1291  0.0975 -0.0577
 3512W        W23792   5.854  14.342  13.929 -0.1464 -0.0546 -0.0339
 3513W        W23793   7.227  17.118  13.070  0.2487 -0.0578 -0.1647
 3514W        W23794   7.716  14.223   1.050 -0.0404  0.1802 -0.1418
 3515W        W23795   2.088  12.165   0.607 -0.0539  0.4409 -0.2806
 3516W        W23796   9.880   9.925  14.273 -0.1735 -0.1803 -0.0956
 3517W        W23797   0.093  11.713   3.031 -0.0725 -0.1510  0.1020
 3518W        W23798  10.639   0.336   2.954  0.1610  0.1074 -0.0266
 3519W        W23799  12.192  10.304   1.782  0.3519  0.0937 -0.0889
 3520W        W23800   5.137  13.789   3.256 -0.2696 -0.2239 -0.1504
 3521W        W23801  15.149   3.383   1.116  0.0503 -0.0475 -0.2388
 3522W        W23802   8.211  16.137  15.762 -0.2094  0.0187 -0.2991
 3523W        W23803   9.864   9.613  13.333 -0.1069 -0.2016  0.1297
 3524W        W23804   3.181  16.893  15.549  0.0416 -0.1327  0.0979
 3525W        W23805  11.329   9.083   3.431  0.1638  0.1045  0.0682
 3526W        W23806   3.754  13.538  12.085  0.1642  0.0540 -0.1736
 3527W        W23807   9.169   3.106   4.708  0.4084  0.0604  0.1241
 3528W        W23808  17.717   0.502   9.882 -0.1891 -0.1523  0.0919
 3529W        W23809  17.281  16.926   0.014  0.0217  0.2360 -0.1706
 3530W        W23810  12.017   8.599   3.706 -0.0333  0.1982  0.0145
 3531W        W23811   3.062  12.477  14.699 -0.2403  0.2077  0.0507
 3532W        W23812   1.099  12.390   3.189  0.5098 -0.1213  0.1234
 3533W        W23813  10.817  17.230   2.804  0.0555 -0.3479  0.2048
 3534W        W23814  16.933  13.515  11.767  0.0774 -0.0967  0.2998
 3535W        W23815   5.557  17.958  14.864  0.2377 -0.3198 -0.1033
 3536W        W23816   1.801   4.809  12.463 -0.0018  0.0547  0.1276
 3537W        W23817   5.184   9.456  12.630  0.0747 -0.3405 -0.2852
 3538W        W23818  10.048  13.416   1.022  0.0719 -0.1432 -0.1759
 3539W        W23819  12.461   0.684  15.081  0.1579 -0.0017 -0.1949
 3540W        W23820  11.144   2.570   2.485  0.2124 -0.0872  0.1244
 3541W        W23821  16.430  17.144   3.563 -0.1378 -0.1099  0.1303
 3542W        W23822   1.028   4.152   1.465  0.1160 -0.0001 -0.1416
 3543W        W23823  15.546  13.766   3.645 -0.0361  0.3299  0.0167
 3544W        W23824   6.284  12.653  13.319  0.0575 -0.0641  0.0504
 3545W        W23825   8.854   9.864  10.655 -0.0266 -0.0819 -0.0350
 3546W        W23826   5.661   4.082   2.737 -0.1664 -0.0918 -0.0136
 3547W        W23827   7.548   2.840   1.512 -0.0687  0.0292 -0.2059
 3548W        W23828   0.837   6.462   0.613  0.3107 -0.0323  0.1347
 3549W        W23829  15.253   3.044   3.079 -0.0612 -0.0873  0.2726
 3550W        W23830   6.435  16.926   2.484  0.1136  0.1831 -0.0114
 3551W        W23831  12.813  14.766   1.732 -0.0286  0.1974 -0.2776
 3552W        W23832   7.419   6.786  12.008 -0.0522  0.0867  0.1540
 3553W        W23833   1.938   8.898  12.186 -0.0176 -0.0224  0.0848
 3554W        W23834   4.962  15.055  15.106 -0.3242 -0.1485 -0.3300
 3555W        W23835  12.453   2.642   3.295 -0.2369 -0.1990 -0.2149
 3556W        W23836  12.078  10.987   2.498  0.0411 -0.1814  0.1705
 3557W        W23837  16.134  13.852  15.779  0.0623  0.2514 -0.3285
 3558W        W23838   4.940  17.769   3.174  0.2585  0.3625  0.1602
 3559W        W23839   4.836  16.057  15.799  0.3038  0.0716 -0.0452
 3560W        W23840  12.115   8.654   0.863 -0.1980 -0.1825 -0.0401
 3561W        W23841  16.549  12.198   1.636  0.0560  0.1664 -0.0101
 3562W        W23842  17.664   0.268   1.583  0.1840  0.3227 -0.2597
 3563W        W23843  17.710   1.664   2.822  0.0570  0.0611  0.0664
 3564W        W23844  14.214  11.294   1.337 -0.0053 -0.1393 -0.1540
 3565W        W23845   5.912   7.734   0.682  0.1826  0.0054 -0.0029
 3566W        W23846  17.686  13.830   4.657  0.1810  0.3979 -0.1365
 3567W        W23847  17.186   9.274   2.449 -0.2567 -0.0190  0.1842
 3568W        W23848   2.149   0.365  11.812 -0.0300  0.1259 -0.1572
 3569W        W23849   3.971   6.122  12.839  0.2769  0.1194 -0.0212
 3570W        W23850   2.622   4.137   0.296 -0.0973 -0.2469 -0.0381
 3571W        W23851   4.806  10.787  12.409  0.0480 -0.1427 -0.0905
 3572W        W23852  17.198   8.220  13.351 -0.0557 -0.3667  0.0803
 3573W        W23853  11.570   0.477  14.503  0.1112 -0.0781 -0.0593
 3574W        W23854   0.075  15.790   1.486  0.3571 -0.1422  0.0360
 3575W        W23855   6.939  16.978  11.735  0.0558 -0.0927  0.2919
 3576W        W23856   9.037   2.010   1.635 -0.2048  0.3287  0.0114
 3577W        W23857   5.362   9.651  12.127 -0.0726  0.1631  0.1156
 3578W        W23858   2.887   7.922   1.056  0.0448 -0.0972  0.1490
 3579W        W23859   0.685   3.902  12.436  0.3791  0.1299 -0.1055
 3580W        W23860  17.926   9.318  12.396  0.0034  0.2416  0.0896
 3581W        W23861  14.964   2.204   0.758  0.1365  0.0094  0.1027
 3582W        W23862   1.116  17.468  13.213 -0.1314  0.0933 -0.0323
 3583W        W23863   4.313  12.335  15.566  0.1416 -0.0989  0.0918
 3584W        W23864   3.739  13.761   1.401 -0.0347  0.0572  0.2362
 3585W        W23865   3.012  17.352  15.208  0.0221 -0.2262  0.0691
 3586W        W23866   8.832  11.733   3.905  0.3222  0.0357  0.0938
 3587W        W23867  10.899  17.817  15.598 -0.1755 -0.1542  0.0413
 3588W        W23868   4.627  11.653  12.237  0.1715 -0.0007  0.1613
 3589W        W23869   3.066   3.846  13.152  0.0889 -0.0537 -0.0494
 3590W        W23870  12.899  15.432  15.117 -0.2098 -0.1388  0.1108
 3591W        W23871   5.091   0.851  12.850 -0.0789  0.0000  0.0976
 3592W        W23872   7.328  11.460  11.982 -0.2567  0.0377  0.0959
 3593W        W23873   9.394  11.692   2.497 -0.2206  0.0823  0.2833
 3594W        W23874   1.853   8.485   1.229  0.1942 -0.2085 -0.1602
 3595W        W23875   9.608  18.295   4.687  0.0274 -0.1434  0.1038
 3596W        W23876  16.316   9.332  13.499  0.1932  0.1220 -0.0781
 3597W        W23877   3.870   1.256   4.142  0.2215  0.2461  0.0237
 3598W        W23878  12.793   1.862  12.567  0.4502 -0.3241  0.0290
 3599W        W23879  12.428  12.193  13.577  0.0930  0.1638  0.1191
 3600W        W23880  15.355   9.866   0.862 -0.1529 -0.2034 -0.3647
 3601W        W23881  11.185   1.431   0.110  0.0871 -0.2245 -0.1795
 3602W        W23882  16.128  17.754   1.837 -0.1978 -0.0440  0.0774
 3603W        W23883  17.561  15.740  12.520 -0.0147 -0.1831  0.1395
 3604W        W23884   5.871  10.208  14.868  0.0978  0.1706  0.1047
 3605W        W23885  12.767   3.097   4.201  0.0062  0.0583 -0.0112
 3606W        W23886   4.708  16.770  14.938  0.0280  0.0154 -0.1382
 3607W        W23887  14.520   7.396   0.745  0.3325 -0.2200 -0.0826
 3608W        W23888   7.616  15.492   2.424  0.1900  0.0658 -0.1183
 3609W        W23889  14.617   4.980   3.449 -0.0397 -0.0684 -0.0705
 3610W        W23890   2.050   8.073   3.252 -0.0076  0.1111 -0.0120
 3611W        W23891   9.595   6.526  11.633  0.3611  0.3455 -0.1194
 3612W        W23892   8.214  12.651  13.538  0.1300 -0.1731 -0.0343
 3613W        W23893   7.934  14.521   4.771 -0.2123 -0.0861  0.3416
 3614W        W23894   7.013   7.692  11.876 -0.3794 -0.1965 -0.1756
 3615W        W23895  12.781   4.915  12.424  0.0694 -0.0702 -0.2778
 3616W        W23896  10.467   3.964  12.174 -0.3514  0.0691  0.0959
 3617W        W23897   9.733   4.746  15.624  0.0837  0.2438  0.0654
 3618W        W23898  17.379   8.027   0.286 -0.0610  0.0968 -0.4585
 3619W        W23899  18.169   9.188   3.429 -0.3033 -0.0445  0.0553
 3620W        W23900   9.845   3.671  10.918 -0.1004  0.0286 -0.1459
 3621W        W23901   7.693   3.702  11.614  0.0418 -0.0291 -0.0555
 3622W        W23902  14.831  13.548  11.943  0.1222  0.0092  0.0217
 3623W        W23903  11.179   1.626   1.455 -0.1430  0.4185 -0.1335
 3624W        W23904   8.295   1.122   3.910  0.0458 -0.0586 -0.0855
 3625W        W23905  15.041  18.000  12.005  0.0677 -0.2440 -0.0176
 3626W        W23906  10.831   2.513  13.820 -0.0827  0.2753 -0.0016
 3627W        W23907  13.000   8.103  15.254  0.3471  0.0926 -0.1245
 3628W        W23908   5.385  13.954   2.238 -0.0734 -0.2258  0.3198
 3629W        W23909   6.215  11.213   0.765 -0.1196  0.0849 -0.0288
 3630W        W23910  13.400  12.418  15.860  0.0922 -0.1995  0.0208
 3631W        W23911  12.679   7.610   0.488  0.1133 -0.0964  0.1719
 3632W        W23912  13.549   1.345   2.533  0.0135 -0.0226  0.2268
 3633W        W23913  14.974   3.207   4.322 -0.2834 -0.1050  0.4041
 3634W        W23914   2.634  17.835   0.098  0.2539 -0.0305 -0.1809
 3635W        W23915   9.187   5.719  15.196  0.0168 -0.0077 -0.0069
 3636W        W23916  17.294   8.052   0.862  0.1245 -0.1774 -0.2024
 3637W        W23917  14.177  11.026   4.792 -0.1210  0.1613  0.1846
 3638W        W23918   4.711   8.664   3.058  0.2680 -0.0513 -0.0103
 3639W        W23919  17.248  18.261   4.147 -0.0907 -0.0465 -0.0717
 3640W        W23920  18.009   6.616  12.066  0.1675 -0.0539  0.3964
 3641W        W23921   5.542   6.107   1.042 -0.2236 -0.1138 -0.0723
 3642W        W23922  14.935   4.614   3.481 -0.0145 -0.0636 -0.0533
 3643W        W23923  14.105  16.496   4.698 -0.0790  0.0132  0.3316
 3644W        W23924  13.872   0.141   2.532 -0.0841 -0.1870 -0.0144
 3645W        W23925  14.100   9.106  12.475  0.0309  0.2180  0.0744
 3646W        W23926  14.508   4.795   5.286  0.0794 -0.3464  0.1159
 3647W        W23927  16.547   6.266   2.951  0.0732 -0.0524 -0.0949
 3648W        W23928   1.023   1.094   2.106  0.1303 -0.2899  0.1436
 3649W        W23929   7.457   7.547   1.831 -0.1397 -0.1397 -0.2114
 3650W        W23930   2.522   4.629   1.083 -0.0090  0.0103  0.0075
 3651W        W23931   1.546   0.453   1.741  0.2410  0.0259 -0.2954
 3652W        W23932   5.824   0.610  11.986  0.2187  0.1734  0.1786
 3653W        W23933   5.006  14.258   3.774 -0.1266  0.0849 -0.1293
 3654W        W23934  14.406  17.855   0.333  0.0885 -0.0105  0.0077
 3655W        W23935   7.788   9.764  11.592  0.1841 -0.1159 -0.3335
 3656W        W23936  10.230  10.452   0.851 -0.3233 -0.4870 -0.0402
 3657W        W23937  15.543   6.555  15.122 -0.2545  0.0281  0.0407
 3658W        W23938  15.405  16.131  11.697 -0.2422  0.1459 -0.3838
 3659W        W23939   7.119  10.628   0.411 -0.2497 -0.1647  0.2114
 3660W        W23940  13.648  15.777   3.615 -0.0342  0.0096  0.1452
 3661W        W23941  15.050  14.944  11.947  0.3896  0.2117  0.1190
 3662W        W23942  16.442  17.540  14.472  0.1031  0.2011 -0.0273
 3663W        W23943   7.021   9.619  14.898  0.0068 -0.1986 -0.0608
 3664W        W23944   9.061  10.082  13.935 -0.1184 -0.2341 -0.1786
 3665W        W23945   5.419   6.460  12.682 -0.0295 -0.0780  0.0580
 3666W        W23946  17.702   8.840  15.925 -0.1699  0.0259  0.2198
 3667W        W23947  14.335   4.205  12.762 -0.1412  0.2049  0.0962
 3668W        W23948  13.200  15.528  12.022  0.0009 -0.0452  0.0403
 3669W        W23949   0.920   2.113   2.424 -0.1721 -0.0631  0.3936
 3670W        W23950   8.615   2.089  15.131 -0.0742  0.0442  0.2749
 3671W        W23951   9.868   0.601   1.078  0.0493 -0.1239  0.2207
 3672W        W23952  12.527   1.242   2.648  0.0214 -0.0030  0.1554
 3673W        W23953   3.745   0.423  12.854  0.0739  0.1277 -0.0159
 3674W        W23954   2.423  10.237   3.483  0.0371 -0.1893 -0.4497
 3675W        W23955   6.521   9.909   1.173 -0.0240 -0.0420  0.0649
 3676W        W23956   9.675   5.631  13.243 -0.2011  0.0764  0.0271
 3677W        W23957  12.356   9.512   2.339  0.0756 -0.2052 -0.1541
 3678W        W23958  17.208  17.879  14.277  0.1919 -0.4360  0.0421
 3679W        W23959   6.268   6.831   2.486  0.3266  0.1620  0.2828
 3680W        W23960  14.193  13.827  12.415  0.3697 -0.3846 -0.2141
 3681W        W23961  10.108  15.963   2.299 -0.2112  0.2769  0.1970
 3682W        W23962   0.077  16.824  15.845 -0.0310 -0.1340  0.1434
 3683W        W23963  13.245   4.212  12.678 -0.2176  0.1082 -0.2121
 3684W        W23964   1.851  12.320  15.226  0.1374 -0.0108 -0.0957
 3685W        W23965  16.841   8.688  14.362  0.1349  0.1043  0.3168
 3686W        W23966  16.591  11.223  14.636 -0.2214 -0.0198  0.0396
 3687W        W23967  16.263  15.904   2.046  0.1435 -0.2633  0.0253
 3688W        W23968  11.923   2.936  14.546 -0.0789 -0.1318  0.1130
 3689W        W23969  16.625   5.576  15.475 -0.1850  0.1112  0.1238
 3690W        W23970   6.790  11.725  14.035  0.4228  0.0904  0.1627
 3691W        W23971  13.717   4.902  14.952  0.0297 -0.0271  0.0857
 3692W        W23972  15.809  13.640   2.933 -0.3226 -0.2280 -0.0294
 3693W        W23973   8.202   1.628  12.681 -0.2074 -0.0904  0.1260
 3694W        W23974   9.063   7.208   2.689 -0.3994  0.1361  0.0921
 3695W        W23975  13.983   5.711  13.745 -0.1414 -0.0285 -0.3123
 3696W        W23976   5.367  17.047  12.427 -0.0668 -0.0485  0.0512
 3697W        W23977  12.347  18.299   3.941 -0.3344 -0.0308 -0.0839
 3698W        W23978   9.535  13.479  14.369  0.1445 -0.0961 -0.0666
 3699W        W23979   1.258   6.999  15.841 -0.2676 -0.0979 -0.0293
 3700W        W23980  16.726   5.384  11.809  0.1953 -0.1155  0.1116
 3701W        W23981  11.425  15.668  13.860  0.3165 -0.0740 -0.1443
 3702W        W23982  12.515  14.088  13.327 -0.0083  0.0397 -0.1697
 3703W        W23983   1.499   3.901  11.122 -0.4027 -0.0339  0.1852
 3704W        W23984  15.941  11.290  12.640  0.1124  0.1610 -0.0524
 3705W        W23985   5.927   4.677   4.446 -0.1017 -0.0894  0.0792
 3706W        W23986   9.948   2.467  12.854  0.0477 -0.0586 -0.2893
 3707W        W23987   4.578  14.083   4.523  0.2606 -0.0759 -0.1270
 3708W        W23988   3.865  12.928  11.696 -0.0011 -0.0019 -0.0955
 3709W        W23989   4.323   9.745  14.340 -0.1545 -0.0327 -0.0347
 3710W        W23990   1.326  13.635   4.056 -0.0243  0.0503 -0.1850
 3711W        W23991  14.001  17.040   0.749 -0.2069 -0.0206 -0.0831
 3712W        W23992   0.694  12.979  11.928  0.1215 -0.3290 -0.0042
 3713W        W23993  10.667  10.148  12.933  0.0958  0.0291 -0.3136
 3714W        W23994   6.264  13.607  15.611 -0.4056  0.1181  0.1037
 3715W        W23995  10.448  11.560  15.545  0.2338 -0.0032 -0.1755
 3716W        W23996   1.018  16.702   3.101 -0.3137 -0.2848 -0.1044
 3717W        W23997  16.681   6.939   1.144 -0.1206  0.0976  0.1770
 3718W        W23998  17.957  15.717  15.865 -0.0356  0.2040 -0.0873
 3719W        W23999  10.268   9.503  15.193  0.0624  0.2155  0.2175
 3720W        W24000  11.976  16.988   4.257 -0.2743  0.1320  0.2939
 3721W        W24001  12.999   2.850   5.101 -0.0952 -0.0057 -0.2384
 3722W        W24002  10.027   4.749   0.587  0.3223  0.0737 -0.2541
 3723W        W24003   5.622  16.707  11.344 -0.1685  0.1927  0.1673
 3724W        W24004   3.944   5.920  11.933  0.2431 -0.1687  0.0036
 3725W        W24005   8.897  12.622   2.721 -0.2260  0.0194 -0.1956
 3726W        W24006   3.827  14.528   3.018 -0.3827  0.4120  0.0439
 3727W        W24007  15.962   3.089   4.207  0.2571  0.1238  0.0953
 3728W        W24008   6.614   7.396  13.375  0.0618  0.0710 -0.2116
 3729W        W24009  12.163   7.649  14.525 -0.4408  0.0022  0.0441
 3730W        W24010  12.938  11.024   4.127 -0.2824 -0.0330 -0.0064
 3731W        W24011   3.307  18.050  14.657  0.1571  0.2642 -0.2205
 3732W        W24012   4.807  12.851  14.962  0.0581 -0.0569  0.1972
 3733W        W24013  10.633  14.163  13.079  0.0134  0.3166 -0.0950
 3734W        W24014  15.658   2.692  13.136 -0.1668 -0.0875 -0.0989
 3735W        W24015  12.346   1.082  14.034 -0.3324 -0.1559 -0.0527
 3736W        W24016   4.121   5.423   4.578 -0.0116  0.1814 -0.0992
 3737W        W24017   2.730  17.579  14.187 -0.1087 -0.3408  0.0789
 3738W        W24018   9.320  10.566  11.732  0.0885  0.0417 -0.1969
 3739W        W24019   8.538   7.440  11.908 -0.2125  0.0853 -0.1846
 3740W        W24020   3.161   8.854   3.123 -0.2493  0.1497  0.2503
 3741W        W24021   1.561   5.679   0.662  0.0751  0.0543 -0.0028
 3742W        W24022  18.121  10.830   2.026 -0.1246 -0.1945 -0.0623
 3743W        W24023   9.300   8.310  12.880 -0.2024 -0.2316  0.0023
 3744W        W24024   2.109   3.875  11.954 -0.1214  0.2015 -0.1144
 3745W        W24025   7.067   2.985  14.103  0.0545 -0.0730 -0.0020
 3746W        W24026   6.220  11.366   4.580 -0.2427 -0.1445  0.1328
 3747W        W24027   7.364  13.907   1.994  0.0740 -0.0712  0.3030
 3748W        W24028   2.277   2.903   4.946  0.0106  0.3188  0.2648
 3749W        W24029   3.746  15.103  15.664 -0.1484 -0.1330 -0.2821
 3750W        W24030  10.479   9.514   3.702  0.1527 -0.1347 -0.0415
 3751W        W24031  14.801  16.807   3.882 -0.0334 -0.1396  0.0136
 3752W        W24032  17.880   2.760  13.418 -0.0124 -0.2355  0.1751
 3753W        W24033  12.820  13.821  15.325 -0.1632  0.3721 -0.4706
 3754W        W24034   5.371   7.719   0.078 -0.2566  0.0251  0.1984
 3755W        W24035  15.308  14.106   4.848 -0.0054  0.0901  0.0122
 3756W        W24036  10.612   7.093   0.756  0.0419 -0.0052  0.2763
 3757W        W24037  16.074  10.600   2.357 -0.0429 -0.0907  0.1614
 3758W        W24038  13.975   1.492   4.028 -0.1896  0.0285  0.2301
 3759W        W24039  14.089  10.052   0.086 -0.0615  0.1635 -0.2142
 3760W        W24040  16.656  15.951   4.004 -0.2252  0.1995  0.2865
 3761W        W24041  16.096   6.379  12.656 -0.1746 -0.2822 -0.1289
 3762W        W24042   8.397   5.861  15.057 -0.0693 -0.3628  0.1535
 3763W        W24043  12.066  17.207   2.696 -0.0055  0.1361 -0.1696
 3764W        W24044  12.505  13.464  15.485  0.3550  0.2152 -0.0482
 3765W        W24045  14.214  14.111   3.291 -0.2179  0.0792  0.2212
 3766W        W24046   9.622   7.514   0.847  0.4710  0.0938 -0.0532
 3767W        W24047   0.335  17.463  12.878 -0.1047 -0.2457 -0.0133
 3768W        W24048  12.539  16.998   3.461  0.3204 -0.2134  0.2249
 3769W        W24049   1.024  16.464  13.520 -0.0468 -0.1946 -0.0455
 3770W        W24050   4.790   7.114   1.383 -0.1543  0.0785 -0.3110
 3771W        W24051   5.985  17.730  15.472 -0.0045 -0.0085  0.0943
 3772W        W24052  15.007  14.812   0.399 -0.1075  0.0057 -0.1003
 3773W        W24053  10.686   5.743   0.326  0.1058  0.0696  0.1371
 3774W        W24054   7.147  12.181   4.670  0.0609 -0.0920 -0.0590
 3775W        W24055   9.730  16.229   3.324 -0.1197  0.1169 -0.0379
 3776W        W24056   8.392   7.226   3.555  0.0797 -0.1800 -0.0463
 3777W        W24057  15.141  11.573   3.910 -0.1075 -0.0046  0.2158
 3778W        W24058   1.452   1.477  15.554  0.1872 -0.0848 -0.0608
 3779W        W24059  11.482  14.779  14.452 -0.0250  0.0725  0.2049
 3780W        W24060   0.456   6.222   4.705 -0.0533 -0.0137  0.0740
 3781W        W24061  15.455   9.922   2.004  0.4001 -0.0032  0.0021
 3782W        W24062   1.143  11.324   1.638  0.3128 -0.2364  0.2755
 3783W        W24063   6.273   8.972  15.220 -0.5828 -0.4408 -0.0283
 3784W        W24064   7.281   9.619   0.647  0.1020  0.0218 -0.1273
 3785W        W24065  15.381   7.035   2.500  0.1183 -0.0308  0.1456
 3786W        W24066   7.848   3.140  14.912  0.0642  0.0033 -0.0015
 3787W        W24067  14.042  17.015  14.717 -0.0474 -0.1769 -0.0676
 3788W        W24068   9.832   6.367  13.923 -0.2232  0.1566 -0.1040
 3789W        W24069  15.630  12.769  15.655  0.4409 -0.0009 -0.1755
 3790W        W24070  14.099  15.544   3.744 -0.1148 -0.1561  0.0471
 3791W        W24071   7.280   8.683  14.707 -0.0621  0.2523 -0.4951
 3792W        W24072  16.338   7.226   1.542 -0.2042 -0.0081 -0.0005
 3793W        W24073  13.964  12.361   0.770 -0.1044 -0.1188  0.1244
 3794W        W24074   1.369   0.345   3.322  0.0615  0.0119 -0.0906
 3795W        W24075  11.878  12.752   0.027 -0.0075 -0.0578 -0.2871
 3796W        W24076  10.627   2.303   3.497 -0.2336  0.0772 -0.0551
 3797W        W24077  10.668   1.101   1.944  0.0142  0.2687  0.0403
 3798W        W24078  10.632   2.189   4.001 -0.1323 -0.0466  0.0692
 3799W        W24079   2.623  16.614  12.215 -0.0058 -0.0166  0.1030
 3800W        W24080   8.454  18.046   1.428  0.0016  0.0785 -0.0981
 3801W        W24081  11.708   5.897  13.302  0.0318 -0.1390  0.1290
 3802W        W24082  13.778  16.411   2.643 -0.2119 -0.2383  0.0433
 3803W        W24083  13.181   0.159  14.431 -0.0460 -0.0258  0.3530
 3804W        W24084   1.663   9.569   3.015  0.1876  0.1397  0.0437
 3805W        W24085   4.434   3.216   1.703  0.0132  0.1776  0.0906
 3806W        W24086  11.829   3.556  11.617  0.1371  0.3050 -0.2069
 3807W        W24087  12.117  13.792  12.510  0.1002 -0.0648 -0.2190
 3808W        W24088  15.107  15.330   2.488 -0.3987 -0.2027  0.0141
 3809W        W24089  10.247   9.551  15.778  0.1921  0.1584 -0.0656
 3810W        W24090  16.075   4.603   2.453  0.0833 -0.0563  0.2384
 3811W        W24091  16.097   6.958  12.933 -0.1001  0.1190  0.0942
 3812W        W24092   1.786   2.196   1.856  0.2363 -0.1331 -0.0093
 3813W        W24093  17.544   4.669   0.755 -0.0890  0.0407 -0.0600
 3814W        W24094   3.713   9.135  15.926  0.2506  0.0869  0.0414
 3815W        W24095   3.213   5.730   2.510 -0.0044 -0.0452  0.0301
 3816W        W24096   3.715   7.786  15.886  0.2444 -0.1146  0.1999
 3817W        W24097  10.270   3.933   0.445 -0.2005  0.2094  0.1396
 3818W        W24098   1.032   4.919   4.689  0.0326  0.1592 -0.0379
 3819W        W24099   0.690   7.435  11.715  0.2378 -0.1064 -0.0763
 3820W        W24100  15.584  12.126   2.930 -0.0203  0.3172  0.0997
 3821W        W24101  17.384  17.826   1.228 -0.0758 -0.0663  0.0918
 3822W        W24102   2.279   9.423   2.130 -0.2207 -0.0396  0.1719
 3823W        W24103   0.279  13.292  12.093 -0.1242  0.0642  0.1344
 3824W        W24104   1.673  14.594   1.666  0.0017  0.2060  0.1192
 3825W        W24105   6.551   9.358   3.511  0.3054  0.0841  0.1528
 3826W        W24106   9.924  13.541  12.979  0.0051  0.1145  0.0408
 3827W        W24107   3.435  16.912  13.677 -0.2874 -0.1156  0.2516
 3828W        W24108  16.123   4.349  15.263  0.0141  0.0665 -0.0015
 3829W        W24109  14.552   5.495   4.533 -0.1704 -0.0820  0.2735
 3830W        W24110  16.928   7.161  14.017  0.4172 -0.0142 -0.3805
 3831W        W24111   5.633  13.156  13.947 -0.1342  0.2512  0.2317
 3832W        W24112   8.240   1.199  11.580 -0.3291  0.0125 -0.1729
 3833W        W24113  14.791  13.299  14.236 -0.1949 -0.0961 -0.0781
 3834W        W24114   4.514  10.550  14.783  0.1532 -0.1184 -0.1646
 3835W        W24115   6.431   4.930  11.142  0.1333  0.0930  0.2358
 3836W        W24116   9.367   8.357  15.396  0.0557  0.2449  0.4024
 3837W        W24117   5.579  10.269   0.283 -0.0577 -0.1127 -0.1954
 3838W        W24118  11.727   7.018  14.171 -0.0076  0.1362  0.1739
 3839W        W24119   2.083  16.459  15.094  0.3732 -0.0766 -0.3101
 3840W        W24120  12.336   8.273   1.142  0.1101 -0.0685  0.0435
 3841W        W24121   1.465  16.843  11.541  0.1361  0.2366  0.1162
 3842W        W24122   1.322  15.348  14.055  0.0875  0.1457 -0.3900
 3843W        W24123  17.114   1.370  12.199 -0.2013 -0.0215 -0.2013
 3844W        W24124  12.469   5.943  10.678 -0.0190 -0.0626  0.0533
 3845W        W24125   8.429   3.838  14.365 -0.1353 -0.0720  0.3621
 3846W        W24126   9.619  14.107   1.330  0.3924  0.0442  0.1188
 3847W        W24127  17.693   9.413  13.361 -0.0728  0.0061  0.2233
 3848W        W24128   6.003   2.302  15.621 -0.0567  0.1930 -0.3354
 3849W        W24129   4.264   7.367   2.762  0.0441  0.3501 -0.0429
 3850W        W24130  12.222   0.534   0.717  0.2919 -0.2279 -0.0701
 3851W        W24131   6.081  10.962   3.022  0.1100  0.0670 -0.0331
 3852W        W24132   0.448   9.898  14.856 -0.2985 -0.1122  0.1015
 3853W        W24133   7.322   5.449   3.490  0.1693 -0.0998 -0.0448
 3854W        W24134  15.835  17.094  15.104  0.2151 -0.1514 -0.0390
 3855W        W24135   3.476  13.174  13.647 -0.3068 -0.0020  0.1001
 3856W        W24136   9.464  14.470  13.750  0.0450 -0.0841 -0.2662
 3857W        W24137   4.386   8.746  12.389  0.1626 -0.1517 -0.3679
 3858W        W24138   5.298  18.127   3.424  0.1696 -0.0701 -0.0146
 3859W        W24139   4.186  11.694  11.586 -0.2689  0.2764  0.0877
 3860W        W24140  12.889   6.519  12.126 -0.2393  0.4121 -0.1710
 3861W        W24141   2.873  12.084   1.987 -0.0178  0.0593 -0.1805
 3862W        W24142   4.452  17.222   2.542  0.1660  0.2091  0.2061
 3863W        W24143   4.732   0.873  10.365  0.2987  0.2013 -0.1373
 3864W        W24144   3.119   0.356  13.376 -0.2168  0.0478 -0.0609
 3865W        W24145   5.776   3.825   1.258 -0.1736 -0.0285  0.0653
 3866W        W24146   9.463   1.848   3.946  0.0134 -0.1427  0.0927
 3867W        W24147   1.103   5.849  13.489  0.2181  0.1803 -0.0446
 3868W        W24148   1.470  15.355  11.803 -0.0177  0.1419  0.1073
 3869W        W24149   3.349  18.273  13.532  0.3402 -0.4320  0.0435
 3870W        W24150  13.131   6.616   4.306  0.0220  0.0210  0.0024
 3871W        W24151  12.479   2.012   2.070  0.1064 -0.2968  0.2439
 3872W        W24152  12.321  11.473   1.160 -0.1470 -0.0043 -0.1858
 3873W        W24153  15.454  11.662  14.291  0.1039 -0.1987 -0.0778
 3874W        W24154  16.974  12.308  15.256 -0.1958 -0.0448 -0.6139
 3875W        W24155  13.087  17.042  12.235  0.0220  0.2377 -0.0813
 3876W        W24156   3.812  15.740  12.074  0.0447  0.0068 -0.0778
 3877W        W24157   1.386  10.441  15.930  0.1242  0.2487  0.0239
 3878W        W24158   9.122   3.373  14.825  0.1861 -0.0729  0.1490
 3879W        W24159   8.050  16.037  11.483  0.0900 -0.0866 -0.1400
 3880W        W24160  14.695   6.678   4.136 -0.1753  0.2400  0.0290
 3881W        W24161   4.308  11.106  11.657  0.2998  0.1250  0.0471
 3882W        W24162   9.559   1.877  15.735 -0.3351 -0.1879 -0.4565
 3883W        W24163   5.311  15.832   1.286  0.1455  0.1472 -0.1970
 3884W        W24164   5.858  15.727  12.165  0.0069  0.2351  0.1858
 3885W        W24165   1.685  12.476  13.366  0.0234  0.0048  0.0644
 3886W        W24166   7.289   5.120  14.625  0.0854 -0.2402  0.0835
 3887W        W24167  11.147   5.064  12.583 -0.3378 -0.1655 -0.1350
 3888W        W24168  13.851  16.719  11.688 -0.0570  0.0882 -0.2149
 3889W        W24169   6.157   6.182   1.661  0.1688 -0.0321  0.0792
 3890W        W24170   8.342  12.644   3.501  0.1212 -0.1026 -0.0998
 3891W        W24171   2.970   6.581   0.333 -0.3435 -0.1624 -0.0912
 3892W        W24172   0.223   9.692   2.371  0.1002 -0.4690 -0.1123
 3893W        W24173   6.771   2.811  12.434 -0.0117 -0.1051 -0.1975
 3894W        W24174  13.055  14.372  15.499  0.2082 -0.1144  0.0770
 3895W        W24175   9.078  17.790   0.003 -0.0295 -0.0603  0.0633
 3896W        W24176   8.964  10.415   2.659 -0.0275 -0.3206 -0.1759
 3897W        W24177  14.795  17.332   0.573 -0.0014  0.2577  0.1579
 3898W        W24178  13.859  11.061   3.961 -0.2256 -0.0583  0.0507
 3899W        W24179  11.264   8.973  13.769 -0.1650 -0.5622  0.0604
 3900W        W24180   9.845   8.236  11.620 -0.2519  0.2088 -0.1044
 3901W        W24181  17.402   4.865  15.260  0.0481  0.1482  0.2910
 3902W        W24182   4.381   0.335   3.383  0.1631  0.1441 -0.0651
 3903W        W24183   5.735   5.254   3.348  0.0618 -0.2018  0.0979
 3904W        W24184   8.921  15.460  12.471 -0.3948 -0.0707 -0.1222
 3905W        W24185  12.249   5.992   0.682 -0.0923  0.2326 -0.0923
 3906W        W24186  11.104   4.965  15.076 -0.1076  0.0876 -0.0877
 3907W        W24187   9.180  14.089  11.857  0.0075 -0.3122  0.5612
 3908W        W24188   4.853   6.520   0.005 -0.0561 -0.2726  0.2812
 3909W        W24189   3.140  17.616  14.803  0.0840  0.0248  0.1934
 3910W        W24190   9.495   6.637  14.569 -0.0638 -0.0998  0.0365
 3911W        W24191  13.357   7.205  12.139  0.1179  0.0613 -0.0999
 3912W        W24192   1.333  16.851  13.607  0.2587  0.1233  0.0903
 3913W        W24193  11.173  11.573  13.356  0.0794 -0.3123  0.2762
 3914W        W24194  15.042  14.381   2.105 -0.0312 -0.0792 -0.1137
 3915W        W24195   8.571  16.131   2.530  0.0342  0.2730 -0.0341
 3916W        W24196  10.077  11.639   1.028  0.1796  0.0427  0.1598
 3917W        W24197  11.198  17.278   3.613 -0.0054  0.0710 -0.0231
 3918W        W24198   6.830  10.173  13.307  0.1065  0.0623 -0.0319
 3919W        W24199  14.115   2.043   0.426  0.2451 -0.0195 -0.1053
 3920W        W24200  15.552  11.961   1.758  0.0561 -0.0832 -0.1467
 3921W        W24201   1.735   5.125   0.686  0.0093 -0.1692 -0.1648
 3922W        W24202  13.781   1.269  14.779  0.2259 -0.1895  0.1630
 3923W        W24203  14.517   7.905   4.730 -0.0417  0.0503  0.1710
 3924W        W24204  13.540   3.248  12.330 -0.1462 -0.0605 -0.3232
 3925W        W24205  17.873  15.789   2.800  0.2165  0.1921 -0.3597
 3926W        W24206   7.763   8.770  14.235  0.3561  0.2494  0.3593
 3927W        W24207   1.403   7.519   0.238 -0.2684 -0.2206  0.1148
 3928W        W24208  12.835  16.203  14.825 -0.1596  0.0990  0.1189
 3929W        W24209   9.310   0.802  15.157 -0.0247 -0.1024  0.2116
 3930W        W24210  14.444   6.210   2.820 -0.2619 -0.1318 -0.1890
 3931W        W24211  10.233   4.788  11.666  0.1496  0.0020  0.0473
 3932W        W24212   6.043   0.007   3.601  0.1444 -0.0308 -0.3565
 3933W        W24213  17.643   1.546   2.311  0.0734 -0.0916 -0.0454
 3934W        W24214   9.090   5.523   0.015 -0.2098  0.1400  0.0404
 3935W        W24215  15.298  10.080   1.530 -0.0297 -0.0791 -0.0979
 3936W        W24216   0.124  15.328  12.495 -0.0671 -0.0252 -0.3243
 3937W        W24217   4.907  17.323   2.459 -0.1135  0.0367 -0.2528
 3938W        W24218  13.207   4.837  14.679  0.1845  0.0607 -0.0874
 3939W        W24219  10.574   3.430   0.862  0.1984 -0.1330 -0.0595
 3940W        W24220  18.162   1.354   4.591  0.0856 -0.0620 -0.2381
 3941W        W24221  13.270  13.007   3.918  0.1923  0.1556  0.0381
 3942W        W24222   8.082  14.805  15.645 -0.0510 -0.0506  0.0138
 3943W        W24223   3.465   8.827  15.545  0.4879 -0.0758 -0.0737
 3944W        W24224   9.809  10.676  11.592 -0.0236  0.0104  0.1304
 3945W        W24225   0.811   4.216  13.998 -0.1284 -0.0082 -0.0011
 3946W        W24226  15.452   3.409   4.341  0.0994  0.0200  0.1489
 3947W        W24227  12.460   6.447  11.686 -0.0922 -0.1974  0.1524
 3948W        W24228   8.370   7.128   4.423 -0.0724  0.1546 -0.0606
 3949W        W24229   6.966  14.180   0.658 -0.0973  0.0268 -0.1646
 3950W        W24230   3.541   9.817  12.980  0.0041  0.1094  0.0721
 3951W        W24231   8.649  12.643  12.042 -0.0862 -0.2191  0.0160
 3952W        W24232  16.430   9.333  14.962  0.2554 -0.0157 -0.0724
 3953W        W24233  12.778   5.797  11.864 -0.0102 -0.0988  0.1167
 3954W        W24234  10.760  12.801  14.818  0.1383 -0.0377  0.0783
 3955W        W24235   4.250   8.810   1.378 -0.0619 -0.2463  0.2106
 3956W        W24236   2.348  16.035  14.946  0.0130  0.0978 -0.2331
 3957W        W24237  11.108  12.425  14.804  0.1109  0.0360 -0.2655
 3958W        W24238   2.552  11.412   3.005  0.1970 -0.0597 -0.2999
 3959W        W24239   6.216   6.068  13.528  0.0035 -0.1251 -0.0439
 3960W        W24240  16.082   1.689  14.151 -0.1596  0.2831 -0.0403
 3961W        W24241  17.351  12.036  12.515  0.3629 -0.1222 -0.3084
 3962W        W24242  12.276  12.756   2.834  0.3110 -0.1422  0.0946
 3963W        W24243   9.624   2.534   1.911  0.2899  0.0739  0.3511
 3964W        W24244  10.714  11.572  12.035 -0.2834 -0.0675 -0.2730
 3965W        W24245  17.912   3.294   0.112  0.0826  0.1915  0.1423
 3966W        W24246   8.706   2.212  10.982 -0.2572 -0.1883  0.2750
 3967W        W24247  11.412   2.992  12.176 -0.1639 -0.2391 -0.0080
 3968W        W24248   3.539  17.456   0.095 -0.2039 -0.0961  0.2121
 3969W        W24249   2.108   0.015   1.305  0.1262  0.0145  0.3264
 3970W        W24250   5.559   8.144  13.437 -0.0367 -0.1640  0.0167
 3971W        W24251  12.750   9.872   4.357 -0.3143  0.4133  0.0217
 3972W        W24252  15.426  18.011  14.723 -0.0886  0.0206  0.3044
 3973W        W24253   6.669  14.995   1.496  0.3926  0.2982  0.4474
 3974W        W24254   8.898   1.381   4.989 -0.0965 -0.1654 -0.0269
 3975W        W24255  13.542  14.805   4.229  0.1674 -0.1831  0.1242
 3976W        W24256   4.734   9.919  15.137 -0.0529  0.0615  0.3214
 3977W        W24257   7.841   4.883   0.793 -0.3205  0.2003 -0.0342
 3978W        W24258   5.502  14.649   0.679  0.2770  0.1196  0.0125
 3979W        W24259   2.681   9.471  12.865 -0.0034 -0.1024 -0.1647
 3980W        W24260   9.350  13.390   3.229  0.0701  0.0381 -0.0116
 3981W        W24261  17.278  12.708   1.264  0.1348 -0.0491  0.1001
 3982W        W24262   9.902   7.214   2.181  0.3747 -0.1692 -0.0527
 3983W        W24263  15.282   7.483   5.519 -0.2284  0.0501  0.1980
 3984W        W24264   2.220   7.150   3.204  0.3092  0.1199  0.1280
 3985W        W24265  16.612   6.564   0.233  0.0986 -0.2614 -0.0477
 3986W        W24266  14.272  16.677  14.229  0.1244  0.0636 -0.1188
 3987W        W24267   6.442  17.698   2.203  0.3788 -0.0329 -0.5583
 3988W        W24268   0.072   0.091  15.530 -0.0712  0.0924 -0.3135
 3989W        W24269  12.242  12.545   0.442  0.0647  0.0050 -0.1530
 3990W        W24270   2.692  15.355  11.097 -0.1498 -0.2040  0.2337
 3991W        W24271  10.745  16.152  15.426 -0.1565 -0.1268 -0.1584
 3992W        W24272  14.869  13.144  12.286  0.0054  0.0409  0.0220
 3993W        W24273  14.946   3.134  12.532  0.1660  0.0254 -0.1782
 3994W        W24274  15.314   4.599  11.660 -0.1224 -0.1569 -0.3938
 3995W        W24275  14.499   1.183  14.951  0.1257  0.1039 -0.2553
 3996W        W24276  17.786  10.953   3.437 -0.0851  0.0426 -0.0315
 3997W        W24277  15.352   7.299  13.255 -0.2922  0.0771 -0.0549
 3998W        W24278   7.631   3.282   2.290  0.1667 -0.1591 -0.1602
 3999W        W24279  10.925   9.933  14.367  0.0488 -0.1370  0.1406
 4000W        W24280   2.572   9.220  15.346 -0.2384 -0.0720 -0.0653
 4001W        W24281  11.260   7.272  14.259 -0.3534  0.1810  0.0072
 4002W        W24282  15.899  12.823   2.266 -0.0602 -0.2300  0.1224
 4003W        W24283   4.123  13.697  15.315  0.0917 -0.1888  0.0828
 4004W        W24284  13.031   8.019   2.229 -0.1632 -0.0837 -0.0214
 4005W        W24285  10.519   5.672  12.243 -0.2180 -0.0689  0.0740
 4006W        W24286  13.829  11.434   0.976 -0.0537  0.1351 -0.0855
 4007W        W24287   0.777  15.867   3.344 -0.2894  0.0420 -0.0888
 4008W        W24288   5.327   1.870  15.931  0.1760 -0.0356 -0.0941
 4009W        W24289   8.728  11.725   3.392 -0.2336 -0.1081  0.1800
 4010W        W24290   5.406   0.111  14.686 -0.1387  0.0994 -0.0423
 4011W        W24291  16.846   9.524   4.288 -0.0917 -0.0729  0.0130
 4012W        W24292  17.568   4.451  14.751  0.0828 -0.3707  0.2430
 4013W        W24293   8.193   5.461  11.665 -0.4105  0.1486  0.2517
 4014W        W24294   3.119   3.281  15.209  0.1106  0.0163  0.0363
 4015W        W24295   0.559   9.721   3.237  0.1105  0.2460  0.2023
 4016W        W24296   0.041   4.248  13.181 -0.1204 -0.1514  0.1353
 4017W        W24297   3.258   8.672  14.012  0.1330 -0.0923  0.0811
 4018W        W24298   8.589   5.451  13.593 -0.1788 -0.0286  0.2389
 4019W        W24299  12.301  13.148   1.619  0.2003 -0.0290  0.1981
 4020W        W24300   9.285   9.340  11.564 -0.2452 -0.1623 -0.1708
 4021W        W24301   3.002  12.287   1.237  0.3518  0.4094 -0.1241
 4022W        W24302  17.499  13.937  12.948 -0.1667  0.0180  0.0700
 4023W        W24303  14.490  10.195  14.482  0.1488 -0.1338  0.0496
 4024W        W24304   8.560   8.267   3.669  0.1805  0.1197 -0.1351
 4025W        W24305  13.090   1.447  14.487 -0.1978  0.3157 -0.3655
 4026W        W24306   9.736   0.675  13.075 -0.1594  0.4663 -0.2803
 4027W        W24307   4.657   4.858   3.365  0.2029 -0.0261 -0.1757
 4028W        W24308  11.520  14.249   1.901 -0.0187  0.1782  0.0435
 4029W        W24309   7.868  18.157  12.080 -0.0169 -0.2510 -0.2717
 4030W        W24310   4.776   0.923   0.827  0.1353  0.4284 -0.1563
 4031W        W24311  17.323   6.598  12.886  0.1674 -0.0189 -0.2084
 4032W        W24312   7.366   6.580   3.390  0.0189 -0.0891 -0.3699
 4033W        W24313   0.992   1.795  11.407  0.2234 -0.0665 -0.1208
 4034W        W24314  16.330   3.490   1.727 -0.1448 -0.2003  0.1253
 4035W        W24315   4.176  16.917  15.206 -0.1272 -0.0390 -0.3176
 4036W        W24316   2.887  15.145  15.775 -0.1223 -0.0650  0.2880
 4037W        W24317  10.255  11.652   5.180 -0.1697 -0.0135 -0.0756
 4038W        W24318  16.020   7.940  12.871  0.0610  0.1069  0.1228
 4039W        W24319  11.561   0.872  14.111  0.2612  0.1703  0.0470
 4040W        W24320   6.476  12.763  13.995  0.0625 -0.0342  0.1698
 4041W        W24321   5.761  14.901  11.985  0.1773 -0.2329 -0.2006
 4042W        W24322  17.575   5.401   1.737 -0.1217  0.0122 -0.2816
 4043W        W24323  16.893  15.082   0.440  0.1087  0.1371  0.1080
 4044W        W24324  15.887   5.421   5.029 -0.1181 -0.2225  0.2428
 4045W        W24325   8.281   3.437   2.907 -0.1990  0.1315 -0.2882
 4046W        W24326  18.109   7.119   2.254 -0.2991 -0.1286  0.1231
 4047W        W24327  15.811  15.311  14.708  0.0049 -0.1230 -0.1140
 4048W        W24328   4.981   0.681  10.883 -0.0419  0.0416 -0.1401
 4049W        W24329  12.868   6.507  15.287  0.0016  0.0065 -0.2465
 4050W        W24330   9.010   8.341  14.601 -0.1805  0.2705 -0.1397
 4051W        W24331   5.855  13.873  11.266  0.3856  0.1822  0.0616
 4052W        W24332  13.682   8.469   2.456 -0.3628  0.1704 -0.1265
 4053W        W24333   3.928   4.624   2.104  0.0203  0.1189 -0.2070
 4054W        W24334  14.661  15.257  12.496  0.2826 -0.0297  0.2179
 4055W        W24335   0.578   5.690   3.566  0.1067  0.0120  0.4185
 4056W        W24336  15.937   1.932   4.035  0.0143 -0.0637 -0.0208
 4057W        W24337  14.088   8.208   1.887 -0.1856  0.0060  0.0473
 4058W        W24338   4.813  12.143   0.382 -0.3245 -0.0607 -0.0109
 4059W        W24339  15.622   6.934   1.159  0.2047  0.1091  0.0940
 4060W        W24340  18.146   2.806  14.266  0.2910  0.2917  0.0546
 4061W        W24341  10.318   9.061   4.063 -0.1502 -0.0601 -0.2208
 4062W        W24342   8.439  15.511  12.136 -0.1082 -0.0139 -0.1210
 4063W        W24343   6.950  11.380  13.706 -0.0852  0.0773  0.0083
 4064W        W24344  13.234  16.495   1.704 -0.1394  0.0022 -0.0988
 4065W        W24345   1.597  10.459  12.732  0.2436  0.1666 -0.0069
 4066W        W24346  12.574  16.786  15.565 -0.0378 -0.0708 -0.1523
 4067W        W24347   9.168   9.789  11.711  0.2162  0.0269 -0.2433
 4068W        W24348  16.047   4.628   3.446 -0.1274  0.1663 -0.3479
 4069W        W24349  15.349   3.217  12.189  0.3360 -0.1589  0.0027
 4070W        W24350  10.046  11.219  11.815  0.1286 -0.0473  0.0986
 4071W        W24351   0.261   0.001   1.637  0.0406  0.2000  0.4804
 4072W        W24352  18.087   1.279   2.452  0.0034  0.0183  0.1406
 4073W        W24353   2.033  15.317   3.384  0.0107 -0.0833  0.2377
 4074W        W24354   4.507   5.326   2.005  0.1819  0.0534 -0.0723
 4075W        W24355   4.743   8.020   3.001 -0.3252 -0.0230  0.0744
 4076W        W24356  12.432  10.729   4.088  0.0050  0.2080  0.1725
 4077W        W24357  13.710  11.377   2.395 -0.2001  0.1755  0.0350
 4078W        W24358   5.472  17.942  12.571  0.0833 -0.0200  0.0336
 4079W        W24359   2.885  17.052  15.935 -0.1549  0.3098  0.2580
 4080W        W24360   1.291  12.600  15.194 -0.1915  0.1641 -0.2564
 4081W        W24361   2.809   3.969  14.107  0.4691 -0.0839  0.0822
 4082W        W24362   1.663   2.981   2.396  0.1798 -0.0073  0.0264
 4083W        W24363   9.536   9.123  12.522  0.0940 -0.0150  0.3844
 4084W        W24364  15.973  12.988   0.309 -0.1835 -0.1663  0.0030
 4085W        W24365  14.828  10.373   1.399 -0.1234  0.1179  0.1291
 4086W        W24366   2.822  12.056  14.703  0.0624 -0.0061 -0.0768
 4087W        W24367  12.807   8.463  12.496 -0.0768  0.0470 -0.3290
 4088W        W24368   4.022  10.526  13.707  0.0680  0.0573  0.0479
 4089W        W24369   4.398   0.583   0.763 -0.2047 -0.1288 -0.0235
 4090W        W24370  14.942   3.178  15.329  0.1826 -0.2269  0.0833
 4091W        W24371   8.176  11.581  15.722 -0.2127  0.2912  0.1746
 4092W        W24372   8.182   2.147   3.545  0.3431 -0.1512 -0.1044
 4093W        W24373   4.908   7.824  13.835 -0.1099 -0.0063  0.0040
 4094W        W24374  12.655  10.137   3.958 -0.0349  0.0785 -0.0680
 4095W        W24375  12.521  12.229   0.718  0.0464 -0.2536  0.0016
 4096W        W24376  13.883  15.606  12.274 -0.3696 -0.1043  0.0801
 4097W        W24377   7.002   1.397  12.900 -0.0708  0.0666  0.0655
 4098W        W24378  13.650  10.847  14.326 -0.2295 -0.0269  0.0518
 4099W        W24379   4.324   1.228  12.911  0.0020 -0.0800  0.1751
 4100W        W24380   0.057  18.108   1.056  0.0896  0.0497  0.3958
 4101W        W24381  17.225   8.630  12.156 -0.1149 -0.0910 -0.0414
 4102W        W24382   2.691   1.594  11.478 -0.0149  0.1678 -0.0932
 4103W        W24383  14.175  15.693   1.304 -0.1312 -0.1196  0.1914
 4104W        W24384   1.033   2.660   5.410  0.0409 -0.0410  0.1822
 4105W        W24385  16.953   6.369  13.713 -0.2108 -0.0497  0.1216
 4106W        W24386  17.100   4.007  13.316 -0.1283  0.2298  0.0455
 4107W        W24387  12.557  15.217  14.797 -0.0436  0.1713  0.2389
 4108W        W24388   1.449  12.194  14.939 -0.0483  0.0677 -0.3135
 4109W        W24389  14.550  17.806  14.918  0.2394 -0.1556 -0.1867
 4110W        W24390  11.499   6.875   3.777  0.4783  0.0204  0.0455
 4111W        W24391   2.551   7.960  12.735  0.2522  0.0096 -0.2858
 4112W        W24392   4.300  18.232  14.517 -0.0923 -0.3231 -0.0947
 4113W        W24393  15.119  10.308   0.968 -0.3239  0.1818 -0.0781
 4114W        W24394   0.622   8.381  12.461 -0.0917 -0.0221 -0.0120
 4115W        W24395  12.535   0.685   0.133  0.0553  0.0320 -0.2283
 4116W        W24396   6.866   2.514  14.163 -0.0786  0.1799  0.0067
 4117W        W24397   2.312   6.894  12.683  0.2858 -0.1574  0.0501
 4118W        W24398  11.429  13.068   2.206 -0.1980  0.2437  0.1239
 4119W        W24399   0.267  17.748  13.747  0.0835  0.3777  0.2209
 4120W        W24400  13.824   5.669  12.938 -0.0537  0.0007 -0.2506
 4121W        W24401   5.085   0.679  14.238 -0.1647  0.2493  0.1678
 4122W        W24402  14.354  15.235   4.663 -0.1251 -0.0824  0.1176
 4123W        W24403  10.441   2.696   4.220 -0.1085 -0.0496 -0.2836
 4124W        W24404   9.864   1.407  11.087 -0.0102 -0.0698  0.1394
 4125W        W24405  17.195  11.347   2.934  0.0218  0.0706  0.0120
 4126W        W24406   0.392   5.943  12.765 -0.2745  0.1123 -0.0632
 4127W        W24407  11.126  16.184  14.606 -0.0864  0.0444 -0.0425
 4128W        W24408  17.124  15.051   2.808 -0.1157  0.0573 -0.0062
 4129W        W24409  14.496  10.994   2.505 -0.2661 -0.0036 -0.1676
 4130W        W24410  16.044  13.400   0.654 -0.0177 -0.0250  0.2598
 4131W        W24411  14.731  13.594   0.100 -0.0828 -0.1147 -0.1199
 4132W        W24412   8.424  11.861  11.950  0.0820  0.2592 -0.2288
 4133W        W24413  10.067   6.812   3.084  0.0221 -0.1475 -0.1060
 4134W        W24414  17.612   3.454  14.925 -0.1892 -0.1602  0.1143
 4135W        W24415   1.887  14.067  15.427  0.0478 -0.1151 -0.3479
 4136W        W24416  13.063  17.566  13.955 -0.0940  0.0463 -0.0102
 4137W        W24417  14.781   6.903  14.147 -0.1143 -0.1343 -0.3339
 4138W        W24418   6.560   7.059   4.607 -0.3520 -0.0112 -0.1874
 4139W        W24419  16.806  10.708   1.633 -0.1200  0.0418 -0.0247
 4140W        W24420  17.107  13.660   3.019 -0.2270  0.2252 -0.0315
 4141W        W24421  14.542  11.413   4.784  0.0552 -0.0190  0.1365
 4142W        W24422  14.423  17.864  14.400  0.0494  0.0021  0.4100
 4143W        W24423   9.394   4.037  14.188  0.1524 -0.3012  0.2567
 4144W        W24424   0.112  11.196  12.305  0.2417  0.0138  0.3171
 4145W        W24425   7.552   6.069   0.076  0.2430 -0.0893  0.0231
 4146W        W24426   0.079   3.808   0.609 -0.0009  0.2702 -0.1339
 4147W        W24427  12.097  14.852  11.080  0.2331  0.2039 -0.0601
 4148W        W24428   6.644   8.930  14.284 -0.2176  0.2677 -0.0288
 4149W        W24429   3.883   3.795  13.529  0.0025  0.0635 -0.1732
 4150W        W24430  14.094  16.783   5.071  0.0729 -0.2382 -0.0240
 4151W        W24431  11.548   5.717  13.772  0.1898 -0.0195  0.1312
 4152W        W24432  10.970  10.547  15.284  0.0961 -0.0086  0.0783
 4153W        W24433   9.703   5.254   4.274 -0.1307 -0.1432  0.1322
 4154W        W24434   0.900   3.502   1.394  0.2671 -0.1487 -0.0602
 4155W        W24435   5.282   7.605   2.248  0.1062  0.0833  0.0213
 4156W        W24436  15.188   3.624  12.008  0.0251  0.0281 -0.0914
 4157W        W24437  10.916   6.968   1.483 -0.2210 -0.0098  0.1154
 4158W        W24438   8.773   5.356   4.226  0.2975  0.3756  0.0564
 4159W        W24439  14.489  15.626  15.509 -0.0399 -0.3251 -0.2147
 4160W        W24440   2.934   5.058  14.660 -0.0334 -0.0293  0.0120
 4161W        W24441  14.317  10.810  13.096  0.0178  0.0158  0.1351
 4162W        W24442  15.026  14.271  15.558 -0.0090 -0.0312  0.2388
 4163W        W24443   9.807   3.699   2.550 -0.0844  0.3601 -0.0828
 4164W        W24444   0.439   1.015  14.517 -0.1691 -0.0644 -0.0103
 4165W        W24445  13.981  11.906  13.782 -0.0117 -0.0505 -0.1385
 4166W        W24446   8.439   9.541   0.597 -0.1614  0.1438  0.0673
 4167W        W24447  12.007  13.964  13.341 -0.0778 -0.1936 -0.0339
 4168W        W24448  17.458  12.992   2.195 -0.0300  0.0102 -0.0514
 4169W        W24449  14.238  17.326   2.217 -0.2071 -0.2950 -0.1054
 4170W        W24450  15.975  17.023   3.331  0.3123 -0.0459  0.0669
 4171W        W24451  12.625   3.898   3.824  0.0224 -0.0217  0.1238
 4172W        W24452   6.116   8.918   1.906 -0.1095  0.0561 -0.2403
 4173W        W24453  10.976   9.850   2.420 -0.1807 -0.0782 -0.0550
 4174W        W24454   3.493  15.866   0.983  0.0801 -0.2600 -0.0263
 4175W        W24455  10.256  13.968   0.855  0.0550 -0.1700 -0.0303
 4176W        W24456  12.270   1.951  12.516  0.0735  0.1848 -0.4202
 4177W        W24457  16.819  12.569  14.404 -0.2224 -0.0396 -0.1868
 4178W        W24458   1.213   6.045   4.293  0.1069 -0.0899  0.1856
 4179W        W24459   7.242  10.208  14.987 -0.0514 -0.0463 -0.2176
 4180W        W24460  13.333   0.567  12.507  0.1503 -0.0536 -0.0689
 4181W        W24461  11.860  11.714  14.466  0.2971 -0.0952 -0.2086
 4182W        W24462   8.935   6.128  12.988 -0.0698  0.0615 -0.0962
 4183W        W24463   1.902   9.784  13.287  0.1972 -0.0656 -0.2262
 4184W        W24464   2.764   5.426   4.293 -0.1075  0.1097  0.1000
 4185W        W24465   4.652   1.261   3.000 -0.1294 -0.0456 -0.0804
 4186W        W24466  10.003   0.364   1.802 -0.1665  0.0325 -0.1218
 4187W        W24467   4.636  18.078  11.703 -0.0054 -0.0282  0.0566
 4188W        W24468   3.800  14.437   0.834 -0.1192 -0.1586 -0.2065
 4189W        W24469   8.125  14.228  12.488 -0.0486 -0.0462  0.0173
 4190W        W24470   3.003  10.203  11.527  0.1796 -0.1541 -0.1021
 4191W        W24471   3.847   4.476   3.480 -0.0451  0.1178  0.0127
 4192W        W24472  10.531  15.973  15.041 -0.0694 -0.2011  0.2291
 4193W        W24473  16.774   8.693  11.732 -0.1370  0.0292  0.2323
 4194W        W24474   9.448   8.048   1.549  0.0363 -0.1302  0.0750
 4195W        W24475   7.246   2.518  15.315  0.2074  0.2449 -0.0481
 4196W        W24476   5.218   6.220   1.449 -0.2503 -0.0220  0.0322
 4197W        W24477  13.544  12.573   3.877 -0.0362  0.1377  0.3294
 4198W        W24478   1.120   4.326   1.977  0.0168 -0.0936 -0.1405
 4199W        W24479  12.539  10.672   1.580 -0.0919 -0.0225 -0.1270
 4200W        W24480   5.653  17.873   0.162 -0.2297 -0.1971  0.2520
 4201W        W24481  12.401  12.386  15.310  0.1647 -0.0205  0.1922
 4202W        W24482   6.130  16.445  12.671  0.3524 -0.1863  0.0423
 4203W        W24483   2.519  13.379  15.603  0.3378  0.0072  0.0322
 4204W        W24484  13.212   3.204   3.848 -0.0461  0.4601  0.1116
 4205W        W24485   7.154  12.609  13.833  0.2236  0.2370  0.0097
 4206W        W24486   5.593  14.054  11.777  0.0231  0.1917 -0.1485
 4207W        W24487  16.984  14.131  12.389  0.1284 -0.0403 -0.2949
 4208W        W24488  13.605  10.537   0.758  0.2960 -0.2870 -0.0327
 4209W        W24489   4.065  16.922   2.443  0.1388  0.1148 -0.0035
 4210W        W24490  12.614   7.853  15.538  0.1624  0.0865 -0.0917
 4211W        W24491  17.187   7.364   1.619 -0.0654  0.1012  0.2010
 4212W        W24492   4.628  17.196  15.926  0.2645 -0.0068  0.0652
 4213W        W24493  14.853  16.810  12.080 -0.0425 -0.0597  0.0914
 4214W        W24494   6.768  15.853  12.199  0.1083  0.3131  0.1439
 4215W        W24495  13.701  13.240   3.723  0.2943 -0.0025  0.0166
 4216W        W24496  12.907  17.828   3.407  0.0728 -0.0668 -0.2971
 4217W        W24497  10.528  13.394   4.514  0.0766  0.0167  0.0605
 4218W        W24498   0.095   3.398   3.997 -0.3364  0.0301  0.0242
 4219W        W24499  12.121  14.397   2.916 -0.2909 -0.0568 -0.1932
 4220W        W24500   5.798  10.614  15.862  0.1153  0.0551  0.1602
 4221W        W24501   8.456   5.881  11.710  0.1311  0.0048 -0.4019
 4222W        W24502   1.235   3.365  14.959 -0.0104  0.0083  0.1164
 4223W        W24503   4.210  10.168  14.025  0.0996 -0.1713 -0.3395
 4224W        W24504  16.220   4.328   1.558  0.0794 -0.1408  0.2056
 4225W        W24505   0.178   3.328   0.886 -0.1043 -0.2279  0.2632
 4226W        W24506   1.782  11.262   2.300  0.0727 -0.1109  0.3436
 4227W        W24507   1.459   7.484   5.449  0.1253  0.0339 -0.4034
 4228W        W24508  13.637   2.319   2.890  0.1415  0.6242  0.2087
 4229W        W24509  11.998   1.627  12.748 -0.0935  0.0324  0.2235
 4230W        W24510   7.758  11.245   1.459  0.2559  0.0244 -0.1363
 4231W        W24511  16.887  15.835   2.395 -0.0066  0.2243 -0.3576
 4232W        W24512   6.844   2.341   0.200  0.0280  0.3504  0.2568
 4233W        W24513   9.435  14.250   0.163 -0.1739  0.1414  0.1492
 4234W        W24514  11.197  10.194   5.346  0.0272 -0.1311 -0.0346
 4235W        W24515  14.242  11.250   3.643 -0.1266 -0.2601  0.1924
 4236W        W24516  16.818  13.059  12.715 -0.1529  0.2181 -0.0127
 4237W        W24517   2.802   8.571  11.945  0.2734 -0.2107  0.0228
 4238W        W24518  11.729  16.206  15.402  0.0732  0.1670 -0.1472
 4239W        W24519   5.056  15.256  10.783 -0.0482 -0.0657  0.2119
 4240W        W24520   0.876   4.282   2.462  0.1324 -0.2338  0.0757
 4241W        W24521   6.705  12.500  13.580  0.0088 -0.1450 -0.1075
 4242W        W24522  14.377  15.477  12.918  0.0551  0.2331 -0.2306
 4243W        W24523   4.143  17.957  15.271 -0.1106 -0.1369  0.0379
 4244W        W24524  10.436  13.536   0.666  0.2412 -0.0001  0.2215
 4245W        W24525   8.795   9.811   3.217  0.1700  0.0123  0.0147
 4246W        W24526   4.131  12.649   2.451  0.0219 -0.1894  0.1984
 4247W        W24527  13.750  10.220  14.892 -0.2153  0.2010 -0.0588
 4248W        W24528   1.892  14.944   0.705 -0.0327  0.1403  0.2311
 4249W        W24529  11.519  17.697  15.825  0.3494  0.1264  0.1456
 4250W        W24530  11.320   5.309   0.493  0.0900  0.2672  0.0400
 4251W        W24531   4.125  14.624  11.450 -0.2396  0.0311 -0.0217
 4252W        W24532  10.342   3.582   0.061  0.2113 -0.0960 -0.2152
 4253W        W24533  17.581  11.980  12.073 -0.3760 -0.0986  0.1902
 4254W        W24534   1.594  11.345   1.818 -0.0260  0.0154 -0.2036
 4255W        W24535   1.885  17.489  15.261 -0.0694 -0.4028 -0.1197
 4256W        W24536   4.658  15.715  13.372  0.4613  0.0747  0.1863
 4257W        W24537   0.234   3.230   1.835  0.2184 -0.2167  0.3366
 4258W        W24538   2.825   3.602  14.934 -0.4144 -0.0164  0.2522
 4259W        W24539  12.045  11.894   1.745  0.1667 -0.3863  0.0553
 4260W        W24540  11.858   6.114  13.762 -0.2453 -0.0988  0.1495
 4261W        W24541  10.423  12.146  13.676  0.0361 -0.2586 -0.1930
 4262W        W24542  17.144   3.455   4.092 -0.1510 -0.1136  0.0735
 4263W        W24543  18.143  10.289   1.201 -0.2148  0.2803  0.0103
 4264W        W24544   6.163   2.165  12.347 -0.2767  0.4463  0.3820
 4265W        W24545   0.901   7.277   2.117 -0.1730  0.1790  0.0141
 4266W        W24546   9.992   1.399  14.482 -0.1576  0.3168 -0.0848
 4267W        W24547  16.857   3.060   5.340 -0.0977 -0.1052  0.1244
 4268W        W24548  12.148   7.915  12.636  0.1179  0.1039  0.1178
 4269W        W24549  15.632   7.474  12.477  0.0229 -0.1712  0.1565
 4270W        W24550   1.480  10.507  15.371 -0.3441 -0.1187  0.0194
 4271W        W24551  16.017  12.835  14.258 -0.0325  0.1495 -0.3007
 4272W        W24552   6.764   5.929   2.274 -0.0182 -0.2407  0.2953
 4273W        W24553  11.324   8.990   1.711  0.0976  0.1140  0.0066
 4274W        W24554  13.822   8.335   0.476 -0.0793  0.0125 -0.1409
 4275W        W24555   9.497  12.134   3.534  0.0154 -0.3780  0.0129
 4276W        W24556  14.929   9.468  13.504 -0.2221  0.0033 -0.1666
 4277W        W24557  14.722  17.191   2.404  0.0440 -0.0788  0.0131
 4278W        W24558   6.464   5.370  14.493 -0.2002 -0.3655  0.0897
 4279W        W24559  10.615   7.794   4.109 -0.0293 -0.3165 -0.1684
 4280W        W24560   4.374   6.434  12.461 -0.0936 -0.0532 -0.0008
 4281W        W24561   9.251   6.207  13.942  0.0074  0.0024  0.1076
 4282W        W24562  16.725  13.704   1.703  0.2852 -0.3895 -0.2209
 4283W        W24563  18.294   2.860  13.738  0.0888  0.0912 -0.0125
 4284W        W24564   5.948  18.206  13.495  0.0116 -0.0965  0.1359
 4285W        W24565  10.470  14.585   1.245 -0.1828  0.0826  0.0441
 4286W        W24566  16.436  10.985  13.342  0.0048  0.2970  0.0715
 4287W        W24567  12.251  13.415  12.883 -0.2763 -0.2331  0.2382
 4288W        W24568   7.082   9.765   2.012 -0.0769  0.1318 -0.3159
 4289W        W24569  11.445   7.986   1.312 -0.1038 -0.0872 -0.2354
 4290W        W24570  13.831  10.884   0.258  0.0837 -0.0298  0.0486
 4291W        W24571  10.427   1.005  12.752  0.1029 -0.1452  0.2172
 4292W        W24572   3.693   5.015  11.980 -0.1189  0.0924  0.1909
 4293W        W24573  14.126   1.406   4.528 -0.3243 -0.2743  0.0064
 4294W        W24574   1.473  17.877  13.146  0.0477  0.1616 -0.0109
 4295W        W24575   4.371   1.481   0.024 -0.0588 -0.3368 -0.0520
 4296W        W24576  15.939   2.324   3.714  0.1597  0.0329  0.0698
 4297W        W24577  16.432   3.147  15.246  0.2402  0.1962  0.1222
 4298W        W24578  10.394  11.598  11.649 -0.1019  0.1056  0.2653
 4299W        W24579   9.851  14.261  14.077  0.0151  0.1817  0.2523
 4300W        W24580  15.778  15.577   1.904  0.0271  0.2706 -0.2496
 4301W        W24581   7.595   0.633   2.775 -0.0884  0.2088  0.1674
 4302W        W24582  17.645   1.937  14.900 -0.1286  0.0827 -0.4043
 4303W        W24583   6.908   3.465   1.505  0.3516 -0.0577 -0.0224
 4304W        W24584   9.370  17.233  11.676  0.1086  0.1565  0.0173
 4305W        W24585  14.272  16.115   3.340 -0.0585 -0.0554 -0.0718
 4306W        W24586   4.492  14.159   2.864  0.1109  0.2485 -0.1741
 4307W        W24587   8.524   6.426  11.646  0.1253  0.0067 -0.1488
 4308W        W24588   7.775   0.713  12.049 -0.2012 -0.2830 -0.2093
 4309W        W24589   4.118   5.988  15.586 -0.0178 -0.3677  0.2472
 4310W        W24590  12.926  14.916   1.252  0.2323  0.3329 -0.1167
 4311W        W24591   5.761   7.871   2.021 -0.2448  0.0349  0.0346
 4312W        W24592   5.520   5.602   2.981  0.0393 -0.1260 -0.2440
 4313W        W24593   4.893   3.893  12.297  0.1112  0.1454 -0.2033
 4314W        W24594   9.948  16.913  15.533  0.3748  0.2119 -0.0093
 4315W        W24595  11.487   1.370   1.000 -0.3462  0.0423 -0.0855
 4316W        W24596   8.283  11.001  12.320 -0.0030 -0.2356  0.0636
 4317W        W24597  14.238   0.981  12.647  0.0498  0.0026 -0.1881
 4318W        W24598  13.872  13.945  11.570  0.0088 -0.3231 -0.3687
 4319W        W24599   3.868  10.375  13.253 -0.2734 -0.0876  0.0370
 4320W        W24600  13.621  10.204   4.390 -0.1892  0.0310  0.4074
 4321W        W24601   4.231  11.582   3.386  0.2375 -0.0084  0.1541
 4322W        W24602  10.515   6.578   0.547  0.0788  0.0263 -0.4128
 4323W        W24603   2.448  10.751   2.866  0.0536  0.0929 -0.0590
 4324W        W24604   0.697   8.883  13.907 -0.1121 -0.0719 -0.0198
 4325W        W24605  16.628   4.174  15.240  0.1714  0.1011  0.3592
 4326W        W24606  11.339   2.672  10.540  0.3578  0.1182  0.0050
 4327W        W24607  10.064  12.733  14.991  0.0731 -0.2886 -0.1142
 4328W        W24608   4.593   0.817  12.635 -0.1610  0.1269  0.0529
 4329W        W24609  16.427  16.888   4.796 -0.1009  0.0926  0.0268
 4330W        W24610  16.486  11.019  14.103 -0.0189  0.0041  0.1240
 4331W        W24611   7.703  15.945  13.173 -0.0343  0.0153 -0.0943
 4332W        W24612  17.627  10.610  14.661 -0.1003 -0.0754 -0.1361
 4333W        W24613   6.226   1.797  11.912  0.1737  0.1132 -0.0126
 4334W        W24614   5.889   7.138   3.945  0.2094  0.2291 -0.0476
 4335W        W24615   2.002   0.616  15.489 -0.1468  0.0414 -0.1910
 4336W        W24616  13.684   5.338  14.026  0.2027  0.1008 -0.1567
 4337W        W24617   2.044   1.256   4.295 -0.0933  0.2392  0.2918
 4338W        W24618   4.861  11.190  15.423 -0.1240  0.4957 -0.2408
 4339W        W24619   2.905   2.038   4.139 -0.2274 -0.0186 -0.2084
 4340W        W24620   0.732   3.787   2.562  0.1673 -0.0879  0.0341
 4341W        W24621   6.010   9.117   4.579  0.0109  0.0710 -0.1153
 4342W        W24622   3.572  17.282  11.403  0.4973 -0.2111 -0.1606
 4343W        W24623   3.680   2.860  13.029 -0.2244  0.1613  0.1305
 4344W        W24624  12.561   2.374  12.452 -0.2155 -0.2307 -0.0053
 4345W        W24625   0.476  11.645   0.972 -0.3400 -0.0237  0.2607
 4346W        W24626   3.167  15.499   1.860 -0.0625 -0.1129 -0.2814
 4347W        W24627  17.132  12.354  12.913 -0.0989 -0.2757  0.0069
 4348W        W24628   0.333   6.977   2.618  0.1113  0.3666  0.1331
 4349W        W24629   9.522  17.692  13.587  0.2483  0.0647  0.1241
 4350W        W24630   5.738   2.494  10.958 -0.0328 -0.0256 -0.2521
 4351W        W24631  10.949  13.601  14.035 -0.0064 -0.0587  0.1899
 4352W        W24632  14.310   1.280  12.249 -0.0139  0.3396  0.1983
 4353W        W24633   8.305   4.443  14.646 -0.0011  0.0925  0.2466
 4354W        W24634  11.831   9.377  14.354 -0.0891 -0.3320  0.0683
 4355W        W24635   1.843   4.406  14.630  0.0869 -0.0751 -0.0873
 4356W        W24636  11.381  15.953  14.240  0.0795 -0.0686 -0.2100
 4357W        W24637  11.000  17.756   3.593  0.0827  0.0698 -0.0842
 4358W        W24638  15.665   6.519  13.050 -0.1758  0.0290  0.2202
 4359W        W24639  12.108   0.579  15.785  0.0646 -0.1639  0.0327
 4360W        W24640  15.546   7.529  14.034 -0.1711  0.1724  0.1742
 4361W        W24641   3.093   6.257   1.874 -0.1366 -0.1065  0.2358
 4362W        W24642   0.924   5.406  14.422 -0.2419 -0.0303 -0.0402
 4363W        W24643  12.159   0.009  11.206  0.0974  0.1068 -0.0414
 4364W        W24644   0.569   0.879  15.560 -0.0129  0.3023  0.0398
 4365W        W24645  12.105  16.904  11.921 -0.1655  0.1792  0.2595
 4366W        W24646  15.753   0.862   0.184  0.3615 -0.0969  0.0534
 4367W        W24647  10.837   9.541  15.211  0.0195  0.1323 -0.0547
 4368W        W24648   1.754   8.027   4.180  0.1839 -0.0995 -0.2152
 4369W        W24649   4.027   3.497   1.502  0.2058  0.0513 -0.3544
 4370W        W24650  15.807  15.788   5.103  0.0519  0.0914  0.1754
 4371W        W24651   6.537  10.092  12.348  0.1863  0.0745  0.1259
 4372W        W24652   4.830   4.285  11.744  0.0216  0.1246  0.0200
 4373W        W24653  13.157  11.389  15.716  0.1950 -0.2137  0.1416
 4374W        W24654   1.322   6.807   1.420  0.1565  0.1216 -0.1006
 4375W        W24655  12.824   5.890   3.212 -0.0776 -0.0607 -0.1044
 4376W        W24656  10.231  10.011   3.694 -0.2760  0.3141 -0.1988
 4377W        W24657   7.383  13.992  15.862 -0.3240 -0.1089 -0.2492
 4378W        W24658  17.481   2.146  14.397 -0.0949  0.1307 -0.4382
 4379W        W24659   9.419  15.712   1.091 -0.1505  0.0417 -0.1726
 4380W        W24660  15.580   2.628  14.908 -0.0011 -0.3560 -0.3529
 4381W        W24661  12.647  14.665   4.471 -0.0809 -0.1408  0.0276
 4382W        W24662   9.428  12.807  13.172  0.1117 -0.0836 -0.0731
 4383W        W24663  15.759  16.475   1.296 -0.0627 -0.0229 -0.2388
 4384W        W24664   0.599   5.592   0.219 -0.4489 -0.0574 -0.3228
 4385W        W24665   3.056  13.134   3.846  0.3658 -0.1605 -0.1934
 4386W        W24666   8.188   4.748  14.120  0.1554  0.0032  0.0151
 4387W        W24667  10.645  16.736   3.141  0.2820 -0.0504  0.1938
 4388W        W24668   5.144   7.505  15.585 -0.0491 -0.1080 -0.0104
 4389W        W24669   7.548   6.164   1.082  0.0814 -0.1867  0.4797
 4390W        W24670  12.377  11.096  15.529 -0.1095 -0.1493  0.0527
 4391W        W24671  15.334   1.832   1.701  0.1140  0.2696  0.0975
 4392W        W24672  15.219   5.996   3.485 -0.2957 -0.4246  0.0943
 4393W        W24673  11.017  14.870   5.366 -0.1807  0.3405  0.0210
 4394W        W24674   2.492  14.721   3.851  0.0757  0.2338 -0.0226
 4395W        W24675   8.426  15.145  15.483  0.2167  0.0537  0.1589
 4396W        W24676   1.839  10.485  15.698  0.3490  0.2009 -0.3327
 4397W        W24677   8.243  12.929  11.939 -0.2304 -0.1284 -0.2829
 4398W        W24678   4.286   7.869   2.807  0.0595 -0.0468 -0.0990
 4399W        W24679  12.886   4.647   0.398  0.2168 -0.0623 -0.2423
 4400W        W24680   4.972  17.670   0.101  0.3679  0.1219 -0.0238
 4401W        W24681  13.110   4.456  13.289  0.1013 -0.3958 -0.0540
 4402W        W24682   6.069  18.012  13.970  0.1405  0.1188  0.1474
 4403W        W24683   4.021  14.919  13.797  0.1058  0.2255  0.0097
 4404W        W24684  10.174  13.380   4.108 -0.1173  0.2863 -0.0779
 4405W        W24685   4.281  12.315  12.616 -0.0365  0.0754  0.0626
 4406W        W24686  15.337  12.104  14.043 -0.2757  0.2450  0.0402
 4407W        W24687  11.026  12.991   2.430 -0.0904 -0.1703 -0.1746
 4408W        W24688  16.120  11.111  13.736  0.1632 -0.0249  0.0343
 4409W        W24689  10.359  18.063  13.131  0.1677 -0.0290  0.0989
 4410W        W24690  17.985   4.467   1.914 -0.3526  0.0369  0.0504
 4411W        W24691   3.769  14.765   0.427  0.0737 -0.0930 -0.0994
 4412W        W24692   4.287  17.141  12.523  0.1888 -0.3577  0.1027
 4413W        W24693  17.739   7.441  12.480  0.0792  0.1879 -0.3000
 4414W        W24694  15.227   2.378  11.820  0.0502  0.0491 -0.0807
 4415W        W24695   2.429  16.973   1.677 -0.1373  0.0531  0.2494
 4416W        W24696   3.286   9.838   3.778  0.1278 -0.1729 -0.3398
 4417W        W24697   9.663   1.910  13.613 -0.0126 -0.1206  0.1522
 4418W        W24698   1.772  14.791  13.116 -0.1437  0.0111  0.0048
 4419W        W24699  14.472  10.409   1.765 -0.0838  0.1800  0.3751
 4420W        W24700  10.803   5.599   2.416 -0.2109 -0.0039 -0.1167
 4421W        W24701  13.059  17.044  13.839 -0.5078  0.0214 -0.1149
 4422W        W24702   6.828  14.887  12.876  0.1577 -0.0086 -0.1383
 4423W        W24703  18.004   0.463   4.252  0.0968  0.2640 -0.1234
 4424W        W24704  16.518  13.316   0.938 -0.0463  0.5132  0.0346
 4425W        W24705   1.063   5.008   4.199  0.0811 -0.1247 -0.2940
 4426W        W24706  11.671  14.575   3.054 -0.4109 -0.4113  0.0664
 4427W        W24707  18.143   9.059  14.294 -0.0333 -0.0015  0.1332
 4428W        W24708   0.642  17.331   4.078  0.1437 -0.0532 -0.2821
 4429W        W24709  11.261   2.381   1.897  0.3228 -0.2908  0.0819
 4430W        W24710   3.557   4.633  14.130  0.0513 -0.1655 -0.0021
 4431W        W24711  18.189   8.556   0.716 -0.0889  0.2375 -0.3432
 4432W        W24712  15.301   4.008   2.389  0.0618  0.1061  0.0402
 4433W        W24713  15.859  15.377   1.371 -0.1758  0.2195 -0.1313
 4434W        W24714  14.567  12.411  14.392  0.0485  0.3586 -0.2029
 4435W        W24715   2.381   5.909  14.087 -0.2742 -0.0984 -0.1575
 4436W        W24716  17.473   4.344   4.571 -0.1363  0.3161 -0.0787
 4437W        W24717  15.090  12.090   3.784  0.0394 -0.1454  0.0376
 4438W        W24718   5.909   0.999   3.370  0.0197  0.2169  0.1260
 4439W        W24719   5.168  14.556  15.443  0.1260  0.0970  0.0482
 4440W        W24720   8.770  15.233   1.161  0.1537  0.0658  0.1193
 4441W        W24721  11.628   2.750  13.669 -0.3526  0.0460 -0.0471
 4442W        W24722  12.133  11.966  14.060 -0.0554 -0.2198 -0.0996
 4443W        W24723  15.710   3.460   3.881 -0.3597 -0.2322  0.1935
 4444W        W24724  10.968   4.363   2.463  0.3581  0.0787 -0.2003
 4445W        W24725   6.099   6.175   2.192  0.2058 -0.0556 -0.1413
 4446W        W24726  12.593   2.303   1.370 -0.0204 -0.1310  0.1230
 4447W        W24727  14.360  11.130  14.756 -0.0421  0.3053 -0.1366
 4448W        W24728   5.740   1.523  12.757 -0.0975  0.0059  0.1812
 4449W        W24729   5.382   4.102   0.416 -0.1226  0.3600  0.3417
 4450W        W24730   8.540  11.395  13.886 -0.0853 -0.2928 -0.2701
 4451W        W24731  15.601  17.746   2.412  0.2511  0.0662 -0.0305
 4452W        W24732   9.337   9.719   2.571 -0.0804  0.2527 -0.1592
 4453W        W24733   3.264  12.116  13.181  0.1413 -0.1322 -0.1337
 4454W        W24734   5.460  17.012  14.748  0.0567 -0.2606  0.0101
 4455W        W24735   9.331  16.840   2.948  0.0178 -0.0089  0.0029
 4456W        W24736   2.451  15.396   0.066  0.3534  0.0583  0.0881
 4457W        W24737  14.270   5.575  11.698  0.0281  0.3243  0.1981
 4458W        W24738  13.752  12.549   5.765 -0.3091  0.0731 -0.0441
 4459W        W24739   0.833  11.294   5.648  0.1604  0.1538 -0.0062
 4460W        W24740  12.227   5.891   2.028 -0.0735 -0.1776 -0.0426
 4461W        W24741  11.542   3.838   3.217  0.1321 -0.2044  0.0417
 4462W        W24742  17.161  12.249   1.687 -0.2291  0.1897 -0.1603
 4463W        W24743   4.140   2.531  13.755  0.0442 -0.0039 -0.0319
 4464W        W24744   5.639  18.206  13.868  0.1263  0.0357  0.1229
 4465W        W24745   9.669   2.973   4.812  0.2269  0.0649  0.0644
 4466W        W24746  15.309   4.339  15.644  0.1450 -0.0459  0.2340
 4467W        W24747  16.302  12.645  13.232 -0.0009 -0.2049 -0.1866
 4468W        W24748   1.750  15.906   0.605 -0.2268  0.1106 -0.0176
 4469W        W24749  18.018   5.209  12.078  0.1645 -0.1414  0.2367
 4470W        W24750  16.862  12.124  14.664 -0.0542  0.4479  0.1058
 4471W        W24751   6.574  13.185   2.010 -0.1992 -0.0234 -0.0072
 4472W        W24752   0.947   8.947  15.509 -0.1112  0.1196  0.3320
 4473W        W24753  13.891   2.311  15.335  0.0879 -0.1848 -0.1854
 4474W        W24754   9.468   6.863   2.201  0.0710  0.1555 -0.0997
 4475W        W24755   1.902  15.131  11.718 -0.0451  0.2131  0.6183
 4476W        W24756   5.265   8.837  12.527  0.1493 -0.1174 -0.0594
 4477W        W24757  16.901  15.173   3.811  0.0923  0.1215 -0.1394
 4478W        W24758   0.431   9.339   3.493 -0.1403  0.0144 -0.0048
 4479W        W24759   3.286  11.184  11.918  0.3171 -0.1403  0.3366
 4480W        W24760  10.092   1.219   2.028  0.1015 -0.0554  0.2133
 4481W        W24761   4.087   5.486  12.127  0.1681  0.2778  0.2514
 4482W        W24762  17.310   2.098   2.963  0.2553 -0.0552  0.0241
 4483W        W24763   9.028   7.114  14.030  0.0590  0.0192  0.2513
 4484W        W24764   9.120  17.341  11.182  0.0724 -0.0717 -0.0737
 4485W        W24765   8.555   5.250  13.108  0.1762  0.0030  0.1791
 4486W        W24766   3.745  16.138  15.473 -0.0679  0.1819 -0.1692
 4487W        W24767   7.553  14.165  12.634  0.1386 -0.1235 -0.1476
 4488W        W24768   6.999  11.116  11.693  0.3561  0.2164 -0.0778
 4489W        W24769  17.274  17.866   0.013  0.0688  0.1744 -0.0376
 4490W        W24770  16.773  10.585  15.800  0.0110 -0.0457  0.0143
 4491W        W24771  16.513   5.687  12.753 -0.0259  0.2424  0.2091
 4492W        W24772  14.696  12.944   1.876 -0.0113 -0.1374 -0.0110
 4493W        W24773   2.601   0.335  13.359  0.0984  0.1289  0.0731
 4494W        W24774   2.559   0.792  12.699  0.1412  0.1105 -0.1289
 4495W        W24775  16.024  17.571   3.481 -0.0953  0.0415 -0.0956
 4496W        W24776   5.834   5.498  14.880 -0.1346 -0.1532 -0.0965
 4497W        W24777  10.171   7.793  12.391 -0.0374  0.0954 -0.0752
 4498W        W24778  15.239  13.429   3.630 -0.0103 -0.1293  0.2115
 4499W        W24779  17.194  10.892   4.119  0.0354  0.1894 -0.1490
 4500W        W24780   9.029  12.817  15.103 -0.2741 -0.1667  0.1264
 4501W        W24781  17.073   6.244   3.097 -0.1934  0.0923  0.0632
 4502W        W24782  10.837  15.234  15.681  0.1183 -0.3014 -0.1995
 4503W        W24783   3.422  14.845  11.702  0.3826 -0.0136 -0.0169
 4504W        W24784   2.902   3.353   2.180  0.0986  0.0596 -0.0296
 4505W        W24785   2.165  16.099   2.259 -0.0339 -0.2269  0.0639
 4506W        W24786  17.467  15.535  15.638  0.0343  0.0057 -0.1586
 4507W        W24787   1.345   3.651   3.392 -0.1656 -0.0195  0.0590
 4508W        W24788  12.507  16.953  13.816  0.1438  0.0747  0.0639
 4509W        W24789  13.055  14.422   1.235  0.0549  0.4480  0.1985
 4510W        W24790  11.688   0.667   2.159  0.0417  0.2479  0.1212
 4511W        W24791   2.490   5.288  12.853  0.0239  0.2408  0.1466
 4512W        W24792  12.443   7.534   0.016  0.2231  0.1597  0.0275
 4513W        W24793   0.996   1.543   2.616  0.1382  0.2719  0.1542
 4514W        W24794  16.856   3.319   3.319 -0.1971  0.1424 -0.2744
 4515W        W24795   3.239   5.498  15.799  0.1266 -0.1663 -0.0092
 4516W        W24796  10.175  13.805  15.824  0.2301 -0.0870  0.2957
 4517W        W24797   1.391   2.287   4.201  0.0589 -0.0654  0.1792
 4518W        W24798   5.944   7.994   4.423  0.1422 -0.0729 -0.1068
 4519W        W24799   9.275  17.892  14.323  0.0285 -0.1914  0.0274
 4520W        W24800   8.818   0.057  15.826 -0.1914 -0.0207  0.2634
 4521W        W24801  15.111  16.381  13.268 -0.0067 -0.2935  0.1693
 4522W        W24802   8.325  14.397  14.261 -0.2662  0.1026 -0.0953
 4523W        W24803  16.511   6.386  12.301 -0.0678 -0.1622  0.0437
 4524W        W24804  10.959  12.502   2.579 -0.0986  0.2433  0.1451
 4525W        W24805  10.243   5.401   4.411  0.0850  0.0545  0.0276
 4526W        W24806  11.483   1.787  13.841  0.0207 -0.3366  0.3862
 4527W        W24807  11.109  17.387  11.670 -0.1165 -0.0501  0.0715
 4528W        W24808  11.138   7.147   1.055 -0.0531 -0.0444 -0.0146
 4529W        W24809   0.304   7.090   0.029 -0.1943 -0.0501  0.0148
 4530W        W24810   4.409  11.759  14.295 -0.0863 -0.1431 -0.1425
 4531W        W24811  10.872  12.786  13.059  0.0745  0.0716 -0.2340
 4532W        W24812   4.111  18.194  14.033 -0.0407 -0.1200  0.0593
 4533W        W24813  12.221  11.284  14.530 -0.0331  0.1387  0.0174
 4534W        W24814   6.675  17.413   2.525  0.0560  0.2605  0.0899
 4535W        W24815   0.288   4.474   4.203  0.1353 -0.0652 -0.0063
 4536W        W24816   8.234   1.182  12.939  0.0308 -0.2191  0.0385
 4537W        W24817   1.390  14.499  12.152 -0.0817  0.2144 -0.3440
 4538W        W24818   8.364   7.756  14.847 -0.0923  0.1231  0.0164
 4539W        W24819   8.951  12.350  14.101 -0.2750 -0.1028 -0.2047
 4540W        W24820   2.341  13.791  15.785 -0.0880 -0.0187 -0.0330
 4541W        W24821   9.015  16.621  10.600 -0.1342  0.3856 -0.1834
 4542W        W24822   2.198  13.480  11.894  0.1258  0.1963  0.1176
 4543W        W24823  14.473   1.151  15.469  0.0407 -0.4204  0.0068
 4544W        W24824  12.528   6.463   0.728  0.0197  0.1242  0.1675
 4545W        W24825  17.487   9.071   1.349 -0.0663  0.2191 -0.0478
 4546W        W24826   5.403  15.032  14.410 -0.1179  0.0127 -0.0068
 4547W        W24827  15.265  14.491  12.615 -0.3784 -0.1248 -0.0727
 4548W        W24828  17.995   9.126   4.282 -0.0698 -0.0904  0.0002
 4549W        W24829  13.213   7.269  13.137  0.0587  0.0636 -0.0343
 4550W        W24830   4.532  12.951  11.886 -0.1900  0.2299 -0.0504
 4551W        W24831  14.010   5.688   2.122 -0.0008 -0.0530  0.0788
 4552W        W24832   6.077   9.596   1.254 -0.2560 -0.2401 -0.0769
 4553W        W24833   7.427  15.725   3.376 -0.0044  0.0680  0.1301
 4554W        W24834   5.467   2.386   0.002 -0.4852  0.3167 -0.2049
 4555W        W24835   4.001   6.797   3.053  0.3560 -0.1475  0.1539
 4556W        W24836  18.220   2.343  14.040 -0.2188  0.1295 -0.2022
 4557W        W24837   9.319  13.031   4.144 -0.0103 -0.1611 -0.1720
 4558W        W24838  11.211  15.533   1.924 -0.2352 -0.0811  0.1756
 4559W        W24839   6.057   3.596  12.814  0.0476 -0.0373  0.2569
 4560W        W24840  10.761   9.251   1.076  0.0257 -0.0254 -0.1505
 4561W        W24841  17.230   0.865   4.350 -0.4048 -0.1048 -0.0211
 4562W        W24842   3.452   2.561   0.186 -0.1910  0.0770  0.0841
 4563W        W24843  15.085   7.708  14.454  0.2853  0.2751 -0.1102
 4564W        W24844   9.855  17.092   3.560 -0.3394  0.0157 -0.2773
 4565W        W24845   9.013  10.155   4.566 -0.0824 -0.3371 -0.0454
 4566W        W24846   5.317  15.914   2.753 -0.0176  0.0056 -0.3265
 4567W        W24847   8.617  16.942  12.075 -0.0446 -0.1294 -0.0417
 4568W        W24848  17.334  14.225   2.874 -0.0487 -0.0775  0.0811
 4569W        W24849   9.215   2.724   3.877  0.0417  0.0327  0.1609
 4570W        W24850   3.272  15.673  14.534 -0.1207 -0.2263  0.1196
 4571W        W24851  16.944   9.250  15.057  0.0645  0.1275 -0.0555
 4572W        W24852   0.055  11.158   4.670 -0.0116 -0.1107 -0.0914
 4573W        W24853   8.216  10.430  15.251 -0.0249  0.0361  0.0647
 4574W        W24854  17.612   0.521   3.540 -0.0115  0.1723  0.2990
 4575W        W24855  13.324  12.077  13.383  0.0604  0.3061  0.0629
 4576W        W24856   3.114   9.669   4.354  0.1903  0.0902  0.1886
 4577W        W24857  12.443   6.505   1.463  0.0791  0.1934  0.1990
 4578W        W24858  11.611  12.637  12.831 -0.0900 -0.0227  0.1271
 4579W        W24859   4.938  11.077  14.822 -0.0203  0.0457 -0.1853
 4580W        W24860   9.587  11.399  11.585 -0.0193  0.1432 -0.1504
 4581W        W24861   0.783  16.810  13.908 -0.0521 -0.2366  0.2084
 4582W        W24862   2.263  17.733  14.308 -0.0851 -0.2206  0.1029
 4583W        W24863   6.124  10.877   0.341  0.0771  0.1011  0.2040
 4584W        W24864  17.721   6.379   1.103 -0.2164 -0.1785 -0.0519
 4585W        W24865  16.845   3.100  13.767 -0.2513 -0.2383  0.2329
 4586W        W24866   2.758   9.696   0.823 -0.2132 -0.0100 -0.0530
 4587W        W24867   7.348  17.515  11.661  0.1111  0.1306  0.0463
 4588W        W24868   1.207   8.764   2.770  0.1585 -0.1020 -0.2384
 4589W        W24869  11.869   7.650  14.937 -0.0626 -0.3881 -0.2526
 4590W        W24870  12.075   5.583  15.266  0.1634 -0.0960 -0.1407
 4591W        W24871  11.325  10.659  12.077 -0.4235  0.2140 -0.1115
 4592W        W24872   3.792  17.641   1.037 -0.1377 -0.2664  0.1356
 4593W        W24873   7.719   1.956  10.213 -0.2664 -0.1882  0.2220
 4594W        W24874  10.889  17.763  12.016 -0.0745 -0.1434  0.0256
 4595W        W24875  11.710   1.675  12.263 -0.0445 -0.2437  0.0460
 4596W        W24876  10.560   4.846  15.118  0.3496 -0.1276  0.2304
 4597W        W24877  17.121  12.918  14.177  0.0223  0.3056 -0.1835
 4598W        W24878  15.952   9.676   3.905 -0.1331 -0.0442 -0.0707
 4599W        W24879   9.261  15.708   3.286  0.3188  0.1322  0.1849
 4600W        W24880   6.836   7.409   4.332 -0.0387  0.0486  0.0835
 4601W        W24881   5.316   7.791  15.182 -0.1573 -0.0521 -0.4217
 4602W        W24882  12.526  13.328   4.992  0.0133  0.1705  0.0069
 4603W        W24883   3.807   4.649  11.601 -0.3240  0.1995 -0.0520
 4604W        W24884   4.405   6.243   1.495 -0.1806 -0.1510  0.1068
 4605W        W24885   9.761   5.755   5.162 -0.0204  0.2132 -0.0563
 4606W        W24886   0.169  12.300  13.055  0.3642  0.2025 -0.0818
 4607W        W24887  17.697   4.550  12.531 -0.1051 -0.1264 -0.1849
 4608W        W24888   8.165   0.369   1.928 -0.0537 -0.0676  0.1037
 4609W        W24889   0.055   9.259   1.500 -0.0601 -0.3013  0.3409
 4610W        W24890  18.116   1.131   0.384  0.0245  0.1563 -0.1262
 4611W        W24891  18.196   3.072   0.470  0.0382 -0.0714  0.0045
 4612W        W24892   4.515   1.288  12.409 -0.2428  0.0181  0.1016
 4613W        W24893   1.083  15.570   3.100  0.1640  0.0167  0.2950
 4614W        W24894   4.112  16.069   0.896  0.0588  0.0786  0.1456
 4615W        W24895  15.436   9.474  14.573 -0.0675 -0.0661 -0.1478
 4616W        W24896  16.013   1.232  14.559  0.2465  0.2087  0.1181
 4617W        W24897  17.525   0.450   0.773  0.0164  0.0350  0.1571
 4618W        W24898   0.235  16.418  15.594  0.0070  0.0005  0.0940
 4619W        W24899  12.464   1.033  11.181  0.0715  0.1605 -0.3203
 4620W        W24900   3.273   5.594  13.856  0.0224  0.0306 -0.1833
 4621W        W24901   5.395   8.500   1.389  0.0695 -0.0697 -0.0408
 4622W        W24902   8.877  14.409  14.360  0.1819 -0.1980  0.2582
 4623W        W24903   1.121   6.758  14.064  0.1472 -0.1686  0.0917
 4624W        W24904   1.417   2.786   1.519  0.2066  0.0331 -0.2802
 4625W        W24905  16.704  15.021   3.053 -0.2388 -0.0011 -0.2358
 4626W        W24906  16.480   6.899   0.605  0.0097  0.1381 -0.2992
 4627W        W24907  17.715  16.734  12.616  0.0013  0.0060  0.0880
 4628W        W24908   5.494  14.248   3.248 -0.2342 -0.2520  0.0181
 4629W        W24909   4.110  15.392   1.580 -0.3773 -0.2577 -0.2189
 4630W        W24910  17.273   8.114   3.308 -0.2467 -0.2725 -0.0852
 4631W        W24911   3.935   1.945  15.057 -0.1285 -0.0684 -0.1110
 4632W        W24912   4.655  15.078   1.743 -0.1792 -0.3371  0.0174
 4633W        W24913   0.071   2.482  12.132  0.1135 -0.0124 -0.1903
 4634W        W24914   3.384  16.127  14.681  0.2160  0.3621  0.0244
 4635W        W24915   4.233  14.286   1.641  0.3177 -0.0128 -0.0203
 4636W        W24916  11.568   0.972  14.609 -0.0850  0.1454 -0.0331
 4637W        W24917   8.235  18.225  12.622  0.1233 -0.0167  0.4352
 4638W        W24918  11.733   1.219  11.593 -0.0250 -0.0159 -0.1508
 4639W        W24919   1.849  10.998   3.512 -0.4110  0.1940  0.0694
 4640W        W24920   9.673   0.568   0.392  0.0384 -0.0587  0.0227
 4641W        W24921   6.007   9.752  15.394 -0.2621 -0.0467 -0.0746
 4642W        W24922  18.046   1.401  15.893 -0.0852  0.2142 -0.1618
 4643W        W24923  17.346   6.162  14.544  0.0179  0.1312 -0.1287
 4644W        W24924  17.931  15.843  12.190  0.0931 -0.2220  0.4603
 4645W        W24925   0.538   9.678  13.940 -0.1771  0.0354 -0.0613
 4646W        W24926   3.073  15.842   3.208  0.1557  0.0957 -0.1609
 4647W        W24927  14.101  11.960  15.593 -0.1615  0.0170  0.2678
 4648W        W24928   3.958   0.698   3.979  0.0263  0.1111 -0.2232
 4649W        W24929   8.899   8.709   4.674 -0.4006  0.0551 -0.1679
 4650W        W24930   3.437   2.002   3.914  0.2501 -0.2732 -0.1344
 4651W        W24931  14.999   8.537   5.030 -0.0530 -0.1106  0.1202
 4652W        W24932   7.509   2.785   2.495  0.2053 -0.2310 -0.1892
 4653W        W24933  13.074   9.584   3.333 -0.1669 -0.1425 -0.1948
 4654W        W24934   2.887   2.205   0.709 -0.1689 -0.0255 -0.0039
 4655W        W24935   2.174   7.257  14.574  0.0562  0.1123  0.0121
 4656W        W24936  17.428  18.107  13.399  0.0518  0.0484  0.1196
 4657W        W24937   0.684   1.676   2.226 -0.1198  0.0619 -0.0464
 4658W        W24938  10.451   9.548   2.530  0.0470  0.4137 -0.1409
 4659W        W24939   3.932   9.130   4.473 -0.0140 -0.1593 -0.0209
 4660W        W24940   9.666  17.248  15.294  0.0423 -0.3060  0.0158
 4661W        W24941   2.054  15.323  15.676  0.0136 -0.1949  0.0421
 4662W        W24942   9.536   1.821   0.795 -0.0983 -0.0679 -0.2806
 4663W        W24943   6.499  11.234   2.126 -0.0669 -0.1259  0.1520
 4664W        W24944  14.702   8.819  15.228  0.1765 -0.0332 -0.0525
 4665W        W24945   2.809   5.544   2.852 -0.0156  0.1895  0.1149
 4666W        W24946  16.212  16.165   4.408  0.0805  0.0363  0.0471
 4667W        W24947   7.812   7.466   0.480 -0.3683 -0.0795 -0.0568
 4668W        W24948  16.696  13.310  12.249  0.1201  0.1542 -0.3133
 4669W        W24949   6.283  12.072  15.374 -0.1363  0.0134 -0.4732
 4670W        W24950   7.469  13.237  14.892 -0.0114  0.2548  0.1261
 4671W        W24951   5.886   3.322  14.426 -0.3611 -0.2592  0.1609
 4672W        W24952  11.121   9.270  10.537  0.2255 -0.1383 -0.0357
 4673W        W24953  16.696  15.811  14.369 -0.2775 -0.1089 -0.0629
 4674W        W24954  10.361  10.276  11.496 -0.2954  0.2737 -0.0345
 4675W        W24955  15.298   0.802  15.238  0.0240 -0.3661  0.0299
 4676W        W24956   0.960   0.385   0.053 -0.1430 -0.2009  0.0882
 4677W        W24957   9.161  14.183  15.688  0.0869  0.0839  0.2300
 4678W        W24958   3.572  17.584   1.478 -0.1278 -0.1131  0.1049
 4679W        W24959  12.706   4.144   1.247  0.2665 -0.0339  0.0055
 4680W        W24960   3.397  13.183   2.064 -0.0078  0.0374  0.3936
 4681W        W24961  12.471  11.308   0.390 -0.2118 -0.0545 -0.0630
 4682W        W24962  10.688  11.533  11.218  0.2809  0.2392 -0.1795
 4683W        W24963   7.801   9.809  15.800 -0.1691  0.1960  0.1004
 4684W        W24964   2.447  18.169   0.935  0.0448 -0.2588 -0.3412
 4685W        W24965   0.984  15.290   1.870 -0.1424 -0.0361 -0.2608
 4686W        W24966   5.021   7.259  15.166  0.1543  0.3110  0.2288
 4687W        W24967   2.559  12.121   4.704 -0.0262  0.1268 -0.1528
 4688W        W24968   1.797  15.313  14.240 -0.0985 -0.0701  0.3421
 4689W        W24969   7.215   6.441  14.313 -0.1230  0.1308  0.0669
 4690W        W24970   3.790  10.246   0.775 -0.0457  0.0040  0.0796
 4691W        W24971   2.320   7.829  15.315 -0.3042  0.2210 -0.0471
 4692W        W24972  16.020  12.256  15.590  0.0218  0.2401  0.0656
 4693W        W24973  16.995   3.583  11.927 -0.0733 -0.0215 -0.0178
 4694W        W24974   0.940   9.258   4.541 -0.1710  0.0939  0.1020
 4695W        W24975  15.697  17.920  15.147  0.0346 -0.1225  0.1971
 4696W        W24976  18.063  14.120   1.365 -0.0149  0.2859  0.2292
 4697W        W24977  12.868   2.089   0.097  0.2226 -0.1931 -0.0157
 4698W        W24978  17.969  15.583   3.289  0.1427 -0.1441 -0.1720
 4699W        W24979  15.854   4.673   0.379  0.0829  0.1218  0.0171
 4700W        W24980   4.436   1.710   2.342 -0.2090 -0.0622  0.0865
 4701W        W24981   5.416   5.520  13.656 -0.0215  0.0409  0.0481
 4702W        W24982  16.963  12.519   2.532  0.0713  0.0445 -0.1547
 4703W        W24983  11.334   0.788  10.399 -0.3634  0.1008  0.0478
 4704W        W24984  18.132  15.237  11.644  0.0972  0.2171  0.2517
 4705W        W24985  11.139   7.614   2.878  0.2199  0.1851 -0.1489
 4706W        W24986  17.682  18.334  11.104 -0.0058  0.2978  0.2816
 4707W        W24987   0.617   4.739   0.766  0.0004  0.3330 -0.1339
 4708W        W24988   1.274  17.429  14.851  0.0357  0.0092 -0.1026
 4709W        W24989   4.217  13.030   2.766 -0.0377 -0.1714  0.1056
 4710W        W24990   3.404   7.823  13.102 -0.3084  0.1440 -0.0376
 4711W        W24991   5.100   9.180   4.527  0.0212 -0.0994 -0.4461
 4712W        W24992   1.863  17.679   3.138  0.3083  0.2595  0.2412
 4713W        W24993  10.516   9.794   4.109 -0.0135  0.2655 -0.3641
 4714W        W24994  17.734  11.247   3.050  0.0472  0.1966 -0.1623
 4715W        W24995  16.081  16.881   1.971 -0.0175 -0.2045  0.0023
 4716W        W24996  16.312   7.421   3.454 -0.1122 -0.0518  0.0749
 4717W        W24997   5.328  16.494  13.211 -0.0230 -0.4618  0.0539
 4718W        W24998   7.393  16.896   0.596  0.1377  0.2098  0.1579
 4719W        W24999   0.625   4.048   3.874  0.0667  0.1516  0.1348
 4720W        W25000   1.925  17.825   0.615 -0.1064  0.2309 -0.1569
 4721W        W25001   1.891  15.970  15.036 -0.3251 -0.1282  0.3287
 4722W        W25002   4.801   2.035   2.359  0.0024 -0.2196 -0.1448
 4723W        W25003   1.660   4.589   0.952  0.1191 -0.0652 -0.3437
 4724W        W25004   0.238  12.763  14.519 -0.1248 -0.0062  0.0703
 4725W        W25005   8.483  16.820   2.560  0.0566  0.0134 -0.1475
 4726W        W25006  17.297   9.258   0.682 -0.0278  0.1321 -0.3023
 4727W        W25007  12.858   7.447   4.947 -0.2048 -0.0891 -0.0696
 4728W        W25008  11.732   6.734   0.115  0.0608  0.0209  0.1799
 4729W        W25009  10.869   7.932  12.260  0.1855  0.3897  0.1147
 4730W        W25010  10.377  10.395   0.035  0.0761  0.0931  0.1650
 4731W        W25011   2.048   5.890  13.697 -0.1874  0.3591  0.0181
 4732W        W25012   5.420  14.679   0.010 -0.2494  0.1187  0.0063
 4733W        W25013  12.631  11.980  14.033  0.3004 -0.0384 -0.0307
 4734W        W25014  12.118   5.272  13.084  0.0189 -0.1243  0.2770
 4735W        W25015   0.083  15.974  12.459 -0.0519 -0.0566 -0.1878
 4736W        W25016   3.013  13.004  14.535  0.1867 -0.0054 -0.0482
 4737W        W25017   9.288  13.952   4.342 -0.1497  0.0148 -0.1409
 4738W        W25018   9.985   7.169  15.795  0.0232 -0.3055 -0.0230
 4739W        W25019   3.065   8.989  12.140  0.0381  0.3386  0.0502
 4740W        W25020   4.482   4.894   2.872 -0.1031 -0.1188 -0.1602
 4741W        W25021   2.602  14.242  11.643 -0.1115  0.0969 -0.3283
 4742W        W25022  13.363  15.776   0.647 -0.5606  0.0946  0.1446
 4743W        W25023   6.906  13.735  11.969 -0.4618 -0.2513  0.3888
 4744W        W25024  14.359  12.175   0.414 -0.3063 -0.0346  0.0024
 4745W        W25025  11.595   4.601   3.022 -0.1339  0.1193  0.1585
 4746W        W25026   4.713   9.072  14.847 -0.2257  0.0980  0.0686
 4747W        W25027   8.426  16.058  12.396  0.2463  0.2014 -0.0396
 4748W        W25028   9.723   4.134  12.674  0.0231  0.1208  0.1245
 4749W        W25029   9.891   4.464   2.898  0.0970 -0.1132 -0.2504
 4750W        W25030   7.336  11.987  11.864  0.4387  0.0229  0.0833
 4751W        W25031   1.885  10.919  12.028  0.0854 -0.1861 -0.0582
 4752W        W25032   7.680   5.731  13.108  0.5359 -0.0681 -0.2060
 4753W        W25033   7.478  13.128   2.660  0.2483 -0.0858 -0.2739
 4754W        W25034   5.066  17.967  14.761  0.4344  0.1596  0.0018
 4755W        W25035   7.543   7.952   0.579  0.0239  0.3291  0.0268
 4756W        W25036  14.229   6.121  14.293  0.0731 -0.2863  0.1084
 4757W        W25037  16.533   7.814  12.910 -0.3236  0.0831  0.1361
 4758W        W25038   2.928  12.320   0.580  0.1098 -0.2657 -0.1222
 4759W        W25039  11.864  14.558   1.093  0.2245  0.3040 -0.0141
 4760W        W25040  17.343  17.223   0.708  0.5761  0.1214 -0.1691
 4761W        W25041  17.865  10.682   0.139 -0.3937 -0.1004  0.1364
 4762W        W25042  15.815  11.367   0.150  0.2448 -0.0034 -0.2044
 4763W        W25043   6.778   9.002  15.695 -0.4146 -0.0639  0.0331
 4764W        W25044  13.683   7.564   0.849  0.0922  0.1381  0.2930
 4765W        W25045   6.112  17.908   0.010  0.0177  0.2013  0.2630
 4766W        W25046  13.604   5.367   4.678  0.3187 -0.1749 -0.1941
 4767W        W25047  15.462   6.404   1.863  0.0966 -0.0113  0.0644
 4768W        W25048   3.687  10.340  12.142  0.1033 -0.0009  0.0210
 4769W        W25049   8.822  18.228  14.872 -0.1316 -0.1182  0.2786
 4770W        W25050   6.914   8.519   3.012  0.1292  0.2735 -0.1018
 4771W        W25051   5.247  15.403   4.136  0.0472  0.3583  0.1146
 4772W        W25052   6.400   4.799  15.310 -0.3498 -0.2225 -0.0411
 4773W        W25053   0.532   1.936   4.334  0.1791  0.0979 -0.1158
 4774W        W25054  13.202   6.859  11.829  0.0953  0.1876 -0.0371
 4775W        W25055   4.440   6.619  14.539 -0.2079 -0.0262  0.2880
 4776W        W25056   8.276   8.048  14.166  0.0951 -0.0622  0.2254
 4777W        W25057   7.570  10.190  14.619 -0.0290 -0.1258 -0.1522
 4778W        W25058   7.046   5.881   3.872 -0.1163 -0.3362  0.1998
 4779W        W25059  16.831  15.858  11.930 -0.3149  0.0875  0.3880
 4780W        W25060   2.304   0.518  13.813 -0.0041 -0.1017 -0.0522
 4781W        W25061  11.967   4.545   2.237 -0.0551 -0.1123  0.0838
 4782W        W25062  14.009   8.038   0.796  0.0751  0.4166 -0.1488
 4783W        W25063  10.651  14.287   0.877 -0.1307 -0.1627 -0.1772
 4784W        W25064  16.647  14.006  13.433  0.2516 -0.0597  0.3587
 4785W        W25065   0.187  15.953  14.389  0.2929  0.1988  0.1236
 4786W        W25066  15.684   9.362   3.330 -0.0572 -0.0540  0.3834
 4787W        W25067   3.439   6.320  12.660  0.0549  0.1445 -0.2142
 4788W        W25068  13.187   0.099   4.050 -0.0232  0.0393  0.2016
 4789W        W25069  13.392  16.939   4.187 -0.2338  0.0914  0.0137
 4790W        W25070   0.028   9.846  11.383  0.2915 -0.1030 -0.0642
 4791W        W25071   8.628  11.351  15.627  0.1203  0.1503 -0.0265
 4792W        W25072  13.143  10.902  11.638  0.1300  0.0697 -0.1007
 4793W        W25073  12.189  11.243  12.055 -0.0023  0.1493  0.0658
 4794W        W25074  17.108  11.134  14.536  0.0969  0.0652 -0.2377
 4795W        W25075   1.311  16.729   5.201  0.1127 -0.1687 -0.2078
 4796W        W25076  15.209   1.475   2.358 -0.0595 -0.2527 -0.1372
 4797W        W25077  13.971  12.871   2.537  0.1226 -0.0754 -0.0053
 4798W        W25078  14.086   5.389  14.331 -0.2141 -0.0345  0.0515
 4799W        W25079   0.610  17.973  11.333 -0.2312 -0.1432  0.2565
 4800W        W25080  10.422  15.847   2.730 -0.2368  0.1815 -0.0720
 4801W        W25081   7.042   4.694   3.091  0.3537  0.5057  0.1091
 4802W        W25082  14.399  13.871  11.921  0.0043  0.3625  0.2980
 4803W        W25083  13.214   6.199  15.178 -0.0508 -0.1206  0.2909
 4804W        W25084  18.018   5.371   5.667  0.3960  0.2769 -0.0665
 4805W        W25085   7.143  16.126   1.631  0.0116 -0.0646  0.0589
 4806W        W25086  11.362   3.203   0.413 -0.0664 -0.1636 -0.1275
 4807W        W25087   3.033  15.505  10.700 -0.1425  0.0191 -0.2875
 4808W        W25088  15.646  14.363  14.656 -0.0023  0.2138 -0.0032
 4809W        W25089  14.494  10.098   0.986 -0.2133  0.0309 -0.1900
 4810W        W25090  12.994  12.976  14.775 -0.1073  0.0238 -0.1200
 4811W        W25091   3.970  11.899  14.578 -0.0681  0.0860 -0.0831
 4812W        W25092  10.400   4.086   3.792 -0.1125  0.1712  0.0710
 4813W        W25093   9.954  16.960  14.993 -0.1507 -0.0780  0.2021
 4814W        W25094   0.312  15.425  14.405  0.1432 -0.0397  0.3126
 4815W        W25095   9.800  16.342  11.551 -0.0322  0.3125 -0.1756
 4816W        W25096   9.442   8.481   2.309 -0.3600 -0.0140  0.2877
 4817W        W25097  17.231   4.527   3.071 -0.0941 -0.0335  0.1793
 4818W        W25098   2.155  15.189   1.021  0.2131 -0.1224 -0.0060
 4819W        W25099   5.936   1.928   2.346 -0.0799  0.0538  0.1000
 4820W        W25100  14.788  11.036   4.390  0.0503  0.1381  0.3608
 4821W        W25101  15.200   0.768   2.232  0.4171  0.0094  0.1629
 4822W        W25102   6.377   5.311   1.885 -0.2043  0.0141  0.1148
 4823W        W25103  17.765   7.379  12.940 -0.2642 -0.0710 -0.1149
 4824W        W25104  14.948  10.178   5.358 -0.1553  0.0962 -0.1697
 4825W        W25105   6.022   2.720  14.861 -0.0852  0.2672  0.0668
 4826W        W25106   7.476  15.975   2.849 -0.3003 -0.2428 -0.1230
 4827W        W25107   8.889  14.673  12.973 -0.1219 -0.1664  0.3166
 4828W        W25108   0.579  10.965   3.865 -0.0618 -0.2270  0.0363
 4829W        W25109   7.471  16.879   2.712  0.3287 -0.2200  0.1247
 4830W        W25110  13.276   4.606   0.769  0.0192  0.0713  0.1060
 4831W        W25111  10.310  17.139  13.539 -0.1031  0.2886 -0.0017
 4832W        W25112   9.828   7.603  13.307  0.1343 -0.0678 -0.0082
 4833W        W25113  17.254   4.306  13.947  0.1577  0.0651 -0.1012
 4834W        W25114  13.764   6.928  14.824  0.0400  0.0149  0.1207
 4835W        W25115   0.367   7.131  14.499 -0.1842 -0.1739 -0.0069
 4836W        W25116   6.226   1.467  14.159 -0.0827 -0.0409 -0.0654
 4837W        W25117   6.636   2.832   4.220 -0.1934  0.0914 -0.1118
 4838W        W25118   5.921   4.237   3.147 -0.1966 -0.1678 -0.1113
 4839W        W25119   8.766  12.174   0.971  0.1007 -0.0899  0.3292
 4840W        W25120   1.150   5.144   2.311 -0.0139  0.1513  0.0802
 4841W        W25121   8.726   1.967  15.595 -0.1809 -0.2457 -0.1072
 4842W        W25122  13.712   0.693   4.211  0.1334 -0.1500  0.0119
 4843W        W25123   1.617   0.552  15.869  0.0280 -0.2276 -0.1342
 4844W        W25124  17.365  17.638  11.573 -0.1280 -0.2171 -0.0563
 4845W        W25125   1.695  17.402  11.734  0.1531 -0.4747 -0.0440
 4846W        W25126  14.245   8.511   1.055 -0.1224  0.0621  0.0921
 4847W        W25127  10.001   0.221  15.295  0.0292  0.2469  0.3772
 4848W        W25128  18.170   8.033   3.600  0.0064  0.0076 -0.0066
 4849W        W25129   4.452  12.012  12.007  0.4855 -0.1142  0.0014
 4850W        W25130   1.265   8.056   3.696 -0.0605 -0.1169  0.0805
 4851W        W25131  17.103   8.839   2.303 -0.2902  0.1585  0.0742
 4852W        W25132   7.934  14.673  12.099  0.2588 -0.0264 -0.0462
 4853W        W25133   0.943   0.974   0.144  0.1204 -0.0738 -0.2282
 4854W        W25134  18.325   0.403   1.685  0.2022 -0.0606 -0.0519
 4855W        W25135  18.107   2.400  12.533  0.1803  0.0465  0.0970
 4856W        W25136   5.464   2.263  13.687 -0.2315  0.0189 -0.3681
 4857W        W25137  15.446   6.973  12.305  0.0204 -0.0163 -0.2859
 4858W        W25138  17.729  14.895  14.301  0.3146  0.0475 -0.0082
 4859W        W25139   1.187  15.427   4.053 -0.0045 -0.0019  0.1489
 4860W        W25140  10.597   4.993  11.178  0.0788 -0.2670 -0.2746
 4861W        W25141   8.809   5.582   3.749  0.0416  0.1693  0.1180
 4862W        W25142   8.347   4.242   3.532  0.2132  0.0561 -0.0729
 4863W        W25143  11.624   3.516  14.239 -0.1417 -0.0109 -0.0625
 4864W        W25144   8.163   2.517  12.825  0.1168 -0.0612 -0.1424
 4865W        W25145  18.121  16.458   2.174  0.0948  0.0205  0.0290
 4866W        W25146  17.006  11.921  13.306  0.0890  0.0872 -0.0831
 4867W        W25147   2.743  15.484   1.575 -0.2159 -0.2041  0.1638
 4868W        W25148   7.742  16.086  12.712  0.3848  0.1217 -0.0439
 4869W        W25149   7.450   7.805  13.617  0.2476 -0.1306 -0.1068
 4870W        W25150  17.628   6.525   3.719  0.2423  0.0874 -0.0510
 4871W        W25151   0.041  11.313  11.780  0.2826 -0.2160 -0.0920
 4872W        W25152  16.126  14.772  15.848 -0.3512  0.0166 -0.0255
 4873W        W25153   8.977  10.552   5.043  0.0090  0.3242 -0.0345
 4874W        W25154   8.597   4.888  14.989  0.0320  0.3305  0.1431
 4875W        W25155  13.549   8.782  15.784 -0.0243 -0.2954 -0.0807
 4876W        W25156   6.628  14.509  11.099  0.0650 -0.1749  0.0794
 4877W        W25157   8.265  12.795   1.982  0.0191 -0.1039 -0.2822
 4878W        W25158   0.606   3.386  14.216  0.4173  0.0154 -0.0704
 4879W        W25159  15.763  12.678   4.559 -0.2548 -0.0064  0.0307
 4880W        W25160   0.938  15.725  14.089 -0.1278 -0.1827 -0.1762
 4881W        W25161   1.270   8.860   2.255  0.0550 -0.1837  0.1421
 4882W        W25162  14.848   8.139   0.518 -0.0022 -0.0229 -0.0138
 4883W        W25163  15.893   3.618   4.422  0.0031 -0.2904  0.1721
 4884W        W25164   8.389  14.514  12.210 -0.0352 -0.0997 -0.0483
 4885W        W25165  17.210  10.821  13.354  0.0536  0.0782  0.0575
 4886W        W25166   3.564   9.085  13.294  0.2807  0.0219 -0.1806
 4887W        W25167   3.284   4.733   2.846  0.0874 -0.1176 -0.1080
 4888W        W25168   1.919  12.112  13.068 -0.3134 -0.1393  0.4472
 4889W        W25169   7.332   4.122  13.493 -0.3059 -0.0785 -0.0395
 4890W        W25170  12.223   1.805  13.210 -0.0372  0.1176  0.1287
 4891W        W25171  16.396   3.522  13.644  0.2121 -0.1093 -0.3681
 4892W        W25172  17.476  17.614  13.511 -0.2205  0.3539  0.1318
 4893W        W25173   9.841   9.571   0.801 -0.0050 -0.2868 -0.0917
 4894W        W25174  13.235  10.364   1.272 -0.3339  0.0040 -0.0125
 4895W        W25175   2.203   3.167   3.674  0.2026  0.0727  0.0079
 4896W        W25176  12.684   6.245   3.541 -0.3480  0.2848 -0.1061
 4897W        W25177   0.749  12.069   2.557  0.1327 -0.1859  0.1513
 4898W        W25178  10.255  13.741   1.492 -0.4129 -0.1637 -0.2448
 4899W        W25179   1.645  11.849  15.898  0.0632  0.0576 -0.1364
 4900W        W25180   2.638   6.000  10.824 -0.0101 -0.2192  0.2404
 4901W        W25181  17.220   1.775   1.334 -0.1511 -0.1182  0.0248
 4902W        W25182   7.005  17.474   2.109 -0.1634  0.1039  0.0629
 4903W        W25183   8.059  13.850   3.616 -0.0597  0.2473  0.0628
 4904W        W25184   2.333  11.348  12.681 -0.4177 -0.4877  0.3080
 4905W        W25185   0.968   6.371   1.430  0.2087 -0.0113  0.1514
 4906W        W25186   9.173  11.480   5.969 -0.0738 -0.1236  0.0839
 4907W        W25187  15.142   4.226  12.408 -0.2218 -0.1560  0.0184
 4908W        W25188   7.510  12.261   0.034 -0.1980 -0.0735 -0.1708
 4909W        W25189   2.631  15.398   1.063 -0.0372  0.0014  0.0474
 4910W        W25190   5.611   7.384   0.417 -0.2753  0.2748  0.2603
 4911W        W25191   1.479   9.663  14.917 -0.0517  0.1337 -0.4719
 4912W        W25192  12.349   6.449  15.307  0.2473  0.3858 -0.3258
 4913W        W25193   7.232   3.142   1.852 -0.0417 -0.0984  0.0372
 4914W        W25194  15.377   0.574  10.296  0.1216  0.0950  0.2092
 4915W        W25195  16.425   2.621  15.101 -0.0349 -0.1231  0.1793
 4916W        W25196  11.968   7.571  13.551 -0.2288 -0.1135  0.0736
 4917W        W25197   3.419   5.889   4.472  0.2763  0.2775  0.2020
 4918W        W25198   6.575   4.060   3.208  0.2782  0.3134  0.1244
 4919W        W25199  15.345  12.196   0.600  0.2081 -0.0737  0.0839
 4920W        W25200  12.574   5.183   4.395 -0.1683  0.1828  0.1872
 4921W        W25201  13.538  17.648  12.730 -0.2190 -0.1070 -0.0616
 4922W        W25202   3.643   5.873  11.526 -0.1376 -0.0296 -0.0711
 4923W        W25203   8.093  16.789  13.552  0.0300  0.1072  0.2684
 4924W        W25204   0.940   9.722   4.379  0.4449  0.4088  0.2004
 4925W        W25205  16.183  15.186  11.791 -0.1790 -0.0111 -0.1474
 4926W        W25206  10.741   9.707   1.356  0.2327  0.1477  0.1152
 4927W        W25207  12.881   3.906  15.559  0.0635 -0.2469  0.0253
 4928W        W25208  15.413   9.021  13.275 -0.0715  0.1315 -0.2933
 4929W        W25209   1.566  14.589   3.956  0.3106  0.1057 -0.2626
 4930W        W25210   1.640  11.343  12.886 -0.0586  0.0440 -0.1776
 4931W        W25211   1.058  15.771  15.682 -0.1440  0.2147 -0.1617
 4932W        W25212   0.469  17.159   0.602 -0.0388  0.0106  0.0408
 4933W        W25213   6.217   8.040   1.984 -0.0483 -0.3931  0.2957
 4934W        W25214   0.457   9.218  15.608  0.2073 -0.2083  0.0480
 4935W        W25215  12.083   8.889  13.672  0.2541  0.2707  0.2244
 4936W        W25216  11.367   7.508  15.753 -0.0015  0.1531 -0.0289
 4937W        W25217  13.597  11.084   4.869 -0.3025  0.0405 -0.0230
 4938W        W25218   1.311  14.185   3.068  0.0343 -0.1343  0.1694
 4939W        W25219  16.518  13.139  15.487  0.1700  0.0917 -0.1175
 4940W        W25220   3.694  15.629  13.304 -0.0374 -0.3150  0.0571
 4941W        W25221   4.779  13.999   1.717  0.2671 -0.3032  0.1378
 4942W        W25222   4.233   5.736  14.617  0.0428  0.1729  0.3608
 4943W        W25223  10.445   0.602   3.369  0.0368 -0.1442  0.2092
 4944W        W25224  14.059   6.066  14.829  0.0316  0.3156  0.0465
 4945W        W25225   8.264   9.270  11.778  0.1718 -0.2319 -0.1390
 4946W        W25226   1.334  12.071  13.496  0.2160  0.2755  0.3351
 4947W        W25227   4.894  12.042   4.161  0.0748  0.0047  0.1020
 4948W        W25228   3.249   5.475   0.764 -0.0125 -0.2812 -0.1146
 4949W        W25229   6.568  18.282  15.875  0.4145  0.1592 -0.0369
 4950W        W25230   0.157  17.587  14.252  0.1144 -0.0703  0.1982
 4951W        W25231   4.469  17.315  14.313  0.3868 -0.0361  0.2336
 4952W        W25232  15.555   0.628   0.975  0.1963 -0.3585  0.1729
 4953W        W25233   1.445  13.981  14.575  0.2828  0.1100 -0.2485
 4954W        W25234  17.590  10.272  13.772 -0.0189  0.0554  0.0224
 4955W        W25235  14.622  16.777   4.375  0.2303  0.0364  0.1281
 4956W        W25236   9.341   5.861  12.843 -0.2251 -0.0173 -0.0384
 4957W        W25237   0.335  11.189  13.854  0.1334  0.2174 -0.0150
 4958W        W25238   8.364   6.286   2.817  0.0544  0.1360 -0.2801
 4959W        W25239  11.519   6.691  11.627  0.0205  0.0472 -0.2416
 4960W        W25240   0.705  14.650   1.417 -0.2167 -0.0858  0.0690
 4961W        W25241  10.260   1.683   4.047 -0.3012 -0.1178 -0.0277
 4962W        W25242   2.683  17.923   1.702  0.1904 -0.1148 -0.1195
 4963W        W25243   2.448  14.165   3.810  0.0368 -0.4414 -0.1641
 4964W        W25244   7.311   0.275  13.436 -0.1129  0.0022  0.1429
 4965W        W25245   5.181  15.511   0.520  0.1020  0.0355 -0.2325
 4966W        W25246  17.631   3.790   5.222 -0.0589 -0.0415  0.0587
 4967W        W25247   1.649  16.091   2.081 -0.0427  0.2927 -0.0796
 4968W        W25248   1.613   6.470   2.332  0.4574  0.1919 -0.1101
 4969W        W25249   7.464   5.657  14.664 -0.0604  0.0075 -0.0253
 4970W        W25250   7.297  16.139  12.955  0.2080  0.0781 -0.1965
 4971W        W25251   4.881  12.743  11.624  0.1731 -0.2374 -0.0908
 4972W        W25252   8.770   6.389   1.047 -0.0429  0.0607  0.3984
 4973W        W25253  12.891  14.395   4.138 -0.0462 -0.2382  0.0677
 4974W        W25254   3.677   6.602  15.419  0.0621  0.0153 -0.2433
 4975W        W25255  12.331  15.271   2.674 -0.0375  0.0022 -0.1427
 4976W        W25256   6.724   2.900   0.117 -0.1285  0.0611  0.3358
 4977W        W25257   9.048  17.836  15.300  0.0575 -0.1908  0.2283
 4978W        W25258  18.043   2.582   1.959  0.0807  0.0773  0.1894
 4979W        W25259   1.107   4.870  12.493 -0.0600  0.1719 -0.1354
 4980W        W25260   4.812   8.221   4.558 -0.1345  0.1407  0.1456
 4981W        W25261  14.915  11.981   0.833 -0.0687 -0.0401 -0.0274
 4982W        W25262   9.441  16.685  15.382  0.0295 -0.0080  0.0456
 4983W        W25263  10.681   3.623   0.409  0.0986  0.2069  0.0071
 4984W        W25264   1.900   7.123  12.919 -0.0311  0.0073 -0.0634
 4985W        W25265   3.967  16.485  13.105 -0.1917 -0.0711  0.0257
 4986W        W25266   5.705   3.459  15.248 -0.2387  0.1517  0.1270
 4987W        W25267  13.226  12.298   2.365 -0.3479 -0.1024  0.1303
 4988W        W25268   0.341  17.426  15.325 -0.2900  0.1174 -0.0576
 4989W        W25269   5.419   9.913  15.803  0.1942 -0.0732  0.0053
 4990W        W25270   9.789   6.126  11.840  0.1030 -0.0858 -0.0618
 4991W        W25271   2.411   4.126   1.278  0.3802  0.1741 -0.2865
 4992W        W25272   3.713  16.511   0.338  0.0542  0.0350  0.1554
 4993W        W25273   6.789  16.171  14.937 -0.1001  0.2210 -0.0430
 4994W        W25274   4.966  13.223   3.702  0.0939 -0.2040  0.0740
 4995W        W25275  13.720   9.586   0.864 -0.1371  0.2673  0.1667
 4996W        W25276  13.659  15.611   2.408 -0.0472 -0.0420  0.0352
 4997W        W25277  10.073   3.328  12.796  0.1191 -0.3821 -0.1108
 4998W        W25278   0.435   5.122  14.587 -0.0332  0.3368  0.0417
 4999W        W25279   3.377  17.914  12.363 -0.1827 -0.2559 -0.2934
 5000W        W25280   2.159   9.410   4.170  0.1820  0.0088 -0.0158
 5001W        W25281  16.669  14.742   1.224  0.0022 -0.1152 -0.5089
 5002W        W25282  15.064   9.592  14.855 -0.2020 -0.1055  0.2539
 5003W        W25283   7.787   3.865  12.601 -0.1388 -0.0381 -0.2426
 5004W        W25284   5.390   6.573  13.526 -0.1584 -0.0743 -0.2615
 5005W        W25285   4.118   5.989  11.482 -0.1022 -0.0726 -0.0457
 5006W        W25286  11.963  16.117   2.906  0.2456 -0.1435 -0.2368
 5007W        W25287   0.379   7.476  15.579 -0.1063  0.3558 -0.2073
 5008W        W25288  15.933  10.823  11.627  0.0292  0.1834  0.1856
 5009W        W25289  10.222  12.184   0.871  0.0098 -0.0913 -0.1096
 5010W        W25290   8.683  14.072   1.905  0.0231 -0.2830  0.0524
 5011W        W25291   5.246  11.559  12.281  0.0501 -0.2943  0.1902
 5012W        W25292   7.367   0.156   1.515  0.1547  0.1962 -0.3183
 5013W        W25293  15.408   4.868   1.118 -0.1902 -0.0751 -0.2316
 5014W        W25294   9.112   5.874  14.663 -0.0191  0.0128  0.1671
 5015W        W25295   4.572   7.276  12.189 -0.0304 -0.0272 -0.0206
 5016W        W25296   7.861  16.277   1.031  0.1525 -0.0909 -0.1262
 5017W        W25297  12.682   7.155   0.217  0.0056  0.2218 -0.1868
 5018W        W25298  11.336  16.418   2.396 -0.1160  0.0161 -0.1449
 5019W        W25299  15.898   8.113   4.517 -0.1146 -0.3782  0.2331
 5020W        W25300   9.280   1.846  13.333 -0.0330  0.1914  0.1561
 5021W        W25301   1.307  12.759  13.129  0.2442  0.1420  0.1684
 5022W        W25302   2.355  12.238  13.423  0.1326  0.0387  0.1349
 5023W        W25303  12.854   2.742   4.555  0.3750  0.2034 -0.0586
 5024W        W25304   6.062  13.465   1.579  0.2067 -0.2557 -0.1859
 5025W        W25305  10.476  14.210   0.040 -0.0350  0.1325  0.1683
 5026W        W25306  16.966   3.112  12.312  0.1032 -0.2029  0.3178
 5027W        W25307  13.504   1.829   4.828 -0.0106 -0.2670 -0.0356
 5028W        W25308   3.733   2.298   4.885 -0.1614  0.2960  0.0259
 5029W        W25309   3.566  17.046  14.183 -0.2027  0.1205  0.0656
 5030W        W25310  15.652   8.895  12.842  0.0655 -0.0629 -0.1226
 5031W        W25311   8.971   3.243  11.999  0.0834 -0.0286 -0.2648
 5032W        W25312   5.507  16.604   4.917  0.0596  0.0726  0.0682
 5033W        W25313   8.452  14.427   4.780  0.0545 -0.2608  0.0322
 5034W        W25314   1.973   7.611   3.983 -0.0639  0.1932  0.1526
 5035W        W25315   5.936   7.535   1.232 -0.2644  0.1055 -0.0397
 5036W        W25316   7.526  11.415   0.740 -0.0945 -0.4065 -0.2488
 5037W        W25317   9.178  10.341  15.701  0.0591 -0.0501  0.3044
 5038W        W25318   8.069   8.375   3.833  0.0387 -0.1070 -0.1300
 5039W        W25319   2.171  13.611  15.341  0.0578 -0.0080 -0.0552
 5040W        W25320  16.091   9.081   0.300  0.3442 -0.1255 -0.0267
 5041W        W25321  13.779  15.143   2.757  0.1226  0.0823 -0.1788
 5042W        W25322   7.146   6.384   1.061  0.0649 -0.1777 -0.3608
 5043W        W25323   8.607   8.148   0.529  0.0561 -0.0487  0.1081
 5044W        W25324  15.291   9.702   4.460 -0.1000  0.0031 -0.0072
 5045W        W25325   3.538  14.579  14.546  0.2319  0.2706  0.0356
 5046W        W25326   8.048  13.238   1.890 -0.2719  0.2717 -0.4528
 5047W        W25327   6.649   3.872  14.362  0.2743  0.1735  0.1973
 5048W        W25328   0.950   1.961   1.846 -0.1656  0.1084 -0.0310
 5049W        W25329   8.604   8.711  11.243  0.1103  0.0368  0.1541
 5050W        W25330   9.443  13.867  12.166 -0.0190  0.1270 -0.2049
 5051W        W25331   0.607  14.174   4.421 -0.1311 -0.1375 -0.0073
 5052W        W25332  10.166   7.625   2.072  0.0359 -0.0251 -0.0045
 5053W        W25333   6.322  15.054   3.850 -0.5364 -0.0944  0.0469
 5054W        W25334   1.674  16.586  15.535 -0.0187 -0.2837 -0.1766
 5055W        W25335  13.892  12.103   0.275  0.0860  0.2698  0.2187
 5056W        W25336   8.419   6.070   0.276  0.1931  0.0141  0.0411
 5057W        W25337  17.305   2.216   0.175 -0.0996  0.2674 -0.0856
 5058W        W25338  11.362   2.771   2.859  0.1355  0.1766  0.3063
 5059W        W25339   3.423  12.144   5.409  0.2507 -0.1260  0.0847
 5060W        W25340   5.342  10.895  12.984  0.2236  0.0165  0.2530
 5061W        W25341  17.621   8.226   2.899 -0.2985  0.3147 -0.2569
 5062W        W25342   4.671   5.130  11.653 -0.0632 -0.1485  0.1157
 5063W        W25343   0.771  15.655   3.878 -0.2613  0.0157  0.0651
 5064W        W25344  17.723  18.258   3.857 -0.0672  0.0243  0.0598
 5065W        W25345   1.727  14.328   2.194 -0.1306  0.0295 -0.1020
 5066W        W25346   5.158  14.215   0.130  0.1819 -0.1863 -0.0159
 5067W        W25347   0.820  12.379  12.227 -0.1573 -0.2383 -0.2608
 5068W        W25348   3.399  12.033  14.777 -0.0488 -0.0960  0.3358
 5069W        W25349   2.779   3.257   1.663 -0.0661  0.0192 -0.0174
 5070W        W25350   3.814   8.881   1.975 -0.2162  0.1993 -0.0126
 5071W        W25351   0.933  12.932  15.252  0.0339 -0.0259 -0.2949
 5072W        W25352   6.959   4.144  14.752  0.1483 -0.2014  0.1214
 5073W        W25353  12.339   7.203  13.405  0.3205 -0.0490  0.4038
 5074W        W25354  11.630   4.554  13.087 -0.1601  0.0667 -0.1204
 5075W        W25355   3.350  10.388  11.237 -0.0152  0.0046  0.1211
 5076W        W25356  15.921   0.817  12.612  0.0207  0.2651 -0.3951
 5077W        W25357  11.745  10.854   0.377  0.0404  0.0095 -0.2203
 5078W        W25358   9.704  11.025   0.324 -0.0799  0.0771 -0.4331
 5079W        W25359   2.541   9.247   0.644  0.0728 -0.0160  0.0035
 5080W        W25360  11.367   8.008   4.977 -0.1054  0.4822 -0.1296
 5081W        W25361  18.094   6.134   3.467  0.0080  0.3286 -0.4331
 5082W        W25362   5.935  17.344  13.196 -0.2286 -0.2045 -0.1188
 5083W        W25363  16.265  15.930  12.742 -0.0244  0.0941  0.1485
 5084W        W25364   6.648   6.959  13.760 -0.2870  0.1055  0.0828
 5085W        W25365   1.300  17.815   1.201  0.0938 -0.5061  0.0619
 5086W        W25366   5.133   4.825  12.443 -0.0577 -0.0226 -0.0109
 5087W        W25367   4.472   6.897   0.012  0.3207 -0.1414 -0.2460
 5088W        W25368   4.163   1.289   3.207 -0.0508 -0.1474  0.3188
 5089W        W25369  10.871   2.003   1.795  0.0210  0.2335  0.1964
 5090W        W25370   2.160  11.683  11.701 -0.1978  0.1734  0.0728
 5091W        W25371  10.375  14.463   1.869 -0.1477 -0.0613  0.1798
 5092W        W25372  13.792  14.741  12.609  0.1360 -0.3425  0.0751
 5093W        W25373  13.274   7.466   4.519 -0.0387  0.1279  0.3076
 5094W        W25374   1.050   3.983  13.087 -0.2278  0.2132  0.1202
 5095W        W25375   1.785  18.253   1.786  0.0950  0.0745 -0.2139
 5096W        W25376   2.761  12.776  12.773 -0.0232  0.4022  0.0415
 5097W        W25377   5.101  12.000   5.012 -0.1368 -0.0110 -0.1731
 5098W        W25378   5.011   8.243  13.420 -0.1830 -0.0430 -0.1581
 5099W        W25379   2.083  12.704   3.229 -0.0227  0.1181  0.0894
 5100W        W25380   6.230  17.638  14.796 -0.0906  0.1528  0.0197
 5101W        W25381   7.632  15.782   1.617  0.0034 -0.0459 -0.2088
 5102W        W25382   8.069   0.466   0.542 -0.1361  0.1148  0.1389
 5103W        W25383  13.741   3.757  15.790 -0.0866  0.0677 -0.0939
 5104W        W25384   8.587  14.850   4.526 -0.1881 -0.1393  0.0745
 5105W        W25385   0.237   4.785  15.775  0.4225  0.0428 -0.0597
 5106W        W25386   9.895   5.913   2.624  0.0297  0.2394  0.1227
 5107W        W25387  12.109   6.719  14.926 -0.0064  0.0326 -0.0659
 5108W        W25388   9.078   9.216   3.426  0.1678  0.2485 -0.1555
 5109W        W25389   4.240   8.874  11.933 -0.0294 -0.1727 -0.2887
 5110W        W25390   4.842  10.785  12.951 -0.0579  0.0045  0.1763
 5111W        W25391  14.654  13.047  12.751  0.2186 -0.1948  0.0406
 5112W        W25392  17.992  13.954   2.857 -0.0124 -0.1538  0.0297
 5113W        W25393   8.030   1.800   4.382  0.1757  0.1043 -0.0280
 5114W        W25394   8.221   2.568  13.539  0.0339 -0.0858  0.0341
 5115W        W25395   6.502   5.636  11.906  0.0056 -0.0516 -0.1476
 5116W        W25396   8.484   1.782   1.782 -0.0189  0.1584 -0.1160
 5117W        W25397  17.124   5.355   2.056 -0.0950  0.1058 -0.0622
 5118W        W25398   5.385  16.886   4.095 -0.0131 -0.0934  0.0980
 5119W        W25399   8.294  16.106  11.933  0.0280 -0.2990  0.2753
 5120W        W25400  14.829   6.194  11.307  0.0719  0.0221  0.1647
 5121W        W25401   3.054   0.396   2.083 -0.4994 -0.1029  0.0806
 5122W        W25402  10.879  14.032  13.788 -0.0705  0.1378  0.2503
 5123W        W25403  13.485   2.866  11.716  0.1565 -0.1759  0.3297
 5124W        W25404  10.606  13.999   3.638  0.3719  0.0802 -0.1248
 5125W        W25405  15.547  17.084  14.498 -0.0312  0.0331 -0.0197
 5126W        W25406   1.431  11.606   1.352 -0.0947 -0.1202 -0.3320
 5127W        W25407   3.133  13.448  12.132 -0.2748 -0.4842 -0.1957
 5128W        W25408   4.867   2.446  14.248 -0.0131  0.0201 -0.2864
 5129W        W25409  13.729  17.696   1.356 -0.0163 -0.0288 -0.2446
 5130W        W25410   6.856  17.581   0.080  0.4562 -0.0544 -0.0782
 5131W        W25411  13.642   7.410   1.370  0.0317 -0.0043  0.0589
 5132W        W25412  11.665  15.916  12.790  0.1837  0.2775  0.2474
 5133W        W25413   6.357   2.090   0.003  0.2351 -0.1541  0.0058
 5134W        W25414   3.925  14.030   2.860 -0.1589 -0.1754  0.0161
 5135W        W25415   3.063  17.892  13.259  0.0875  0.1624  0.3675
 5136W        W25416  16.816  16.955  15.789  0.0093 -0.1814  0.1543
 5137W        W25417   3.213  15.277  14.050 -0.1745  0.0316  0.2028
 5138W        W25418   2.032  16.589   1.287  0.2094 -0.2330  0.1146
 5139W        W25419   0.161  15.291   5.193 -0.1112  0.2058  0.0926
 5140W        W25420  17.312   3.904   4.303 -0.1530 -0.1623  0.1401
 5141W        W25421   6.717  16.746   4.245  0.1134  0.0587  0.1889
 5142W        W25422   8.621   4.646   0.481  0.3469  0.2516 -0.1667
 5143W        W25423   2.165   1.895   1.994 -0.1375 -0.3769  0.5551
 5144W        W25424   0.198  15.921  11.582  0.0860 -0.1968 -0.3276
 5145W        W25425  13.871   9.590  12.408  0.0965 -0.0196 -0.1538
 5146W        W25426  17.179  10.675  12.834 -0.0064 -0.5445 -0.0168
 5147W        W25427   4.786  15.852  11.813  0.1190  0.1255 -0.1268
 5148W        W25428  13.823  14.282   1.672  0.1131 -0.2850 -0.1309
 5149W        W25429  13.919   9.390  13.733  0.1324  0.1575 -0.0697
 5150W        W25430  17.373  18.095  15.485  0.2867 -0.0084 -0.2162
 5151W        W25431  13.511  18.198   3.416 -0.0389 -0.2315  0.1268
 5152W        W25432  12.669  16.773   2.102  0.2907 -0.2621 -0.1172
 5153W        W25433   4.000  10.916  13.394 -0.2155  0.0472 -0.0134
 5154W        W25434  16.277   0.049   2.853  0.2930 -0.2135 -0.1626
 5155W        W25435   5.576  10.690   4.770 -0.0925  0.2514 -0.0578
 5156W        W25436   2.832   2.448   1.839  0.1011  0.1441 -0.0325
 5157W        W25437   4.939   7.061   4.140  0.0879  0.3228  0.0410
 5158W        W25438  13.324   0.583  13.053 -0.1964 -0.0429  0.0611
 5159W        W25439   4.090  10.749  11.895  0.0498 -0.1251 -0.2233
 5160W        W25440   4.405  12.410   0.640 -0.2223 -0.2729 -0.2060
 5161W        W25441  13.145  14.691  15.860  0.0153 -0.1917  0.1124
 5162W        W25442  17.902   5.855  12.731 -0.2654 -0.0420 -0.0303
 5163W        W25443  14.491  17.949  12.889  0.0967 -0.2195  0.3352
 5164W        W25444   2.088   5.825  11.673  0.0601 -0.1641  0.1305
 5165W        W25445  14.113  15.597   2.829 -0.0504 -0.0265  0.1431
 5166W        W25446  15.116  16.689  15.594  0.0882 -0.1618 -0.2241
 5167W        W25447  15.974   9.027   0.838  0.0672 -0.2094  0.0906
 5168W        W25448  17.589  16.497   0.537 -0.2425 -0.1756  0.0872
 5169W        W25449   0.867  17.035  15.296 -0.0404  0.0158  0.0709
 5170W        W25450   1.301   0.880  13.207  0.0350 -0.2955 -0.1163
 5171W        W25451   2.036  16.592  11.959 -0.3870 -0.0530 -0.1468
 5172W        W25452   7.797   9.051  12.829 -0.0497  0.1155 -0.0890
 5173W        W25453  15.836   0.409   0.078  0.2941 -0.2204  0.1419
 5174W        W25454   9.957   8.603   0.313 -0.1045  0.0530 -0.0611
 5175W        W25455   2.370   7.711   4.221 -0.1489 -0.5393  0.1603
 5176W        W25456   3.794  11.743   0.310  0.0999  0.2631 -0.0399
 5177W        W25457   2.041   2.333  13.685  0.2069 -0.5248  0.0929
 5178W        W25458   2.930   5.695  11.984  0.0119 -0.0104 -0.0793
 5179W        W25459   3.151   3.714   1.565  0.1830 -0.0798 -0.2063
 5180W        W25460   0.920   5.937  15.937  0.0375 -0.2162 -0.0034
 5181W        W25461  17.810   4.283  15.723  0.0416 -0.2106 -0.0287
 5182W        W25462   7.342   9.511   1.625  0.0312 -0.1584 -0.0961
 5183W        W25463  10.192   3.684   2.294  0.2820  0.1487 -0.1636
 5184W        W25464  11.850  17.883  15.403  0.1715 -0.0020 -0.1183
 5185W        W25465   9.507  13.268   0.798 -0.4671  0.2061  0.2025
 5186W        W25466  13.735   8.681  14.349 -0.1807 -0.2003  0.1703
 5187W        W25467   1.497   5.104   1.082 -0.0966 -0.0445 -0.1756
 5188W        W25468   3.949   2.685   2.205  0.1438  0.0541  0.2925
 5189W        W25469   1.872   1.916   2.921 -0.1356  0.0582 -0.1556
 5190W        W25470   2.798  16.917   0.459 -0.1269 -0.3520  0.0712
 5191W        W25471   0.813  12.976   3.901  0.1167 -0.0243 -0.0715
 5192W        W25472  12.356  10.942  11.518  0.0583  0.0233 -0.2170
 5193W        W25473   2.499  14.349   3.315 -0.1413 -0.3312  0.3761
 5194W        W25474  16.735   8.831  12.233  0.0060 -0.0629  0.1696
 5195W        W25475   8.609   4.980  13.578  0.0612  0.1968  0.2299
 5196W        W25476  16.499   6.673  13.021 -0.1123  0.1211 -0.0874
 5197W        W25477   0.913   0.588   5.640  0.2368 -0.0900  0.2121
 5198W        W25478  11.904   3.833   1.457  0.1676  0.2832 -0.1734
 5199W        W25479   0.022  15.266   4.083 -0.0377 -0.1764 -0.0710
 5200W        W25480   4.937   8.333  11.984  0.1600  0.2556  0.1573
 5201W        W25481   6.342   2.140   2.145 -0.1432  0.2425  0.2298
 5202W        W25482   5.346   3.073   3.602  0.0896 -0.0702  0.0234
 5203W        W25483  16.890   1.977   0.378 -0.1452  0.2544 -0.0615
 5204W        W25484   7.704   7.380   1.442 -0.2313  0.2157 -0.1792
 5205W        W25485  16.489  16.273   3.383 -0.1353  0.0404  0.0457
 5206W        W25486  16.396  10.869   2.977  0.2065 -0.0749  0.3916
 5207W        W25487  18.033  18.234  11.555  0.1756 -0.0670  0.1259
 5208W        W25488   3.815   7.514  14.418  0.0914  0.1159  0.2069
 5209W        W25489   4.749   2.109  11.217 -0.0485  0.2358  0.1383
 5210W        W25490   1.397  13.951   2.628  0.0535 -0.1078  0.0868
 5211W        W25491  18.010  17.563  13.766 -0.0726 -0.2841 -0.0060
 5212W        W25492   0.479  15.578   1.282 -0.0356  0.1390  0.1519
 5213W        W25493  15.583   9.613   2.365  0.3118  0.1144 -0.0748
 5214W        W25494  16.202   5.946  13.547  0.1505 -0.0856  0.1181
 5215W        W25495   1.195  16.731  12.054 -0.0265 -0.1466 -0.2111
 5216W        W25496   5.328   1.783  11.735 -0.1642  0.3034 -0.2310
 5217W        W25497   7.679   5.782  13.710 -0.2437 -0.0668 -0.1019
 5218W        W25498   8.498  14.818   3.755  0.0402 -0.0560 -0.0054
 5219W        W25499  11.069   9.149  15.441  0.1249  0.0169 -0.1816
 5220W        W25500  17.911  13.581   2.533 -0.2531  0.0350  0.2055
 5221W        W25501   2.958   0.715   4.088 -0.1495  0.2161  0.0350
 5222W        W25502   3.457  14.370  13.559  0.2649 -0.0746  0.3378
 5223W        W25503   5.105   2.276   4.002 -0.0033 -0.3792 -0.0448
 5224W        W25504   8.107   4.788   1.753 -0.0391 -0.1081  0.2241
 5225W        W25505   1.830   7.886  14.420 -0.2812 -0.1523  0.2763
 5226W        W25506   2.820  16.043   0.335 -0.1079  0.4692 -0.1932
 5227W        W25507   0.978  13.964   0.765 -0.0247  0.0463 -0.0960
 5228W        W25508   5.864  14.597   2.078 -0.1133 -0.1016  0.0406
 5229W        W25509   6.222  14.941  11.812 -0.1557  0.0020  0.1453
 5230W        W25510  17.885  16.457   3.866  0.2228 -0.0277 -0.1357
 5231W        W25511  12.523  15.169  15.381 -0.2522  0.0547  0.1223
 5232W        W25512   8.732  17.476   3.748  0.2308  0.2339  0.0065
 5233W        W25513   6.167  10.913   2.118  0.1659 -0.1113  0.3509
 5234W        W25514  13.798   4.113  14.989  0.0908  0.3440 -0.0897
 5235W        W25515  17.532   5.671  13.944  0.1087 -0.1463  0.2857
 5236W        W25516  12.985  16.010   4.124 -0.0277  0.0396 -0.0288
 5237W        W25517  17.998  14.340  14.413  0.0731  0.0480 -0.1556
 5238W        W25518   3.624   0.415   1.710 -0.1305 -0.2628  0.2966
 5239W        W25519   4.791  12.706  13.523 -0.2648  0.0226 -0.1515
 5240W        W25520  14.313  15.726  13.816  0.0201  0.0157 -0.1825
 5241W        W25521  16.734  10.068   3.522  0.0608  0.0545 -0.1379
 5242W        W25522   3.968   2.789   1.734 -0.2884  0.1560  0.2412
 5243W        W25523  17.883  10.425   4.344  0.1433 -0.1595 -0.1672
 5244W        W25524   8.261   5.641   3.584  0.1822  0.0345  0.1408
 5245W        W25525  17.779  12.242  14.514  0.0560  0.0701  0.0373
 5246W        W25526   5.730  11.024  15.513  0.4537  0.1441  0.0999
 5247W        W25527   9.183   6.385  12.599  0.1620 -0.0453 -0.1359
 5248W        W25528  15.314   0.645   3.233 -0.2254  0.1538 -0.0753
 5249W        W25529  15.692  17.767   3.048  0.0643 -0.3309 -0.0615
 5250W        W25530   7.681   3.683   4.701  0.0863  0.0976  0.0468
 5251W        W25531   2.303  17.226  15.256 -0.2436 -0.2973  0.0785
 5252W        W25532  16.322   2.634   0.932  0.1583  0.0800  0.0015
 5253W        W25533   0.864  10.897  11.741  0.0665 -0.1085 -0.0110
 5254W        W25534  13.511  11.729   0.202  0.1714 -0.0728  0.2270
 5255W        W25535   3.774   8.956   0.833  0.0806  0.2224  0.0199
 5256W        W25536  15.985   7.012  12.468 -0.2332  0.1422 -0.0328
 5257W        W25537   6.950  11.314   3.513  0.0995 -0.0281  0.1170
 5258W        W25538  14.090  15.693  15.187 -0.0246 -0.1419 -0.1206
 5259W        W25539  13.251   5.341   1.788  0.0398 -0.0189  0.1367
 5260W        W25540  13.073  15.336   2.338 -0.0474 -0.0236  0.0504
 5261W        W25541   8.584   1.287  12.462  0.0148 -0.3969  0.2174
 5262W        W25542  15.525  13.269   0.519  0.0280 -0.0523 -0.0742
 5263W        W25543   1.584  15.396   3.144 -0.3171 -0.2571 -0.1710
 5264W        W25544   2.451   4.191   3.773 -0.0569  0.1420 -0.2782
 5265W        W25545   6.370  11.489  14.962  0.0627  0.0204 -0.0288
 5266W        W25546  17.883  17.606   1.385  0.1683  0.1633  0.1536
 5267W        W25547  10.862  12.924   3.720 -0.0735  0.1799 -0.1440
 5268W        W25548   8.133  15.752  13.444 -0.2327  0.2257  0.1331
 5269W        W25549   1.434   8.469  15.041  0.0375  0.0345 -0.1138
 5270W        W25550   6.005   0.622  15.160  0.2137  0.3276 -0.0944
 5271W        W25551   9.321  12.479   0.170  0.0485  0.1746 -0.1235
 5272W        W25552  12.230  14.311  12.393 -0.0339 -0.0014  0.0789
 5273W        W25553   7.460   7.838  10.545 -0.0799  0.4421 -0.0049
 5274W        W25554  17.666   4.686   2.258 -0.1840 -0.4311  0.1695
 5275W        W25555   0.587   1.995   3.254 -0.0313 -0.0263 -0.0457
 5276W        W25556  13.646  12.402   1.261  0.1018 -0.0027 -0.1843
 5277W        W25557   2.628  12.541   1.922 -0.0702  0.1922  0.0934
 5278W        W25558   7.758  11.597  15.371  0.1746 -0.1727 -0.0994
 5279W        W25559   7.512  17.211  14.697  0.1759 -0.1076  0.0245
 5280W        W25560   9.981   8.291   0.719  0.3503  0.0314  0.2242
 5281W        W25561   2.078  10.255   2.326 -0.3327  0.1551  0.1140
 5282W        W25562   1.305   0.211   3.799 -0.0152 -0.2246 -0.0319
 5283W        W25563   1.698  17.628  14.797 -0.1346  0.2451 -0.0142
 5284W        W25564   5.853  14.755  15.017 -0.1276  0.0198  0.0931
 5285W        W25565  17.031   5.762  14.194  0.0076 -0.0813  0.2022
 5286W        W25566  16.605   3.305  11.545  0.1323 -0.0909  0.0886
 5287W        W25567  12.200   6.736  13.821  0.2074  0.0717 -0.0501
 5288W        W25568  13.618   6.145  15.462 -0.0299 -0.2210 -0.1260
 5289W        W25569   9.637   6.716   3.242  0.0791  0.1275 -0.0548
 5290W        W25570   0.184   2.969   1.283 -0.2583 -0.1438 -0.2003
 5291W        W25571  16.058   8.043  14.746  0.2216  0.2317  0.1639
 5292W        W25572   5.163  18.228  15.147 -0.1729  0.1001  0.0765
 5293W        W25573   6.939   3.104  15.674  0.1656 -0.1979  0.0385
 5294W        W25574  13.195  12.658   0.314 -0.0679 -0.2014  0.5292
 5295W        W25575   5.909  14.793   0.378 -0.0656 -0.1526  0.0037
 5296W        W25576   7.917   9.140  13.907 -0.0185  0.0547 -0.1844
 5297W        W25577  15.337  10.338  14.648 -0.0453 -0.1274 -0.2361
 5298W        W25578   9.391   3.384   2.296 -0.1108  0.4482  0.1732
 5299W        W25579  14.231   4.836   3.081 -0.2678  0.0974 -0.0731
 5300W        W25580   6.049  17.966  14.455  0.0526  0.2843  0.0202
 5301W        W25581  17.098   6.834   3.700 -0.0359  0.0416 -0.1129
 5302W        W25582  14.026   1.892  14.288 -0.0441  0.0756 -0.1924
 5303W        W25583   4.245  16.508  13.717  0.0790  0.0128 -0.4155
 5304W        W25584   5.526   6.034   1.789 -0.0224  0.0123 -0.0329
 5305W        W25585  14.122   1.730   2.421 -0.1789  0.1882  0.1447
 5306W        W25586   8.318  11.566   0.328  0.1306  0.0613  0.1575
 5307W        W25587  12.627   0.759   3.522  0.0826  0.0700  0.0575
 5308W        W25588  14.899  16.311   4.510  0.1686 -0.1560  0.1039
 5309W        W25589  15.417   3.818   0.931 -0.1349  0.2710  0.2532
 5310W        W25590   5.917   8.527   0.209  0.1549 -0.1520 -0.0098
 5311W        W25591   2.341  10.781  11.886  0.0476 -0.1366 -0.1835
 5312W        W25592  11.848  16.449  14.011  0.1906  0.2772 -0.0305
 5313W        W25593   4.988  14.061  15.081 -0.4709 -0.1603  0.2955
 5314W        W25594  11.127  17.562  11.155 -0.0718  0.0914 -0.0176
 5315W        W25595   0.784  10.868   0.447  0.1909  0.0735  0.1181
 5316W        W25596   2.479  11.153   2.024 -0.0672  0.1091  0.0972
 5317W        W25597   1.014  10.923   2.526  0.0858 -0.2278 -0.2836
 5318W        W25598  11.882   7.480   2.581 -0.1071  0.1320  0.0193
 5319W        W25599  15.363   4.770  14.454 -0.0967 -0.0292 -0.1527
 5320W        W25600  15.614   6.534  13.638 -0.2793  0.1811  0.2714
 5321W        W25601  14.795   9.815  13.880  0.1205  0.4463  0.0170
 5322W        W25602   2.972  16.177  11.935 -0.1545 -0.3119  0.3114
 5323W        W25603   6.464   8.239  11.816 -0.0624  0.1472 -0.0151
 5324W        W25604   4.500   3.575   2.960 -0.0385 -0.2608 -0.0485
 5325W        W25605   4.093   0.205   2.453 -0.0712 -0.3975 -0.2971
 5326W        W25606  14.686   7.441   1.212 -0.0320 -0.0784  0.0848
 5327W        W25607   7.133   1.708   3.692 -0.2753  0.4445 -0.0138
 5328W        W25608  10.131  11.175  12.310 -0.0762  0.2241 -0.0847
 5329W        W25609  15.327   4.216  13.305  0.0049  0.0672 -0.1962
 5330W        W25610  17.495  11.165   1.262 -0.0002 -0.3516  0.0091
 5331W        W25611   9.584   0.355   1.559  0.1341  0.4156  0.1301
 5332W        W25612  17.066   1.075  14.997 -0.1852 -0.1256  0.0546
 5333W        W25613  15.278   1.929  11.304  0.1456  0.0605  0.0616
 5334W        W25614   5.914  13.205   5.131  0.0566 -0.2377  0.0097
 5335W        W25615   0.869  12.930  15.766  0.2700 -0.2779  0.1244
 5336W        W25616  16.224  13.244   4.108 -0.0042  0.0930 -0.3637
 5337W        W25617  11.991  18.004  13.391 -0.0443  0.1629  0.0739
 5338W        W25618  10.354  12.156   2.099 -0.1737 -0.2238 -0.0312
 5339W        W25619  17.667  14.568  11.921 -0.0601  0.2170 -0.2039
 5340W        W25620   1.379  11.462   3.663  0.1930 -0.0486  0.1471
 5341W        W25621   6.127   6.688   1.562 -0.2497 -0.1343  0.1088
 5342W        W25622   5.714   2.045   3.294  0.2995  0.2922  0.1459
 5343W        W25623  17.692  12.754   0.235  0.4355  0.1085 -0.0498
 5344W        W25624   3.361   4.211   0.856 -0.3411  0.1430 -0.1515
 5345W        W25625  13.926   6.498  13.024  0.1346  0.2845 -0.1533
 5346W        W25626   7.485  12.681   1.361 -0.0351 -0.2561 -0.2422
 5347W        W25627  14.165   6.373   0.762 -0.3343  0.1917 -0.0661
 5348W        W25628  10.103   5.797  15.003 -0.0034  0.1053 -0.0263
 5349W        W25629  12.567   4.615   2.204 -0.0258  0.2692  0.1113
 5350W        W25630  10.300   0.039   2.746 -0.1957  0.0616 -0.2623
 5351W        W25631   5.916  17.575  11.352  0.2696  0.1404  0.0263
 5352W        W25632   8.955   1.838   4.201 -0.1533 -0.2014 -0.1018
 5353W        W25633  11.747  17.335  13.368  0.0673 -0.1997 -0.3860
 5354W        W25634  11.068  12.577   3.344 -0.0146  0.1817 -0.0230
 5355W        W25635   5.004   2.905   4.093  0.1643  0.2137 -0.1029
 5356W        W25636  10.206  17.157   3.185 -0.1768  0.0300  0.1537
 5357W        W25637   8.151  12.280   1.596  0.2432  0.3658  0.1503
 5358W        W25638  11.472   3.757   4.656 -0.2384  0.1162  0.2259
 5359W        W25639  17.851  13.091   1.742  0.1936 -0.1128 -0.1157
 5360W        W25640   2.885   1.071  15.723  0.0557 -0.0195  0.0591
 5361W        W25641  10.560   7.855   1.394 -0.0566 -0.0550 -0.0211
 5362W        W25642   7.139   4.642  14.195 -0.2188  0.0957  0.1224
 5363W        W25643  14.162   1.001   4.242  0.1367 -0.0804  0.0990
 5364W        W25644   5.605  17.708  13.986 -0.0536 -0.0823  0.0095
 5365W        W25645  12.004  15.278   1.297  0.1672 -0.1815 -0.2427
 5366W        W25646  17.057  18.085  11.482 -0.0129 -0.0568  0.4283
 5367W        W25647  14.272   2.704   2.232 -0.0866  0.2820 -0.1183
 5368W        W25648   9.472  17.843   0.368  0.0968 -0.1475 -0.1721
 5369W        W25649   2.187  11.592   2.644 -0.0728  0.0051  0.2326
 5370W        W25650  17.181   9.698   3.491  0.1213  0.0009  0.3591
 5371W        W25651   4.532   4.370  14.806 -0.0841 -0.1217 -0.0302
 5372W        W25652  17.174   3.541  13.149  0.0282  0.1187 -0.2046
 5373W        W25653  13.014  17.293   3.717 -0.0310 -0.2652  0.1162
 5374W        W25654   1.622   8.558   2.438 -0.2558  0.3212  0.0875
 5375W        W25655   0.590  16.599   1.548 -0.0253  0.0845 -0.0699
 5376W        W25656  14.305   5.560   1.021 -0.0112 -0.0355  0.2027
 5377W        W25657   5.751  17.531  14.533  0.4059 -0.0318  0.0330
 5378W        W25658  17.012   9.280   4.729  0.1180 -0.0056 -0.3085
 5379W        W25659  14.107   7.166  11.927 -0.4994  0.1115  0.2438
 5380W        W25660  14.224  14.482   3.672  0.1652  0.0503 -0.0282
 5381W        W25661   7.502   0.580  12.467  0.1295  0.0889 -0.2481
 5382W        W25662   8.056  15.806   3.552  0.1527 -0.0720  0.2281
 5383W        W25663  15.777   8.893  15.885 -0.1594  0.0574 -0.1458
 5384W        W25664  12.049   2.341   4.147 -0.1485  0.0060 -0.0109
 5385W        W25665   4.402   8.293  13.262  0.0013  0.0280  0.0108
 5386W        W25666   7.225  13.945   3.112  0.3435 -0.0889 -0.2443
 5387W        W25667  13.775   9.242  15.092  0.0796 -0.0034 -0.0618
 5388W        W25668   2.083  13.261  13.476  0.3428  0.0691 -0.0364
 5389W        W25669  15.378   1.439   3.602  0.1124 -0.0864 -0.2089
 5390W        W25670   2.794  12.271   3.507  0.1635  0.0561 -0.0704
 5391W        W25671  15.220   7.489  15.869 -0.0235 -0.0874 -0.0663
 5392W        W25672   3.766   4.968  15.046  0.1931  0.2034 -0.0152
 5393W        W25673   1.527  12.375  15.605 -0.0682  0.1014 -0.2293
 5394W        W25674  12.427  13.508   3.210  0.1116  0.3977  0.1821
 5395W        W25675  11.367   2.333  13.715 -0.0734 -0.0734 -0.2757
 5396W        W25676   9.041   9.061  15.357  0.1365  0.3152 -0.0307
 5397W        W25677   5.512  16.744   2.200  0.1725 -0.1485  0.0297
 5398W        W25678  17.369   5.451   0.240 -0.0166  0.2405  0.1853
 5399W        W25679  12.392   8.402  13.517 -0.0723  0.1374 -0.1401
 5400W        W25680   7.844   6.647   2.274 -0.0953 -0.2683  0.1959
 5401W        W25681   8.162  16.224  14.149  0.2298  0.0893  0.0340
 5402W        W25682  10.612   3.928   0.807 -0.0531  0.0294 -0.0531
 5403W        W25683   0.375   6.344  11.784 -0.0463 -0.2244  0.1504
 5404W        W25684  10.202  10.898   1.300 -0.1021  0.1278  0.1006
 5405W        W25685   6.218   7.088  14.026 -0.0935 -0.1858 -0.0727
 5406W        W25686   7.233  17.519  10.730 -0.0265 -0.3311 -0.0350
 5407W        W25687  12.502   8.846   2.928  0.0863  0.2849  0.1132
 5408W        W25688  16.218   1.574  11.703 -0.1072 -0.3912 -0.1105
 5409W        W25689   8.607   5.525  15.333  0.0413  0.5769  0.1068
 5410W        W25690   5.496   9.541  15.417 -0.1974 -0.1432 -0.1079
 5411W        W25691   3.042   4.212   3.524 -0.0672 -0.0331 -0.0414
 5412W        W25692  13.071  16.534   2.201 -0.1314 -0.0724 -0.0316
 5413W        W25693  17.325   3.071  13.555  0.1031  0.1154  0.0873
 5414W        W25694   6.061  17.149  14.901  0.0077  0.2372 -0.3502
 5415W        W25695   4.411   4.079   2.810 -0.0735 -0.0963 -0.0564
 5416W        W25696   2.689  16.370   2.715 -0.0700  0.0305  0.1378
 5417W        W25697  17.792   9.501   0.663  0.1666 -0.3036  0.0460
 5418W        W25698  12.520  16.355  11.292 -0.0267 -0.1657  0.1655
 5419W        W25699  16.940   3.627   1.725  0.2698  0.3008 -0.0784
 5420W        W25700   7.023  15.742   3.037 -0.1657 -0.0110 -0.0933
 5421W        W25701   0.511  13.797  11.627  0.2675 -0.4984  0.1258
 5422W        W25702  12.977   5.540   0.407 -0.1424 -0.0331  0.0413
 5423W        W25703  18.301   8.625  15.201 -0.0390 -0.2930  0.0448
 5424W        W25704  13.743   9.681  15.731 -0.2713  0.1676  0.3661
 5425W        W25705   6.142  13.932  11.703 -0.2943 -0.1035  0.0394
 5426W        W25706   4.423  12.814  12.457 -0.1845 -0.0170 -0.2537
 5427W        W25707   8.304  10.922   3.895  0.1970  0.1489  0.0662
 5428W        W25708   6.229  12.447   3.829  0.1296  0.1223  0.0096
 5429W        W25709  14.059   5.463  14.882 -0.0725 -0.2587  0.1785
 5430W        W25710   3.653  17.401  12.429  0.0351 -0.0071  0.1432
 5431W        W25711   8.141  10.152   4.715 -0.0023  0.0982 -0.0786
 5432W        W25712   2.625   1.670  13.114 -0.4306  0.0316  0.0506
 5433W        W25713  16.336   4.335  14.456 -0.2846 -0.3306 -0.1658
 5434W        W25714   7.289  15.705   4.183  0.0516  0.0628  0.0686
 5435W        W25715   4.990   8.015  12.442  0.2039 -0.2187  0.2890
 5436W        W25716  12.055   0.093  13.136  0.1175  0.0729  0.1584
 5437W        W25717  11.961   0.651   1.687  0.0332  0.1467  0.0345
 5438W        W25718   6.502   1.423  12.770  0.1510  0.1814 -0.1793
 5439W        W25719   9.110   7.632   4.304  0.1150  0.0041  0.1134
 5440W        W25720   5.426   9.038  14.364  0.1543 -0.0106 -0.0827
 5441W        W25721  13.593   6.180   0.608 -0.0867  0.2491 -0.0824
 5442W        W25722   7.855   7.880   3.908 -0.1070  0.1404  0.0652
 5443W        W25723   8.940   9.398   2.544  0.2906 -0.2080  0.1508
 5444W        W25724  11.742  18.116  12.245 -0.1060 -0.3901 -0.1078
 5445W        W25725   4.956  11.705  12.668  0.1530  0.1593 -0.0960
 5446W        W25726  11.609  15.994  12.233 -0.3575 -0.1301 -0.1475
 5447W        W25727  10.787  12.697  11.977 -0.0099  0.1866  0.1159
 5448W        W25728  12.421  10.979   1.103 -0.2394  0.0808  0.0475
 5449W        W25729  17.845   2.191   2.711 -0.0896 -0.0015 -0.1193
 5450W        W25730  13.822  15.406  14.028  0.1435 -0.0173 -0.1084
 5451W        W25731   4.485  11.421  13.956 -0.0953 -0.0128 -0.1360
 5452W        W25732   5.060  11.769  13.161  0.2147  0.1135  0.0650
 5453W        W25733  10.367   7.032  14.816 -0.1800  0.2152 -0.1797
 5454W        W25734  18.012  16.612   0.792 -0.0260 -0.0231  0.0048
 5455W        W25735   0.259  18.178   4.080 -0.1411  0.2450  0.0983
 5456W        W25736  11.303  11.901  13.871  0.0247 -0.0712  0.1172
 5457W        W25737  16.233   4.676   2.964 -0.0051 -0.2044  0.1250
 5458W        W25738   4.253  13.358   1.343 -0.3212  0.0586  0.0053
 5459W        W25739  11.057  14.340   2.099  0.3323  0.0535  0.0235
 5460W        W25740   6.464  10.564   4.457  0.0239  0.1205  0.0527
 5461W        W25741  14.164   4.978   0.871 -0.3196  0.1115  0.1860
 5462W        W25742  15.300   9.601  13.902  0.1082  0.2261  0.3084
 5463W        W25743   1.087   1.700   4.830 -0.2687 -0.1044 -0.1412
 5464W        W25744   0.009   0.820  14.714  0.0122  0.0859 -0.2435
 5465W        W25745   5.506   1.971   2.632 -0.1180  0.0333  0.0603
 5466W        W25746   0.975  11.740  14.129 -0.1216  0.3961 -0.1531
 5467W        W25747  11.149  16.064   4.475  0.0738  0.0099  0.0775
 5468W        W25748   4.994   3.844  11.661  0.2111  0.1635 -0.0464
 5469W        W25749  14.394   0.845   2.803 -0.2971  0.2909  0.1149
 5470W        W25750  12.536   7.713  14.808 -0.1662  0.1660  0.2495
 5471W        W25751   7.735  12.691  13.661 -0.2906  0.1035 -0.2356
 5472W        W25752  13.003  12.601   4.633  0.1432  0.1562 -0.1605
 5473W        W25753   9.688   1.074  11.879 -0.1523  0.0313 -0.1214
 5474W        W25754   1.658   3.711   0.227  0.1410 -0.0831 -0.3898
 5475W        W25755  10.576  10.415  14.071  0.0063  0.1091  0.0143
 5476W        W25756   9.858   3.012   3.044  0.0387 -0.0039  0.0437
 5477W        W25757  12.238  15.286  15.846  0.0548  0.1904  0.0939
 5478W        W25758   5.477  15.129   3.751  0.1243 -0.0008 -0.5068
 5479W        W25759  10.036  11.155   1.786  0.2329 -0.0689 -0.1255
 5480W        W25760   8.597  12.790  13.894 -0.0694  0.0116 -0.0696
 5481W        W25761   9.441  11.931   1.623 -0.1370 -0.0568 -0.0032
 5482W        W25762  17.998   4.584   2.886 -0.1225  0.0774 -0.0535
 5483W        W25763   1.876   1.992   0.954 -0.0676  0.0559  0.3066
 5484W        W25764  14.872   5.861  13.290  0.1120  0.1509 -0.1132
 5485W        W25765  17.340  16.992  14.122  0.3118 -0.0468  0.3605
 5486W        W25766   4.364  12.635  14.490 -0.1065  0.0180  0.1674
 5487W        W25767   1.774  17.193  12.627 -0.0435 -0.2226 -0.1703
 5488W        W25768   5.527  14.427   2.462  0.1394 -0.0257 -0.1462
 5489W        W25769   4.282  15.118  12.296 -0.2848 -0.2511 -0.1452
 5490W        W25770   4.267   0.110  10.551 -0.0176 -0.0089  0.3963
 5491W        W25771  10.480  17.409  15.700 -0.0484 -0.3650  0.0681
 5492W        W25772  12.352  15.556  15.103  0.0051 -0.2057  0.0446
 5493W        W25773  16.657  16.665   0.689 -0.2147  0.0038  0.3078
 5494W        W25774   3.543   8.044   2.398  0.0060 -0.2273 -0.2474
 5495W        W25775  13.413  11.847   3.601 -0.1113  0.1140  0.1158
 5496W        W25776   8.225  11.230   1.340  0.1696  0.1281 -0.0252
 5497W        W25777  10.572   9.299   3.251  0.1556  0.0759  0.1008
 5498W        W25778   5.842  17.468  15.904 -0.1097 -0.1385  0.2017
 5499W        W25779  17.372   5.682   3.418  0.0434  0.0189  0.0566
 5500W        W25780  14.120   2.986  12.973 -0.3172 -0.3793 -0.0037
 5501W        W25781   8.713   5.924  13.454 -0.3740 -0.0516 -0.2957
 5502W        W25782  14.336   6.967  13.081  0.1935  0.0398 -0.1196
 5503W        W25783   5.820  15.792  11.661  0.0507  0.0889  0.2583
 5504W        W25784  12.488   1.251  12.017 -0.1512 -0.2873  0.1032
 5505W        W25785  10.520   5.812  11.742  0.0978 -0.0728  0.1373
 5506W        W25786  12.185   4.347   2.602 -0.1167 -0.2308  0.1648
 5507W        W25787   9.972  15.396   4.236 -0.2446 -0.0601  0.1267
 5508W        W25788   6.813   1.036  11.904  0.0313 -0.0198 -0.1651
 5509W        W25789   4.953   3.830   1.826 -0.0226  0.0478 -0.2268
 5510W        W25790  17.011   5.589  12.256 -0.1965  0.2552 -0.0644
 5511W        W25791   1.040  12.589   0.849 -0.0933  0.0158  0.1927
 5512W        W25792   9.828   5.571  14.142  0.4281  0.0128  0.1154
 5513W        W25793   6.113  15.297  15.659  0.0853 -0.0278 -0.0310
 5514W        W25794  12.405  13.753   0.799 -0.0714  0.2456  0.1056
 5515W        W25795  14.932  12.953   0.221 -0.0380 -0.0181  0.0332
 5516W        W25796   5.186   6.734   1.441 -0.0191 -0.0676 -0.1864
 5517W        W25797   7.542   2.788   2.033 -0.0079 -0.0348  0.2452
 5518W        W25798   1.211  13.836   1.596 -0.0311  0.1445 -0.2547
 5519W        W25799  18.158   2.367  15.465 -0.1453 -0.0209  0.1615
 5520W        W25800   2.006  14.101  14.104  0.2796 -0.1174  0.0405
 5521W        W25801  14.070  16.806   2.318 -0.0906  0.0187 -0.0345
 5522W        W25802  12.152   8.416  15.411 -0.3208  0.2449 -0.1893
 5523W        W25803  15.767   6.091  13.342 -0.1868  0.0058 -0.0948
 5524W        W25804   1.650   7.396   3.369 -0.3783  0.1012  0.2643
 5525W        W25805   7.064   8.772   2.170  0.1720  0.0991 -0.4253
 5526W        W25806   3.559   8.797  14.674 -0.1615  0.1310  0.0351
 5527W        W25807  15.133   1.204  14.359  0.0971 -0.1341  0.0448
 5528W        W25808  10.140   8.309   3.336 -0.0576  0.1650 -0.2361
 5529W        W25809  12.425   7.774   0.938  0.0354 -0.0111  0.0768
 5530W        W25810   6.450  17.387  12.867 -0.1098  0.1736  0.0616
 5531W        W25811   6.255   2.235   4.509 -0.1220 -0.1360  0.0732
 5532W        W25812   8.736  12.759   1.735 -0.1307  0.1978 -0.0955
 5533W        W25813  17.026   2.809  13.277 -0.0651  0.0130 -0.0142
 5534W        W25814   5.845   8.265   2.372  0.0504  0.3526  0.0346
 5535W        W25815  13.939   9.100   1.031 -0.1521  0.0882  0.1050
 5536W        W25816  14.752  16.909   1.639  0.0603  0.0403  0.3055
 5537W        W25817   3.924  17.356  14.549  0.2402  0.0667  0.1096
 5538W        W25818  11.279  16.457  15.717 -0.0835 -0.0966  0.0776
 5539W        W25819   7.701   8.549   0.641  0.1062  0.0451 -0.1542
 5540W        W25820  16.874   7.431  14.514  0.0379 -0.0374 -0.0143
 5541W        W25821   7.951   3.347   3.785 -0.0170 -0.1046 -0.1158
 5542W        W25822   3.371  17.133  12.818 -0.3238 -0.0630 -0.3009
 5543W        W25823  10.352   0.890   1.056  0.2437  0.0059  0.1180
 5544W        W25824  13.031  13.663   4.366  0.0583 -0.1000 -0.1737
 5545W        W25825   2.215  10.278  14.693  0.4722 -0.0464 -0.0882
 5546W        W25826   1.531   5.774   3.999  0.1850 -0.1305 -0.0200
 5547W        W25827  11.610   0.844  10.825 -0.0936 -0.1419  0.3178
 5548W        W25828  17.785  16.578  12.060  0.0701 -0.2028 -0.0653
 5549W        W25829   1.390  15.966   0.949 -0.3941 -0.0083 -0.0391
 5550W        W25830   4.073   7.925  12.088 -0.0693 -0.1330 -0.1399
 5551W        W25831   1.258   4.851  11.702 -0.2538  0.1669  0.1414
 5552W        W25832   4.461   1.019   0.411 -0.1023  0.1207 -0.2688
 5553W        W25833   9.359  10.281   3.452  0.1309 -0.1661 -0.2467
 5554W        W25834  17.774   2.125  12.233  0.2863  0.3108  0.2417
 5555W        W25835  10.166  13.538   2.102 -0.2017 -0.4400  0.2580
 5556W        W25836  18.032   3.633  15.114 -0.1958 -0.1206  0.1683
 5557W        W25837  15.698   1.979  15.008  0.0965 -0.0375  0.4621
 5558W        W25838  15.012   8.271   2.717 -0.1021  0.0783  0.2912
 5559W        W25839  17.864   4.067  13.366 -0.1065 -0.0773  0.0111
 5560W        W25840   6.836  15.756   1.012  0.1909  0.2233  0.1894
 5561W        W25841   2.761  11.070   1.107 -0.3978  0.2362  0.3572
 5562W        W25842  16.154   7.514  12.630  0.2256 -0.0547  0.0274
 5563W        W25843  18.010   2.352   4.232 -0.3194  0.1882 -0.3992
 5564W        W25844  13.897  12.176  11.902  0.3101 -0.2591  0.3022
 5565W        W25845  13.032   6.663  12.851  0.0406 -0.0824 -0.3484
 5566W        W25846   5.918   9.130   1.420 -0.1970  0.0485  0.2164
 5567W        W25847  17.973   0.548  13.575 -0.1548  0.1624 -0.1923
 5568W        W25848  17.375   2.969  12.582  0.0353  0.1811 -0.1159
 5569W        W25849  10.993  14.371  12.240 -0.0862  0.0276 -0.1571
 5570W        W25850  14.658   9.312   2.300 -0.0106 -0.0352  0.0982
 5571W        W25851   8.729   4.832   4.132 -0.0938 -0.2161  0.0024
 5572W        W25852  10.604   5.101  12.816  0.3548 -0.0174 -0.0610
 5573W        W25853   5.132   8.396   0.541  0.0515 -0.1266 -0.3729
 5574W        W25854  15.412  11.495  15.634 -0.1040  0.1908 -0.0254
 5575W        W25855  14.851   9.017  15.718  0.1966  0.2564 -0.2187
 5576W        W25856  13.477   5.921  14.655 -0.2347  0.1011  0.1516
 5577W        W25857   3.134   2.347   3.156 -0.1832 -0.3377 -0.1439
 5578W        W25858  17.257   4.404  11.586 -0.0053  0.2168 -0.0044
 5579W        W25859   1.551  14.342  14.091 -0.1266  0.2564  0.1036
 5580W        W25860   3.649  13.317   4.169  0.1375  0.0309  0.3483
 5581W        W25861   4.472  10.895   0.908  0.2182 -0.1462 -0.0749
 5582W        W25862   0.033  12.117  12.624 -0.0617  0.0124 -0.0306
 5583W        W25863  11.616   8.188   3.975 -0.0729  0.1478  0.0458
 5584W        W25864   4.857  16.675  15.860 -0.0705  0.0577  0.1661
 5585W        W25865   6.379   3.344   5.520 -0.0893 -0.1880 -0.3141
 5586W        W25866  14.560   4.684  13.005 -0.0185  0.1350 -0.0673
 5587W        W25867   3.635   3.748   1.775 -0.0524 -0.1357 -0.0774
 5588W        W25868   3.516  11.534   3.346 -0.3107  0.2328  0.0148
 5589W        W25869  16.053   3.659   2.966  0.0416  0.0040  0.0867
 5590W        W25870   3.412   7.617  14.706 -0.2098 -0.0654 -0.0153
 5591W        W25871   4.447   4.064   0.745  0.0623  0.0747  0.4085
 5592W        W25872   2.324   3.700   0.160 -0.3222  0.0822 -0.0733
 5593W        W25873   0.267   6.185   4.113 -0.1468  0.0120 -0.2131
 5594W        W25874  11.896   0.155  15.664 -0.0198 -0.1536 -0.1384
 5595W        W25875   7.356  18.151  14.951  0.1493  0.2907  0.0364
 5596W        W25876   3.787   2.299   0.735 -0.1463 -0.0231 -0.0690
 5597W        W25877  15.747  17.510  12.709 -0.2578 -0.1791 -0.0449
 5598W        W25878   1.583   8.170  11.709  0.2191  0.1006  0.0103
 5599W        W25879  11.977  17.908   2.572  0.1790  0.0355  0.0453
 5600W        W25880  16.787   0.108   1.562 -0.5041 -0.1061 -0.1731
 5601W        W25881   1.992  10.498   1.042 -0.0455 -0.2388  0.1681
 5602W        W25882   5.118  14.644  11.342 -0.0096  0.1772  0.1204
 5603W        W25883  10.507   4.995   2.003  0.0379  0.1967 -0.1177
 5604W        W25884   1.373   4.492  12.369 -0.1293  0.1022  0.0437
 5605W        W25885   4.318  13.013  11.409 -0.2195  0.1535  0.2977
 5606W        W25886  16.134  17.303  12.349 -0.0994  0.1029 -0.3541
 5607W        W25887  15.180   0.936   1.182  0.0858 -0.0589 -0.0912
 5608W        W25888   1.116   3.806   3.881  0.3267  0.1802  0.3299
 5609W        W25889  14.339   5.968   4.562  0.1177  0.4944  0.1130
 5610W        W25890  12.367  16.621  13.253  0.0574  0.2964 -0.0194
 5611W        W25891   3.437   8.282  13.238 -0.1738  0.0459 -0.0513
 5612W        W25892   0.217   3.915   1.835  0.1134 -0.2364 -0.0248
 5613W        W25893  13.939  13.679   1.729 -0.0972 -0.2343  0.1653
 5614W        W25894   9.887   5.142  11.661 -0.5512 -0.0354 -0.2934
 5615W        W25895  14.604   8.767   5.236 -0.0351 -0.3903 -0.2722
 5616W        W25896  17.124   8.418   2.083  0.1395  0.1506 -0.0419
 5617W        W25897   0.786  15.206  13.300 -0.0593 -0.2954 -0.0311
 5618W        W25898   5.294  15.047  12.144 -0.0436  0.1392  0.3175
 5619W        W25899  10.399  15.578   1.335 -0.0682  0.1715  0.1362
 5620W        W25900   6.461   6.331   2.500  0.0218 -0.2750  0.2305
 5621W        W25901   3.796  15.772   1.397  0.0818  0.2336 -0.1239
 5622W        W25902   3.118  18.183  10.991  0.0019  0.3471  0.0346
 5623W        W25903   4.315  14.017  14.497 -0.1583  0.0644 -0.1486
 5624W        W25904   7.232  16.531   2.464  0.1489  0.1270  0.0696
 5625W        W25905   3.343   1.361  12.769  0.0547  0.0236 -0.0198
 5626W        W25906  10.858   7.091  14.984 -0.3197  0.0107 -0.0010
 5627W        W25907  16.998  11.005  14.003  0.2407 -0.0490  0.1903
 5628W        W25908  17.137   9.450  13.822 -0.2034  0.2191 -0.3409
 5629W        W25909  15.565  14.967  14.324 -0.0247 -0.3601  0.0589
 5630W        W25910  15.474  14.835   0.687 -0.0100 -0.0058  0.2479
 5631W        W25911  11.090   2.635  12.960  0.2033 -0.1625  0.2969
 5632W        W25912   4.753  16.676   0.787 -0.2956  0.1039 -0.2140
 5633W        W25913  11.327   5.191  14.366  0.0533  0.5111  0.0615
 5634W        W25914   5.357  11.218  13.843 -0.0209  0.3026  0.0959
 5635W        W25915  10.200  14.589  12.291  0.0236  0.0050  0.0106
 5636W        W25916  13.084  10.929   0.105  0.1058  0.1216  0.1449
 5637W        W25917   0.474  18.061  13.406  0.0375  0.1121  0.1094
 5638W        W25918   4.865  10.584   4.190 -0.0226 -0.2191 -0.0065
 5639W        W25919   9.759  13.853   0.929 -0.0748  0.1432  0.0501
 5640W        W25920   6.385   2.590  12.230 -0.1077  0.1092 -0.1880
 5641W        W25921  10.562   4.822   1.487 -0.1007  0.0992 -0.0520
 5642W        W25922  18.102   8.672   3.423 -0.1739  0.3202 -0.0873
 5643W        W25923  16.720   1.451  12.841 -0.0127 -0.0457  0.1159
 5644W        W25924  10.815   5.863   3.594  0.0111  0.2338  0.0854
 5645W        W25925  12.049   7.414  12.585 -0.0669  0.2337 -0.3620
 5646W        W25926   2.077   4.362   0.888 -0.2358 -0.0785  0.0259
 5647W        W25927   2.641   2.869   3.600  0.2217  0.0956 -0.0915
 5648W        W25928   1.945   3.378   2.199  0.0255  0.0708  0.1574
 5649W        W25929   6.768   4.026  12.389 -0.1858  0.2882 -0.2430
 5650W        W25930  18.047   3.692   1.613  0.2310  0.0419 -0.0450
 5651W        W25931   1.975  15.825  12.243  0.0327 -0.0239 -0.1500
 5652W        W25932   3.368   5.902  13.035 -0.1107  0.4803  0.1781
 5653W        W25933   2.314  10.732  15.120  0.0809  0.2214  0.0562
 5654W        W25934   6.318  17.309  14.384  0.0348  0.0616  0.2816
 5655W        W25935  17.585  13.341  15.503 -0.0708 -0.0609 -0.6179
 5656W        W25936   4.570  10.790  14.335 -0.2299  0.0009  0.1267
 5657W        W25937   5.623   5.639  14.374  0.0978 -0.2094 -0.0309
 5658W        W25938   1.902  17.773  12.059  0.1517 -0.3306  0.2506
 5659W        W25939  10.051   6.413  14.378 -0.0317 -0.0575 -0.0288
 5660W        W25940   3.662   8.320  15.504 -0.1368  0.0416 -0.0300
 5661W        W25941  11.612   9.385   0.920  0.0958 -0.0888  0.1960
 5662W        W25942  17.360  10.186   0.912  0.0365  0.0615 -0.1340
 5663W        W25943   3.824  16.874  11.656  0.0793 -0.0980 -0.1880
 5664W        W25944  17.304   9.688   5.202  0.0008  0.0928 -0.1306
 5665W        W25945   8.610  18.310   2.657 -0.0155 -0.1418 -0.0223
 5666W        W25946  12.873  13.499  13.489  0.0694 -0.0291 -0.0468
 5667W        W25947  15.830   3.522  15.490  0.1081  0.0627  0.0730
 5668W        W25948  11.811   7.692  15.473  0.2549  0.0502 -0.3657
 5669W        W25949  16.418  15.237  13.567 -0.2279 -0.0194 -0.0472
 5670W        W25950  13.550  14.094  14.327 -0.2872 -0.2088  0.2982
 5671W        W25951   4.889  15.032  15.648 -0.0781  0.0466  0.0280
 5672W        W25952  15.346   8.539   2.351  0.0840  0.3981 -0.0261
 5673W        W25953  15.682  16.011  14.317  0.3477  0.1920 -0.0456
 5674W        W25954  15.207  17.081   3.776 -0.0434 -0.0953  0.3070
 5675W        W25955   2.781  17.814  15.114 -0.0573  0.0083 -0.0560
 5676W        W25956   3.964  10.839  14.645  0.0554  0.2719 -0.0004
 5677W        W25957  12.103   8.428   2.621 -0.3318  0.1072  0.0946
 5678W        W25958   6.541   9.795  15.345 -0.1820  0.2250  0.1006
 5679W        W25959  11.719  10.887  11.298 -0.0732 -0.0625  0.1601
 5680W        W25960   5.967   2.165   1.266  0.0121 -0.1529 -0.1247
 5681W        W25961   1.712   9.268  11.900 -0.1723  0.2345 -0.2534
 5682W        W25962  10.542  10.783  14.454 -0.0065  0.1028 -0.1777
 5683W        W25963  14.387  14.698  14.193  0.1633 -0.0826 -0.1063
 5684W        W25964   5.489  14.959  13.070  0.1326 -0.0715  0.1247
 5685W        W25965   6.062  10.155   3.644 -0.0561 -0.0149 -0.3071
 5686W        W25966   6.980   8.444  12.988 -0.0160 -0.1022  0.1313
 5687W        W25967  14.603   8.884  14.139  0.1027 -0.1687  0.3144
 5688W        W25968  14.146  12.182  15.136  0.2376  0.0466  0.4132
 5689W        W25969  15.957   6.299   2.948  0.4107  0.1102  0.1372
 5690W        W25970   8.226   7.998   2.094 -0.4411  0.2038 -0.1277
 5691W        W25971   1.290   4.180   0.979 -0.5059  0.0433  0.1861
 5692W        W25972  14.438   4.647   2.080  0.0351  0.1479  0.2542
 5693W        W25973  13.651   3.884  13.364  0.2650  0.0832  0.2082
 5694W        W25974   9.153  14.230  12.335  0.0139  0.0014  0.2917
 5695W        W25975  16.129   6.931  11.926  0.2286 -0.0055 -0.0073
 5696W        W25976   3.015  12.136  11.729 -0.0660  0.0623  0.0506
 5697W        W25977   8.740  15.695  11.747 -0.0702 -0.0998  0.3337
 5698W        W25978   0.439  12.616  12.089  0.3674  0.1863 -0.0578
 5699W        W25979  13.727  18.277  15.042 -0.0010  0.1069  0.1549
 5700W        W25980   9.333   4.751  12.739 -0.1368  0.1111 -0.1349
 5701W        W25981   3.390  11.060   2.216 -0.1125  0.1028  0.0867
 5702W        W25982  10.460   0.855  11.422 -0.3381 -0.0108 -0.2239
 5703W        W25983  13.351  12.744   2.500  0.0469  0.0568  0.1269
 5704W        W25984  10.129  16.362   1.043 -0.0230  0.4014  0.1096
 5705W        W25985  11.562   9.600   3.407  0.2539  0.0644  0.0421
 5706W        W25986  14.716  15.003   2.380 -0.0736 -0.0829 -0.0727
 5707W        W25987   8.642   5.428   2.825  0.0473 -0.4447  0.0385
 5708W        W25988   7.244   7.216  11.654 -0.0653  0.1289 -0.3273
 5709W        W25989   2.868  13.854  12.439 -0.1892  0.0786 -0.0593
 5710W        W25990  17.904   6.877   3.946 -0.0965  0.2665  0.2512
 5711W        W25991  17.147   1.394   4.518 -0.0761  0.3093 -0.1888
 5712W        W25992   3.691  17.118   0.442  0.0524 -0.2665 -0.0995
 5713W        W25993   0.452   4.859  15.078  0.2658  0.1763  0.0107
 5714W        W25994  16.366   9.444   2.812  0.0497  0.1960  0.1023
 5715W        W25995   5.043  10.267  15.802  0.0095 -0.0565 -0.0014
 5716W        W25996   9.119  10.252  13.435 -0.1260 -0.0344  0.1562
 5717W        W25997   9.718  18.117   3.245 -0.0548 -0.1167 -0.0541
 5718W        W25998   5.908   2.264   1.859 -0.0289  0.1969 -0.2039
 5719W        W25999   3.354   1.195  15.378  0.1123 -0.1201  0.0423
 5720W        W26000  15.183  12.409   0.205  0.0659  0.1322  0.0576
 5721W        W26001   6.325  12.516   1.529  0.1933 -0.1986  0.0731
 5722W        W26002   7.071  13.455   2.017  0.0333 -0.0977  0.0956
 5723W        W26003  16.135   3.112  11.300  0.3525 -0.0024 -0.1317
 5724W        W26004   4.559  14.878  15.321 -0.0148 -0.1543 -0.2168
 5725W        W26005  12.551  11.273  15.137 -0.5415  0.2222  0.0023
 5726W        W26006   2.696  15.808  15.325  0.0314  0.2093  0.0952
 5727W        W26007   0.340   3.536   2.734  0.0949  0.0460  0.4118
 5728W        W26008   4.822   2.878  15.540 -0.0100 -0.0891  0.0687
 5729W        W26009   7.014  14.561   1.132 -0.4734 -0.0841  0.0501
 5730W        W26010   7.909   5.002   1.303  0.1758 -0.2797 -0.0444
 5731W        W26011  12.020  14.511  13.225 -0.2465  0.1501  0.1448
 5732W        W26012  12.004  15.622  13.018 -0.0699 -0.0698  0.0904
 5733W        W26013   0.305   8.355  13.285 -0.0654 -0.0862 -0.2615
 5734W        W26014   5.365  11.373  15.238  0.0915  0.1765  0.1647
 5735W        W26015   0.748   5.917   4.459  0.0668  0.0923  0.0965
 5736W        W26016   2.680  10.999  15.404 -0.0392 -0.1835  0.0858
 5737W        W26017   2.458   9.816  14.103  0.1326  0.2483  0.0072
 5738W        W26018   4.013  12.276   4.595  0.1477 -0.1187 -0.0046
 5739W        W26019  15.286  11.031  12.511 -0.1341  0.0230  0.0282
 5740W        W26020   8.520  10.948  11.920  0.1664  0.1457 -0.1520
 5741W        W26021  12.451   9.339   1.797 -0.4083 -0.0149  0.1148
 5742W        W26022  11.709   9.769  12.905 -0.2109  0.0501 -0.3401
 5743W        W26023  13.113   2.780  13.070 -0.0681 -0.1522  0.0553
 5744W        W26024  13.970   6.482   3.103  0.0242  0.0614  0.2039
 5745W        W26025  17.643  15.482  13.000 -0.4293  0.0991 -0.5339
 5746W        W26026  17.261  11.653   1.991  0.1911  0.1267 -0.0549
 5747W        W26027   8.492  16.517  13.710 -0.0500 -0.2503  0.0060
 5748W        W26028   7.614   6.236  12.882  0.3990  0.1078  0.4803
 5749W        W26029  18.054  11.388   4.379 -0.0613 -0.0811 -0.0113
 5750W        W26030   8.872   1.388   4.515  0.1130 -0.0358 -0.1655
 5751W        W26031   3.758   1.772   4.204  0.0294  0.1997  0.2605
 5752W        W26032   9.548   3.236  13.929 -0.2293  0.0929  0.0621
 5753W        W26033  16.441   0.312   0.646 -0.0818 -0.1182  0.0275
 5754W        W26034  17.162   0.421  14.182  0.2747  0.4835 -0.1274
 5755W        W26035   5.249  11.819   2.454  0.0608  0.3276 -0.0395
 5756W        W26036   6.111   7.416   2.266  0.0155  0.0231  0.2711
 5757W        W26037   5.213  16.910  11.958 -0.1382  0.1467  0.1091
 5758W        W26038   8.323  12.148  13.328 -0.0691  0.2391  0.2356
 5759W        W26039  18.293   5.685  13.014 -0.1427  0.0677 -0.3377
 5760W        W26040   8.296  15.894  10.496  0.1129 -0.0103 -0.4329
 5761W        W26041  16.964  13.274   3.504  0.0211 -0.0864  0.0051
 5762W        W26042  12.804   1.907   0.960  0.2109  0.1202 -0.1539
 5763W        W26043   9.767  11.013   3.547 -0.0761  0.0985  0.0332
 5764W        W26044  17.855  11.508   3.464  0.1581 -0.0329  0.2003
 5765W        W26045   7.314   2.878  11.124 -0.0323 -0.0823 -0.1172
 5766W        W26046   7.783   9.170  11.636 -0.1179 -0.0361 -0.1956
 5767W        W26047   2.102  18.098  14.598  0.0430  0.0076 -0.0356
 5768W        W26048   1.100   9.785  14.166  0.1661 -0.0020  0.2076
 5769W        W26049   4.111  13.333   0.202  0.0818 -0.1207 -0.1314
 5770W        W26050   0.524  18.114   3.129  0.3204  0.0434  0.2231
 5771W        W26051   1.970   2.911   2.007  0.1969 -0.2516 -0.0605
 5772W        W26052   9.956  11.898   2.351 -0.0670  0.1276 -0.0203
 5773W        W26053  16.582  12.832  12.285  0.1443  0.0235 -0.0727
 5774W        W26054   6.476  14.703   3.487  0.1186  0.4106 -0.2584
 5775W        W26055   2.331  18.192  15.754  0.0534  0.0018  0.2835
 5776W        W26056   6.148   9.749  12.453 -0.0500 -0.0926 -0.0335
 5777W        W26057   5.386   0.356  12.120 -0.1489 -0.1691  0.3730
 5778W        W26058   8.765  13.127  14.720 -0.1687  0.0161 -0.0584
 5779W        W26059   4.558  15.501  14.530  0.0097  0.3198  0.0559
 5780W        W26060  14.823   0.053   1.414  0.1035 -0.1894 -0.1734
 5781W        W26061  17.757   4.665   4.261 -0.1193  0.0554  0.2766
 5782W        W26062  16.703  11.879  15.574  0.1595  0.2015 -0.1336
 5783W        W26063   8.394   6.899   3.972  0.1992 -0.0830  0.3080
 5784W        W26064  12.475  10.352   4.484  0.1694  0.3111 -0.0939
 5785W        W26065   1.680   1.573   4.462  0.3053  0.0689 -0.0347
 5786W        W26066   6.693   6.021  15.373 -0.2473 -0.1874 -0.0479
 5787W        W26067  14.119   1.256  13.580 -0.2187  0.2637  0.1996
 5788W        W26068   8.595   2.609   0.402  0.1464  0.2162  0.1766
 5789W        W26069  14.517  11.683   1.493 -0.2209  0.2222 -0.0352
 5790W        W26070  15.211   7.746  12.509  0.1290 -0.0142 -0.0652
 5791W        W26071  16.963   1.415  11.158 -0.0275  0.2154 -0.2511
 5792W        W26072  17.391   5.291   2.524  0.0415 -0.0077  0.1038
 5793W        W26073  14.684  13.884  13.622  0.1360 -0.0816 -0.1932
 5794W        W26074   9.147   6.818  13.643 -0.0608 -0.1438  0.4460
 5795W        W26075   0.894  17.631  11.564 -0.0924  0.0892 -0.0793
 5796W        W26076  16.727   0.109   1.014 -0.2939 -0.0422 -0.3715
 5797W        W26077   7.359  15.205  12.636 -0.1559  0.1435 -0.1316
 5798W        W26078   4.433  13.203   3.215 -0.0433  0.0721  0.0745
 5799W        W26079   8.449   2.818  13.198  0.4314 -0.0528 -0.0079
 5800W        W26080  11.530   5.776   1.217 -0.1213 -0.0075 -0.3177
 5801W        W26081  16.369  17.929   4.195  0.1652  0.1045 -0.1231
 5802W        W26082   8.775   0.612  12.254 -0.3946  0.0949 -0.1283
 5803W        W26083  16.844   2.297  15.288 -0.2580  0.1823  0.0261
 5804W        W26084   3.924  10.678   0.474 -0.0260  0.3454  0.2005
 5805W        W26085   9.138  16.290   4.755  0.2850  0.1788 -0.1254
 5806W        W26086   6.696   3.737   3.746  0.0460  0.0019 -0.1155
 5807W        W26087  14.031   1.417  11.023 -0.1354 -0.1500 -0.4300
 5808W        W26088  10.913  16.198   3.967 -0.0686 -0.1630 -0.1975
 5809W        W26089  13.286  16.890   0.307  0.0654 -0.3156 -0.0007
 5810W        W26090   5.389  11.973   0.060 -0.0888  0.1382  0.0811
 5811W        W26091   7.356  11.891   0.727  0.3065 -0.0991  0.0762
 5812W        W26092   3.733   7.279   1.902 -0.0679 -0.1475  0.0158
 5813W        W26093   1.746  13.273  12.029  0.3380  0.0652  0.2088
 5814W        W26094  12.991  13.437  15.708  0.0127  0.0080  0.2519
 5815W        W26095   8.109   6.317  12.555 -0.0832 -0.4395  0.0162
 5816W        W26096  17.718  10.827   0.638  0.0012 -0.3372 -0.2063
 5817W        W26097   9.417   2.697  11.684 -0.2237  0.1903  0.1381
 5818W        W26098  11.503   1.146   3.951 -0.1417  0.0797 -0.3243
 5819W        W26099  18.209   5.067  13.517  0.0215  0.1435 -0.0566
 5820W        W26100  16.554   7.302   3.039 -0.2134  0.0456  0.3177
 5821W        W26101  11.262  13.957  12.148  0.0319 -0.1505  0.3024
 5822W        W26102   8.422   0.854  12.581  0.1869  0.1904 -0.1251
 5823W        W26103  16.009  18.181   1.621 -0.1388  0.3985  0.1393
 5824W        W26104  12.375   9.362  13.454  0.1052 -0.2492  0.1251
 5825W        W26105  14.958   5.374   2.672 -0.2641 -0.0123  0.0996
 5826W        W26106   1.054   8.526   0.108 -0.1550  0.3442 -0.1016
 5827W        W26107   0.594   1.256  14.962 -0.1192 -0.2176  0.1239
 5828W        W26108   1.558   3.345   2.896 -0.1401 -0.0398 -0.2786
 5829W        W26109   2.772   2.533  12.864  0.0692 -0.0788  0.0263
 5830W        W26110  15.148   5.886   2.964 -0.2121  0.1720 -0.2430
 5831W        W26111   7.520  13.425  14.476 -0.1566  0.2997  0.0641
 5832W        W26112   2.824  18.109   4.318  0.0206 -0.5431 -0.0785
 5833W        W26113   1.825   4.698  15.084  0.2442  0.2776  0.1524
 5834W        W26114  10.321   6.962  13.548 -0.1235 -0.0631  0.2439
 5835W        W26115  16.417  11.454  15.410 -0.1066 -0.0885 -0.2207
 5836W        W26116   4.013   9.410   2.699  0.2305 -0.1220 -0.0672
 5837W        W26117   6.603  13.038   4.428  0.1016 -0.0931  0.1333
 5838W        W26118  17.978  12.468  15.765  0.0465 -0.0701 -0.1068
 5839W        W26119   5.136  12.730   1.817  0.3804  0.0344 -0.0970
 5840W        W26120  17.572   5.956   3.816  0.3169 -0.2262 -0.2814
 5841W        W26121  16.357   6.110   3.597 -0.1175  0.3013  0.1040
 5842W        W26122  13.033  13.890  11.112 -0.0474 -0.1336 -0.1479
 5843W        W26123   6.551  13.849  12.921  0.2521 -0.1464 -0.1732
 5844W        W26124   6.369   8.494   0.542  0.0594 -0.0829  0.1372
 5845W        W26125  17.138   0.940   2.014  0.0068  0.1311  0.0810
 5846W        W26126   1.834   9.763   2.201  0.1646  0.0966  0.6398
 5847W        W26127   6.531  12.328   2.373  0.2450  0.2250 -0.0278
 5848W        W26128   9.458   5.498  15.569  0.0663 -0.0101 -0.1604
 5849W        W26129  10.429  16.382  12.909 -0.1488  0.1337  0.1143
 5850W        W26130  10.988  10.062  15.146  0.1216 -0.1339  0.2657
 5851W        W26131  14.177  10.284   4.555 -0.1527 -0.0441 -0.1522
 5852W        W26132   5.627   9.424  13.562 -0.0749 -0.1859  0.1965
 5853W        W26133  12.810   3.037  14.756  0.0929 -0.2111  0.0203
 5854W        W26134   5.412  13.568  13.815 -0.1451 -0.2354 -0.1454
 5855W        W26135   8.335  15.808  14.265  0.2631 -0.0466 -0.1314
 5856W        W26136   5.122   1.350  15.681 -0.1415 -0.1381 -0.0808
 5857W        W26137  18.018  12.852  12.380 -0.3742  0.0889 -0.3029
 5858W        W26138  10.133   9.094   5.410 -0.0268  0.3564 -0.2001
 5859W        W26139   5.887   2.670   3.805 -0.1601  0.1669 -0.0006
 5860W        W26140  17.807   6.653  11.638 -0.0911 -0.0334 -0.0982
 5861W        W26141   3.267   6.736   1.565 -0.0609  0.2931 -0.1519
 5862W        W26142   1.112   5.963   4.767  0.3792  0.2274 -0.1836
 5863W        W26143  11.552  15.595  15.125 -0.4370 -0.3300 -0.0338
 5864W        W26144  10.538   6.545  13.260 -0.1312 -0.2519 -0.2141
 5865W        W26145   0.465  11.487   1.952  0.1452 -0.0841  0.1506
 5866W        W26146  15.860  14.520   3.321 -0.0141  0.0583  0.0762
 5867W        W26147   2.848   7.644   2.823  0.2338 -0.0131 -0.1141
 5868W        W26148   6.195   0.692   1.012 -0.2008 -0.2425  0.3180
 5869W        W26149  11.772  12.689  15.317 -0.0951  0.3280  0.2372
 5870W        W26150   5.763  12.150   1.065 -0.1502  0.3804 -0.1591
 5871W        W26151   1.234   0.920   1.597  0.2878 -0.4175 -0.0354
 5872W        W26152  17.426  13.703  12.509  0.1715  0.1191  0.2028
 5873W        W26153  11.849  12.605  14.376  0.0645 -0.0258 -0.2140
 5874W        W26154  12.599  16.025  12.554 -0.3498 -0.1958 -0.0013
 5875W        W26155  13.554   4.573  10.452  0.0101  0.0566 -0.1320
 5876W        W26156   3.223  16.877  15.038  0.2101  0.0081 -0.0571
 5877W        W26157   0.881  12.529   2.272 -0.1019  0.1247 -0.0081
 5878W        W26158   7.969  16.369  13.169  0.1864  0.1744  0.0057
 5879W        W26159   5.180  14.258   1.497  0.2640 -0.0161 -0.1847
 5880W        W26160  16.987  13.809  13.037 -0.2054 -0.0673  0.0081
 5881W        W26161   6.122  11.515   3.584  0.1479  0.0145  0.0681
 5882W        W26162  10.422  12.072  15.603 -0.1579 -0.0087 -0.1960
 5883W        W26163  12.263   3.185  11.201 -0.1484 -0.1408  0.3688
 5884W        W26164  12.373  14.454  14.572  0.0227  0.2396  0.1760
 5885W        W26165  14.696  11.259  13.768  0.0516  0.0919  0.0619
 5886W        W26166   2.506  16.062  12.959 -0.0744  0.0103 -0.4418
 5887W        W26167  17.999   4.423   3.616 -0.0832 -0.0547  0.1039
 5888W        W26168   3.632  10.292   3.183 -0.4100 -0.0649 -0.0056
 5889W        W26169  13.936   4.282   4.818  0.1998 -0.1445  0.0993
 5890W        W26170  15.514   9.366  15.070 -0.0764 -0.0589 -0.0407
 5891W        W26171  14.257   6.662  12.629 -0.3345 -0.0914 -0.0586
 5892W        W26172   8.744  16.459  12.366 -0.1169  0.2338  0.3126
 5893W        W26173   6.915  15.133  14.768 -0.1122  0.0706  0.3592
 5894W        W26174   0.870  10.585   3.702 -0.0696  0.0782 -0.0129
 5895W        W26175   0.839  10.231  12.353  0.0242  0.2393 -0.0324
 5896W        W26176   4.212  11.355  11.247 -0.1937 -0.1403  0.0500
 5897W        W26177   8.675   7.474  11.421 -0.0392  0.0710  0.0461
 5898W        W26178   0.403  10.157   3.327  0.0498 -0.0236 -0.0066
 5899W        W26179   6.811  14.826   4.420 -0.1345 -0.2226  0.2120
 5900W        W26180  17.777  12.058   0.340 -0.1788 -0.0902  0.2661
 5901W        W26181   3.756   2.250   4.394  0.2331  0.1924  0.1300
 5902W        W26182   9.254   8.472   2.857  0.0123  0.2484 -0.1523
 5903W        W26183   8.437  14.724  15.241  0.0088  0.1078 -0.2305
 5904W        W26184   5.939  14.022   3.583 -0.0280 -0.1847 -0.1206
 5905W        W26185   9.794   2.378  11.817  0.0340 -0.1840 -0.0341
 5906W        W26186   2.243   6.724   3.415  0.1829 -0.0800 -0.2754
 5907W        W26187   8.195   0.541  12.312 -0.1049 -0.0108 -0.2615
 5908W        W26188  11.337   6.945  15.213  0.0938 -0.0123 -0.1820
 5909W        W26189  13.645  15.713  14.912 -0.3989 -0.0401  0.2568
 5910W        W26190  15.923  13.870   5.645 -0.2388  0.0099  0.2167
 5911W        W26191  11.360  12.878  13.145  0.1264  0.1854 -0.1268
 5912W        W26192   6.967  12.430  15.938 -0.0157  0.1139  0.0294
 5913W        W26193   5.018  10.149   0.395 -0.2876 -0.2630  0.0674
 5914W        W26194  14.126   0.041  13.057 -0.0957  0.1677 -0.1890
 5915W        W26195   9.135  14.727  14.874  0.1930 -0.0030  0.0236
 5916W        W26196  14.681  10.901   4.822 -0.0084 -0.0898 -0.2101
 5917W        W26197   7.032   9.635   4.419  0.0230 -0.0800  0.2111
 5918W        W26198  16.566  10.907   4.754  0.0645  0.1869 -0.0169
 5919W        W26199   7.913  12.577   4.854  0.0139 -0.2669  0.1404
 5920W        W26200   2.098   5.512  15.701  0.1575  0.1548 -0.0493
 5921W        W26201  16.282   8.363   2.243  0.1062  0.0412  0.1396
 5922W        W26202   8.406  13.339  15.140 -0.1721 -0.0852 -0.0470
 5923W        W26203  14.292  16.662   2.704  0.0108  0.0246 -0.0570
 5924W        W26204  12.941  13.613  12.646  0.1417 -0.0340 -0.4569
 5925W        W26205  16.399  15.297  12.209 -0.0118 -0.4259 -0.0209
 5926W        W26206  13.250   5.234  13.749 -0.0807 -0.0396  0.1634
 5927W        W26207   8.010  14.469   0.569 -0.1283 -0.0370  0.2748
 5928W        W26208   3.131  10.288   1.648  0.2276  0.0736 -0.0046
 5929W        W26209   9.573  17.849   2.836  0.1833  0.0325 -0.0219
 5930W        W26210   3.697  15.595  15.466  0.2004  0.0356 -0.0424
 5931W        W26211   9.698   8.220  12.507 -0.3163  0.1065 -0.2600
 5932W        W26212  10.767  18.105   1.432  0.1935 -0.0700  0.0548
 5933W        W26213  15.529  17.159  14.020 -0.1369  0.1313  0.0658
 5934W        W26214  10.546  14.324  11.493 -0.1570 -0.0130 -0.1734
 5935W        W26215  15.652   3.526   1.237  0.2008  0.2043 -0.0694
 5936W        W26216   2.024   5.182  12.775 -0.1898  0.0255 -0.3804
 5937W        W26217  16.975  17.520  13.303 -0.1971 -0.0283 -0.2314
 5938W        W26218  11.390   3.725  15.184 -0.0661  0.0434 -0.1628
 5939W        W26219   2.417  14.490   4.285 -0.0581 -0.0333 -0.1979
 5940W        W26220   1.937  17.864  13.394 -0.1281  0.1195 -0.1718
 5941W        W26221  10.267   6.349   2.857  0.2525  0.1898  0.1525
 5942W        W26222   7.450   7.839   4.308 -0.1166 -0.1004  0.0432
 5943W        W26223   2.755   6.210  15.291  0.1193 -0.5119 -0.0700
 5944W        W26224   2.169  14.559  14.232 -0.0680 -0.2151  0.0233
 5945W        W26225  10.511   9.113   2.768 -0.0586  0.0529  0.0783
 5946W        W26226   2.403   3.847  15.006 -0.2134  0.0335  0.0252
 5947W        W26227  13.223  16.769  13.394  0.1267 -0.2288 -0.0421
 5948W        W26228  10.125  15.639   3.809 -0.1448  0.1447 -0.2233
 5949W        W26229  16.376   1.077  12.741  0.1470  0.0484 -0.0169
 5950W        W26230  17.306   4.048  14.515 -0.2910  0.3012  0.0951
 5951W        W26231  14.032   8.423   4.732  0.2163  0.3345  0.1275
 5952W        W26232  17.271  11.879   1.278 -0.1116  0.0202 -0.2116
 5953W        W26233  10.210   6.369   0.145 -0.0345  0.0018 -0.0164
 5954W        W26234  10.074  17.235  11.613 -0.1409  0.0676  0.1491
 5955W        W26235   0.346  16.471  14.351 -0.1348  0.0912  0.0483
 5956W        W26236   3.274  15.700   1.424  0.0029  0.0959 -0.0165
 5957W        W26237  14.249  13.567   4.920 -0.0149 -0.3124 -0.0995
 5958W        W26238   4.171   4.964  15.308 -0.1978  0.1396  0.0958
 5959W        W26239   2.483   5.676   3.783  0.0060 -0.0067  0.0739
 5960W        W26240  14.181   9.998  15.151  0.1301 -0.0015 -0.0395
 5961W        W26241   6.471   6.432  15.525 -0.0098  0.1775  0.0061
 5962W        W26242  14.454  12.324   4.878 -0.1447 -0.1765 -0.2994
 5963W        W26243  16.598  14.136  12.923 -0.1716 -0.1123 -0.1812
 5964W        W26244  13.974   1.499   2.890 -0.2776 -0.1597 -0.1981
 5965W        W26245   9.241   7.770   1.148  0.2023 -0.0858 -0.0462
 5966W        W26246  17.454  15.228   1.045  0.1042  0.0016 -0.0372
 5967W        W26247   4.121  17.168   2.962  0.0816  0.0361  0.0121
 5968W        W26248  15.627   1.410  14.238 -0.1334 -0.0279 -0.0640
 5969W        W26249   5.998   6.559   3.970 -0.2607  0.1230  0.0704
 5970W        W26250   8.139   6.230  14.737  0.2447 -0.0384  0.2865
 5971W        W26251  12.956   4.144  13.929 -0.0765 -0.2027  0.1052
 5972W        W26252  14.283  11.892   3.554  0.0963  0.2673 -0.0632
 5973W        W26253  14.072  14.696  12.125 -0.3147 -0.1615  0.1119
 5974W        W26254  13.564  14.530   2.080  0.1080  0.0888  0.1122
 5975W        W26255  16.529   9.791   3.973  0.1495  0.0807 -0.0028
 5976W        W26256  12.049  18.325   3.294 -0.0269  0.0498  0.0725
 5977W        W26257  15.121  18.109   0.044  0.1354  0.0613 -0.2937
 5978W        W26258   3.153   7.251  12.599 -0.2779  0.3399 -0.0050
 5979W        W26259   6.140  10.580  13.070  0.1220 -0.2207 -0.1626
 5980W        W26260   5.011   0.986  15.399 -0.0129  0.0478  0.1607
 5981W        W26261   3.236  13.555   3.921 -0.0305 -0.1198 -0.1051
 5982W        W26262  14.070   0.834   1.826  0.1086 -0.2517 -0.4656
 5983W        W26263   8.113  12.892  12.949  0.2418 -0.1108 -0.3378
 5984W        W26264   5.037   9.910  12.648  0.2092  0.2490  0.3766
 5985W        W26265   9.934  13.064   5.238  0.2118 -0.2403  0.2188
 5986W        W26266   8.319  11.273   0.831  0.0329  0.0041 -0.1285
 5987W        W26267  12.645  17.012  15.018 -0.1263  0.0930 -0.1304
 5988W        W26268   1.545   3.258   0.588  0.0292 -0.1372  0.4203
 5989W        W26269  12.113   4.457   4.305  0.0200 -0.0306 -0.0807
 5990W        W26270  10.112  15.649  15.099  0.0871 -0.1275  0.1973
 5991W        W26271  17.031  11.530   2.516 -0.1114  0.0268 -0.2989
 5992W        W26272   0.528   1.393   0.987  0.1654 -0.1639 -0.1119
 5993W        W26273  14.159  16.504   0.549 -0.1118 -0.2844  0.0693
 5994W        W26274  12.063   1.534  11.866  0.2293 -0.1968 -0.0420
 5995W        W26275   1.844   0.825   4.092  0.0338  0.2393  0.0771
 5996W        W26276  15.431   6.320   3.062 -0.1086  0.2378  0.0470
 5997W        W26277   3.690  16.435  11.497  0.2259  0.2150 -0.2647
 5998W        W26278  10.712  14.519  13.487 -0.0393 -0.2200 -0.1180
 5999W        W26279   0.218   0.863  11.515 -0.0425 -0.2411  0.2074
 6000W        W26280  17.774   3.682  12.265 -0.1392 -0.1269 -0.0693
 6001W        W26281  11.643   6.506   2.499 -0.0720  0.0320  0.2434
 6002W        W26282  15.953   6.247  15.022  0.1476 -0.1295  0.1650
 6003W        W26283   9.252   8.077  14.993  0.1485 -0.0526  0.0158
 6004W        W26284  11.201   6.535   0.202  0.1460 -0.0600 -0.3403
 6005W        W26285   9.859  16.420  15.365 -0.0929  0.0440  0.0716
 6006W        W26286   3.396   7.146  13.877 -0.1742  0.0421 -0.4346
 6007W        W26287   8.259  17.733   1.026 -0.0828  0.0605  0.2003
 6008W        W26288  12.435   8.187   0.656 -0.1880  0.3343 -0.0661
 6009W        W26289   3.911  17.915  12.277  0.0116 -0.0338  0.3661
 6010W        W26290   8.812   0.838  15.020 -0.0180 -0.2534  0.0543
 6011W        W26291   8.232   6.862   0.947 -0.1072  0.0177  0.2088
 6012W        W26292   5.078   4.924   3.949  0.1491  0.0001 -0.1643
 6013W        W26293  15.105  14.392   0.817  0.1118 -0.0106  0.1879
 6014W        W26294  16.575   9.227   3.223  0.2938  0.0008  0.1745
 6015W        W26295   2.284  14.677   0.577  0.0429 -0.0484 -0.0694
 6016W        W26296  12.837  11.302  11.385  0.0842  0.0167 -0.2259
 6017W        W26297  16.108   0.347  14.574  0.1292  0.0372  0.0849
 6018W        W26298  12.183   7.333  14.016 -0.2626  0.1083  0.1656
 6019W        W26299  16.522   0.174  13.745  0.0657  0.2259 -0.0418
 6020W        W26300  10.496   4.901   3.577 -0.0737 -0.0357 -0.0850
 6021W        W26301  17.479   7.090   1.912  0.0793 -0.0592 -0.0334
 6022W        W26302   0.494  10.438  15.015  0.0739 -0.1640 -0.3557
 6023W        W26303   6.292  15.792  11.320 -0.0574 -0.2986 -0.3543
 6024W        W26304  15.824   8.576  14.640 -0.0454 -0.0067 -0.1569
 6025W        W26305   7.770  17.659   2.586  0.0587  0.3907 -0.1382
 6026W        W26306  11.571   2.365  13.288 -0.0705  0.0852  0.0752
 6027W        W26307   4.174  10.571  15.636  0.2349 -0.4943  0.2098
 6028W        W26308   2.897   4.460   0.736 -0.1589 -0.1601 -0.3303
 6029W        W26309   9.801   7.435  14.249 -0.0504 -0.0618  0.2322
 6030W        W26310  14.087  13.683   0.834 -0.4417  0.4749  0.1295
 6031W        W26311   7.555   6.261   2.067  0.1078 -0.1404 -0.1061
 6032W        W26312   9.266   0.944   2.873  0.0458 -0.0997 -0.0820
 6033W        W26313   3.368  14.936   1.816  0.3300 -0.0973  0.0371
 6034W        W26314   8.415  15.097   0.028 -0.0296  0.0401 -0.0638
 6035W        W26315   9.805  13.158  14.828  0.0828 -0.2102  0.0084
 6036W        W26316  14.086  17.483  12.143  0.0779  0.1648 -0.1305
 6037W        W26317  12.815   2.399   3.575 -0.1749  0.0653 -0.0370
 6038W        W26318  14.857  12.208   1.286 -0.0914 -0.1693 -0.0537
 6039W        W26319   5.530   2.934   3.073  0.0397  0.4424 -0.1053
 6040W        W26320   0.728  10.779   4.724 -0.1533 -0.1904  0.0427
 6041W        W26321  17.782  10.076   0.525  0.1332 -0.1453  0.0535
 6042W        W26322  15.557   4.664  13.396  0.0254  0.0445  0.2672
 6043W        W26323  13.017   6.770   2.137 -0.0287  0.3733 -0.2389
 6044W        W26324   7.177  14.138  11.923 -0.0037  0.0048  0.1311
 6045W        W26325   1.338   4.087  12.649  0.2089 -0.0878 -0.1514
 6046W        W26326  12.467  17.735   4.386  0.2079  0.1804  0.2261
 6047W        W26327   8.807  14.210   4.409 -0.0641  0.1998  0.1380
 6048W        W26328  12.104   6.493  12.713 -0.0295 -0.0943 -0.0384
 6049W        W26329   6.717   4.963   3.441 -0.0464  0.1600 -0.0830
 6050W        W26330   0.527  13.312  11.182  0.1322  0.0770  0.0567
 6051W        W26331   1.858  17.434   1.817 -0.1324  0.0430 -0.1269
 6052W        W26332   3.264  18.285  15.580 -0.3605 -0.0627 -0.0584
 6053W        W26333   5.789   4.334  12.078 -0.1301 -0.0338  0.1159
 6054W        W26334   7.404   8.298  13.765 -0.1332  0.0208  0.0737
 6055W        W26335  15.283   6.256  12.608 -0.2797 -0.2323 -0.2914
 6056W        W26336   8.148  10.366  12.994  0.1652 -0.1051 -0.2949
 6057W        W26337  10.448   8.223  12.349  0.1937 -0.1251  0.2925
 6058W        W26338   1.494  12.315  14.429 -0.0079 -0.2363  0.0322
 6059W        W26339  11.486   7.287   2.907  0.1452  0.1827 -0.0835
 6060W        W26340   0.814  11.692   2.257 -0.0580  0.3764  0.0792
 6061W        W26341   2.335  16.172   1.408 -0.3088 -0.2179 -0.1400
 6062W        W26342   0.193  12.893  12.355 -0.0139  0.0616 -0.0020
 6063W        W26343  17.567   9.119   2.109  0.0834  0.0513  0.0614
 6064W        W26344   0.097  17.459   1.767 -0.2633 -0.0335 -0.0533
 6065W        W26345   3.495   3.666   3.905 -0.1194  0.2276  0.0264
 6066W        W26346  13.811   8.109   3.961 -0.1833 -0.1424 -0.1598
 6067W        W26347   6.674   7.208  14.296 -0.0656 -0.0953 -0.0065
 6068W        W26348   1.146   5.081  13.772  0.1051 -0.0999 -0.5162
 6069W        W26349  13.938   1.455  14.023 -0.0379  0.1312  0.1394
 6070W        W26350  17.878   7.781   2.884  0.1250  0.1382  0.1832
 6071W        W26351   8.836   4.970   2.941  0.1615 -0.3675 -0.1723
 6072W        W26352  13.741  11.034   1.401 -0.1531 -0.0152 -0.0378
 6073W        W26353  11.376   9.458  11.237  0.3999  0.1214 -0.0214
 6074W        W26354  14.344   2.092   1.598 -0.0726  0.3306  0.0924
 6075W        W26355   4.417   3.498   3.951  0.1011  0.0476 -0.0852
 6076W        W26356   8.554   6.730  13.609 -0.0368  0.0629  0.1586
 6077W        W26357  13.517   1.299  11.251 -0.3379  0.0944 -0.1015
 6078W        W26358   6.282  15.784   1.168 -0.1647 -0.0118 -0.1768
 6079W        W26359  10.191  10.051   2.920 -0.2197 -0.1558 -0.0563
 6080W        W26360  15.717  12.441  14.217 -0.2982  0.3805  0.2797
 6081W        W26361  14.022  15.022  14.327  0.2437  0.1023 -0.0322
 6082W        W26362  16.242  15.000   1.282  0.1361  0.3548  0.0818
 6083W        W26363  11.811   2.935  12.478 -0.1225 -0.1630  0.0900
 6084W        W26364   1.208   5.776   3.552 -0.1590 -0.1429 -0.1053
 6085W        W26365  18.318  18.109  13.511 -0.1784 -0.1801  0.0999
 6086W        W26366  14.242  14.053  13.288  0.0993  0.0705 -0.0915
 6087W        W26367   0.836  14.235   2.281  0.1124 -0.1392  0.1413
 6088W        W26368  10.943   6.553  15.308  0.1331  0.0586  0.2725
 6089W        W26369  11.581   3.775   0.045  0.1104  0.0192 -0.1067
 6090W        W26370   4.885   2.896  12.552 -0.0585 -0.0421 -0.1127
 6091W        W26371   2.827   2.130  11.334  0.0886 -0.1391 -0.0247
 6092W        W26372   2.034  16.793   0.554  0.2313 -0.2149  0.3719
 6093W        W26373   8.978  16.252   3.974 -0.1305  0.2044 -0.1367
 6094W        W26374   3.798   4.584  10.719 -0.1821  0.2890  0.1289
 6095W        W26375  13.735   7.093  15.691  0.0503 -0.0529  0.0893
 6096W        W26376  10.559   1.603  14.403  0.1236 -0.0819  0.2336
 6097W        W26377   0.995  17.035   0.588 -0.0227 -0.2479 -0.2366
 6098W        W26378  16.855  17.126   3.293  0.0150  0.0841  0.1210
 6099W        W26379   8.035  17.714  15.281  0.1576 -0.0760  0.2281
 6100W        W26380   9.774  16.026   1.811  0.3412  0.1597 -0.3977
 6101W        W26381   1.457  15.207  13.225 -0.1345  0.1623  0.3390
 6102W        W26382   0.446   5.227  13.689  0.0270  0.1497  0.3909
 6103W        W26383  17.200  13.058  15.596 -0.1611  0.2417 -0.0661
 6104W        W26384   6.247  11.800  14.088  0.1286 -0.0759  0.1041
 6105W        W26385  15.002  15.367   1.281 -0.1171  0.1130  0.0603
 6106W        W26386  13.107   3.914  13.457  0.1292  0.0834 -0.1771
 6107W        W26387  10.850  14.096   4.139 -0.1408 -0.0623  0.0571
 6108W        W26388  15.002   7.042   4.464 -0.1658  0.1329 -0.0366
 6109W        W26389  12.503  13.113  12.567 -0.1080 -0.2169  0.0185
 6110W        W26390  14.237  16.009   0.316 -0.1494 -0.3313 -0.1560
 6111W        W26391   4.306   5.589  11.698 -0.0722 -0.0688  0.0591
 6112W        W26392  13.251  15.907   1.102 -0.2367  0.3484 -0.2535
 6113W        W26393  11.189   9.634  12.060 -0.0805 -0.3112 -0.0587
 6114W        W26394   0.079   7.637  12.984  0.1279 -0.1844  0.2027
 6115W        W26395   3.702  12.294   5.022  0.0968 -0.1927 -0.2301
 6116W        W26396  16.678  16.246   4.384 -0.0827 -0.0829  0.1752
 6117W        W26397   6.941   0.149   3.952  0.1572  0.0226  0.3104
 6118W        W26398   5.194   6.942  15.648 -0.0951 -0.1341  0.1338
 6119W        W26399  12.480  12.646  14.595 -0.2882  0.0823  0.1750
 6120W        W26400   4.382   8.742  15.087  0.2995 -0.2836  0.0570
 6121W        W26401   1.119   5.817  15.039 -0.0536 -0.0689 -0.2695
 6122W        W26402   4.740   1.758  12.537  0.0166  0.1568  0.1401
 6123W        W26403   9.682   1.899  11.516 -0.1038  0.1322 -0.1384
 6124W        W26404  12.137  10.962  15.048 -0.4308  0.1699 -0.0633
 6125W        W26405  10.975   9.467   3.566 -0.2642 -0.1346  0.2273
 6126W        W26406  14.537   0.296   1.114 -0.0331  0.1866 -0.1133
 6127W        W26407   4.099  17.715   4.420 -0.2576  0.1070  0.1097
 6128W        W26408   9.337  17.670   3.291  0.3516 -0.2850 -0.1065
 6129W        W26409   6.160   0.694   4.188 -0.2439  0.3578 -0.1569
 6130W        W26410  16.138  13.835  14.409  0.1945  0.1201 -0.1739
 6131W        W26411   2.287   3.401  11.104 -0.2841 -0.1094  0.0842
 6132W        W26412   4.917   9.367   3.116  0.1647  0.0756 -0.0082
 6133W        W26413   8.905   6.377  13.577 -0.1468  0.2492 -0.2868
 6134W        W26414   3.973  16.213  11.837 -0.0333 -0.0395  0.0880
 6135W        W26415  12.898   9.633  14.877  0.0126  0.1450  0.1634
 6136W        W26416   2.453   8.179   0.976  0.0477 -0.4177 -0.1193
 6137W        W26417   0.989  13.545   4.505  0.1504 -0.1638  0.0925
 6138W        W26418   5.377   1.644   3.081  0.2585 -0.1343  0.0595
 6139W        W26419   3.345   3.011  13.705  0.1871  0.2046 -0.2447
 6140W        W26420   5.183  10.445  13.190  0.2780 -0.3685  0.0749
 6141W        W26421  16.831  17.245  15.376 -0.1624  0.1811  0.0230
 6142W        W26422  16.462   5.216   1.829 -0.1404 -0.1738  0.1090
 6143W        W26423  15.830   8.037  13.319  0.1249  0.3881  0.1136
 6144W        W26424   0.613   1.351   2.972 -0.1017  0.2787  0.1086
 6145W        W26425   4.010  10.351  14.768  0.0301  0.1179  0.1167
 6146W        W26426   7.829  14.420  14.339 -0.1222 -0.1544 -0.1881
 6147W        W26427   2.752   0.696   0.079  0.2185  0.1374  0.0805
 6148W        W26428  10.371   6.809  15.893 -0.0082  0.0704  0.1558
 6149W        W26429   1.793  13.918  13.126  0.1344 -0.1850 -0.0888
 6150W        W26430  10.630  14.887  14.836 -0.0848 -0.0923 -0.3715
 6151W        W26431  11.153   7.155  11.976 -0.1316 -0.0507 -0.1037
 6152W        W26432  12.165   7.135   2.865 -0.1681  0.0987  0.0025
 6153W        W26433   8.875  16.002   3.001 -0.0149  0.0111 -0.0672
 6154W        W26434  10.283   2.358   0.340 -0.2051 -0.0111  0.0543
 6155W        W26435   7.215  17.787  12.042  0.0909 -0.0034  0.0121
 6156W        W26436  16.564  18.114  12.578 -0.2420  0.0592 -0.4752
 6157W        W26437  13.266  10.670  13.983 -0.0437  0.0979 -0.2054
 6158W        W26438  16.161   8.989   1.297 -0.3103 -0.0185 -0.1585
 6159W        W26439   7.469  11.174   5.949  0.0865 -0.3851 -0.1083
 6160W        W26440   8.503   4.126   1.620 -0.1728  0.0252 -0.1675
 6161W        W26441  15.057   1.169  13.790 -0.0914  0.0333 -0.1120
 6162W        W26442  15.098  16.916   0.564  0.1132 -0.1572 -0.1895
 6163W        W26443  15.928   7.100   0.788 -0.0452  0.2203 -0.1404
 6164W        W26444  17.746  14.889  13.803  0.0344  0.1710  0.1576
 6165W        W26445   0.297   2.810   4.601  0.3201  0.2006  0.1850
 6166W        W26446   3.354  15.095   2.662 -0.2700  0.0179  0.0805
 6167W        W26447   0.740  14.003  13.937  0.3169  0.1128  0.0520
 6168W        W26448   7.857  10.830   4.183 -0.2679 -0.2979  0.0471
 6169W        W26449  10.115  15.692  13.289 -0.1059 -0.0785 -0.1240
 6170W        W26450   9.433  17.023   0.998 -0.0917  0.1075 -0.3818
 6171W        W26451   4.406  11.313   2.464 -0.0658 -0.3423 -0.0212
 6172W        W26452   3.945   1.107  14.182  0.0706  0.0453 -0.0941
 6173W        W26453  13.586   5.866   3.843 -0.3162  0.2493 -0.1952
 6174W        W26454   3.943   5.357  13.709  0.2992  0.3888 -0.0876
 6175W        W26455   9.591   8.850  13.686 -0.1349 -0.2349 -0.4135
 6176W        W26456   1.588   9.207   0.432 -0.1130  0.3808  0.0139
 6177W        W26457  18.328   8.456   3.853 -0.0577 -0.0732 -0.3184
 6178W        W26458  15.546  12.296  15.385 -0.2019  0.2466 -0.0429
 6179W        W26459  12.877  11.710  11.869  0.1926 -0.2850  0.1260
 6180W        W26460  11.874   6.521   0.883  0.0931 -0.1855  0.0854
 6181W        W26461  15.615  11.086  12.946  0.1162  0.1223 -0.1642
 6182W        W26462   3.496  14.136  12.702 -0.1206  0.0690 -0.3931
 6183W        W26463   6.222   5.551  13.479  0.0542 -0.1628 -0.3923
 6184W        W26464   5.181  17.980  13.010 -0.1845  0.1240 -0.2583
 6185W        W26465   5.755  13.642  15.476 -0.0084 -0.0333  0.4232
 6186W        W26466  17.056   1.652   2.315  0.3339 -0.0893  0.2103
 6187W        W26467  10.943   1.758  11.495  0.1106  0.1727  0.2430
 6188W        W26468   2.467  12.762  15.855  0.2400  0.0246 -0.1712
 6189W        W26469  12.545  12.739   1.965  0.1524 -0.1179 -0.2200
 6190W        W26470   0.073   8.704  11.032 -0.2067 -0.2072  0.1515
 6191W        W26471   2.680  12.527  11.783 -0.1503  0.1436  0.2160
 6192W        W26472  18.150   2.919   4.249 -0.0477 -0.2855 -0.2339
 6193W        W26473  13.235   0.693  11.735 -0.0889  0.0123 -0.1019
 6194W        W26474  12.064   2.205   2.328 -0.0359 -0.1029  0.1055
 6195W        W26475   1.810   1.818  15.450  0.0965 -0.0875  0.0909
 6196W        W26476   1.739   8.898   3.623  0.1832  0.3107  0.0420
 6197W        W26477   4.927  16.241   2.934  0.0775 -0.2000  0.0871
 6198W        W26478  10.364   5.606   3.485  0.4225  0.2490 -0.2119
 6199W        W26479  16.095   7.641   1.641 -0.2069  0.0463  0.3139
 6200W        W26480  11.886  18.067   3.744  0.2582  0.0092 -0.1262
 6201W        W26481   0.479   2.431  12.449  0.2403 -0.4483  0.0278
 6202W        W26482  12.137   9.941   4.569  0.1395 -0.0276  0.0871
 6203W        W26483   7.210  11.906  12.743  0.3042  0.0944 -0.0126
 6204W        W26484   7.992   8.559  15.306  0.0191 -0.0789  0.0375
 6205W        W26485   3.203   6.474   0.863  0.2402 -0.3972 -0.0251
 6206W        W26486  18.246  17.262   1.346 -0.2031  0.0607  0.0940
 6207W        W26487   3.335   5.980  15.899 -0.2128 -0.2338 -0.2979
 6208W        W26488   8.384  15.415   3.704 -0.0003 -0.1335 -0.1054
 6209W        W26489  17.099   7.931   2.283 -0.0444 -0.2826 -0.1706
 6210W        W26490   5.028   3.406   0.998 -0.1536 -0.2727  0.0412
 6211W        W26491   7.902   6.922   3.829  0.1021 -0.0589 -0.0037
 6212W        W26492   5.355   3.276  14.914  0.2694  0.0015 -0.0558
 6213W        W26493   0.011  10.672  12.212  0.0898  0.0656 -0.1602
 6214W        W26494  13.854   3.389  13.283 -0.0973 -0.0074 -0.1909
 6215W        W26495  10.266   0.221   5.169 -0.0274 -0.1199 -0.0871
 6216W        W26496   7.829   1.240  11.955  0.0033  0.1653  0.1396
 6217W        W26497  16.501   1.477  12.189  0.2349 -0.1389 -0.0720
 6218W        W26498   4.248  13.754  13.003  0.2546  0.0040  0.1117
 6219W        W26499  10.700   2.771   3.324  0.1298  0.1011  0.2090
 6220W        W26500   2.298   4.930   1.435  0.0707 -0.2478 -0.2196
 6221W        W26501   4.510   5.152   3.748  0.0047  0.3236  0.1655
 6222W        W26502   8.961   5.922   3.386  0.0367 -0.0959 -0.1544
 6223W        W26503  15.508   8.348   3.779  0.0569 -0.1532  0.1071
 6224W        W26504  10.672  11.902  15.203 -0.0334 -0.0927  0.0135
 6225W        W26505  13.275  14.056   4.163 -0.0345  0.0236 -0.1329
 6226W        W26506   2.247   6.055   1.718 -0.2385 -0.2760  0.1142
 6227W        W26507   4.496  11.282   3.711 -0.0776 -0.0296  0.2108
 6228W        W26508  18.329  12.234   3.116  0.2581  0.0696 -0.0263
 6229W        W26509   1.182  15.028  13.589  0.2507  0.1307  0.0198
 6230W        W26510   7.497   1.909  14.124  0.0168 -0.3146  0.1257
 6231W        W26511   9.543  12.391   1.845  0.1043 -0.1021 -0.2497
 6232W        W26512   4.739  16.737  11.904 -0.1384 -0.0014 -0.1065
 6233W        W26513   3.432  12.144  11.994 -0.3038  0.0770  0.0849
 6234W        W26514   9.103   6.358  14.424  0.2726 -0.1717  0.1166
 6235W        W26515   3.861   7.415  13.824  0.1432 -0.0518 -0.0951
 6236W        W26516   2.070   2.402   2.794 -0.0256  0.0623 -0.0924
 6237W        W26517  14.975  16.204   3.758  0.0992 -0.2677  0.2028
 6238W        W26518   8.276  12.085  15.007  0.1284 -0.0328 -0.1997
 6239W        W26519   2.280   5.266   2.919  0.0752  0.2867  0.1415
 6240W        W26520  11.953   1.626  15.705 -0.0038  0.0163  0.1161
 6241W        W26521  10.425   8.105  10.705 -0.1599  0.1595  0.3730
 6242W        W26522   2.017  11.447   3.676 -0.1903 -0.1797 -0.1084
 6243W        W26523   6.691   0.286  13.991 -0.1102  0.1773  0.0555
 6244W        W26524  18.246  10.115  13.517 -0.1656 -0.2951  0.1893
 6245W        W26525  18.266  11.088   0.723 -0.0870 -0.1481  0.0393
 6246W        W26526   3.561  10.811   1.780 -0.1343  0.2152  0.0179
 6247W        W26527  14.832   1.243  13.252 -0.0093  0.0650 -0.2175
 6248W        W26528   8.153   3.844   3.850 -0.0257  0.0883 -0.1563
 6249W        W26529   8.105  18.004  14.109 -0.3133 -0.0384  0.2637
 6250W        W26530  14.610   8.947   0.451  0.0857 -0.1780 -0.1136
 6251W        W26531   2.932  16.549   0.173  0.1146 -0.4562  0.1665
 6252W        W26532  11.843   3.715  15.548 -0.4067 -0.0616 -0.2710
 6253W        W26533   3.257   5.597   3.072 -0.0355 -0.2081  0.1578
 6254W        W26534   6.442  12.598  15.371  0.0115 -0.2217  0.0177
 6255W        W26535   8.123  13.583   4.820 -0.0386  0.1202 -0.0188
 6256W        W26536  10.195  11.357   3.631  0.3396  0.1287 -0.2862
 6257W        W26537  13.855   8.703  15.300 -0.0821  0.1846  0.2640
 6258W        W26538   9.884   2.270  12.336 -0.0872  0.1681  0.0285
 6259W        W26539  14.302   5.636   4.071 -0.1905  0.0927 -0.2448
 6260W        W26540   1.432  18.177   3.537  0.1774  0.1991  0.1098
 6261W        W26541   3.552  17.699  11.974 -0.1094  0.2422 -0.2395
 6262W        W26542  10.619  11.915   4.377  0.1815 -0.1607  0.2378
 6263W        W26543  16.690  13.213   4.495  0.2404 -0.2367  0.3007
 6264W        W26544   9.836   7.299   0.322 -0.0470 -0.1912  0.0425
 6265W        W26545   6.941   9.127  14.779 -0.2631  0.0954  0.0220
 6266W        W26546  12.747   0.549   1.998 -0.0136 -0.0813  0.0263
 6267W        W26547   6.296   7.162   1.246  0.0257  0.4059  0.0848
 6268W        W26548  15.292   9.629   3.080  0.0361  0.1579  0.1759
 6269W        W26549   1.911   5.334   4.366 -0.2042  0.0593 -0.0615
 6270W        W26550  16.123   7.608  15.677  0.0361 -0.1484  0.0410
 6271W        W26551  12.916  12.737   1.246 -0.0892  0.2110  0.1707
 6272W        W26552   6.811  13.202   6.158 -0.1952 -0.0796  0.0351
 6273W        W26553   7.990  10.409   2.240  0.2407  0.0966 -0.3571
 6274W        W26554   8.692  17.729  13.903 -0.0017 -0.2916  0.3852
 6275W        W26555   1.132  17.950   4.310  0.1170  0.1610  0.0064
 6276W        W26556  14.389  13.087  11.735 -0.1217  0.1278  0.3748
 6277W        W26557   5.855  12.758  13.575  0.0181 -0.0232  0.0437
 6278W        W26558  14.280   3.858   4.477  0.4012  0.3073  0.1582
 6279W        W26559  15.570   9.828   3.480  0.0732 -0.0310  0.2853
 6280W        W26560  13.128  12.168   1.042 -0.0841  0.0763 -0.0535
 6281W        W26561   5.956   9.253   3.735 -0.1650 -0.0533  0.0227
 6282W        W26562   9.051   7.287   1.394 -0.1059  0.0182 -0.0152
 6283W        W26563   6.798  16.172  12.599 -0.0159  0.0841 -0.1615
 6284W        W26564   7.980  11.407  12.555  0.0539 -0.2938 -0.0605
 6285W        W26565  12.096  12.496  13.883  0.0663 -0.1494 -0.2276
 6286W        W26566   0.117   2.569   4.161  0.0835  0.1441 -0.2369
 6287W        W26567   0.323  11.728   2.579  0.4893 -0.1470  0.0678
 6288W        W26568  14.367   1.042  13.150  0.0978 -0.1063 -0.1111
 6289W        W26569   2.006   3.927  14.686  0.0884  0.0281  0.0109
 6290W        W26570   9.692   1.818  14.454 -0.0928  0.4248  0.0834
 6291W        W26571  11.815   8.919   1.787 -0.0166  0.1837 -0.2235
 6292W        W26572  13.472  13.578   1.367  0.1203 -0.0655  0.1185
 6293W        W26573   0.002  11.570   0.075  0.1416 -0.0936  0.0826
 6294W        W26574   3.949  18.265  14.936 -0.1294  0.1634  0.0671
 6295W        W26575   8.256   5.228   5.547 -0.0328  0.2007  0.2968
 6296W        W26576  10.374   9.124  14.105  0.1303 -0.1817 -0.0948
 6297W        W26577   3.204  15.723   0.368  0.2550 -0.3367 -0.0619
 6298W        W26578  12.684   5.615   4.637 -0.1664 -0.1411  0.0593
 6299W        W26579   5.031  12.260  12.969  0.2330 -0.2034 -0.1984
 6300W        W26580   5.433  15.433  11.360 -0.2796  0.1187 -0.1241
 6301W        W26581  12.731  15.108   2.108 -0.2400 -0.2038  0.1044
 6302W        W26582   3.437  10.824  11.488  0.1395  0.1125  0.3200
 6303W        W26583  14.882  11.751  15.005  0.2290 -0.2358  0.1450
 6304W        W26584   4.849  17.045   1.601 -0.1403  0.0088 -0.3935
 6305W        W26585  11.537   0.437   4.349 -0.0354 -0.2380  0.3732
 6306W        W26586   1.518  12.125   1.416 -0.0109  0.2242  0.4900
 6307W        W26587   6.497   5.095  13.433  0.0077  0.2536  0.3139
 6308W        W26588  17.129   0.903   1.310  0.2360  0.0397 -0.0087
 6309W        W26589   7.367   0.031  14.464 -0.1515  0.1326 -0.0070
 6310W        W26590   8.959   3.210   1.022 -0.1020 -0.0916  0.1054
 6311W        W26591  12.729   9.897   5.373 -0.5650 -0.0024  0.2767
 6312W        W26592  16.680  11.887   3.135  0.2216 -0.0748  0.0903
 6313W        W26593   1.460   4.892   3.261 -0.2344 -0.1672 -0.0208
 6314W        W26594  15.266   5.196  15.144 -0.0370  0.0311 -0.0594
 6315W        W26595   0.569   7.858   5.475 -0.0075  0.2269 -0.2626
 6316W        W26596  13.305  13.610   2.759 -0.3222 -0.2896  0.0411
 6317W        W26597  13.214   7.496   0.583 -0.0944 -0.1411  0.1214
 6318W        W26598  17.023   8.194  12.042  0.0024 -0.1616 -0.1127
 6319W        W26599  14.885   5.671   0.993 -0.1464 -0.0599  0.0125
 6320W        W26600   5.423   9.833   0.348  0.0445  0.2374  0.1792
 6321W        W26601   2.531  14.779   1.032  0.0715  0.0466  0.0567
 6322W        W26602  10.537   2.979   0.984  0.1032 -0.1310 -0.1038
 6323W        W26603  15.285   9.362   4.813  0.0416  0.0335 -0.3115
 6324W        W26604   3.435  16.352   2.987 -0.0460  0.1565  0.1432
 6325W        W26605  11.169   6.653   4.716 -0.4989  0.2355  0.1945
 6326W        W26606   9.467   9.338   0.503 -0.0015  0.4997  0.0531
 6327W        W26607   1.575  16.392  13.611  0.0128 -0.1509 -0.1342
 6328W        W26608  10.048   6.513  13.478  0.2423  0.1051 -0.0880
 6329W        W26609   4.317   9.058   0.888  0.0241  0.1908 -0.4377
 6330W        W26610  16.679  14.901   4.163 -0.1062 -0.2982 -0.5695
 6331W        W26611   2.303  12.648  15.149 -0.0776 -0.0249 -0.1160
 6332W        W26612   9.481   3.222   2.836 -0.1560 -0.2608 -0.1913
 6333W        W26613   0.058   0.887  12.038  0.0333  0.2591  0.5156
 6334W        W26614   1.287   9.623  12.615 -0.1965  0.1393  0.3122
 6335W        W26615   1.694  13.177   2.253 -0.0357 -0.0181 -0.0242
 6336W        W26616   8.405  18.010  11.921  0.1630  0.0867 -0.1428
 6337W        W26617  16.680  14.328   5.373  0.0458  0.1083  0.1453
 6338W        W26618  13.481  15.174  14.317  0.0505 -0.1600  0.1312
 6339W        W26619  11.581  16.181  11.702  0.0424 -0.1498  0.0016
 6340W        W26620   5.048   0.532   1.846 -0.0133 -0.2638  0.1139
 6341W        W26621  11.859   4.230  12.007 -0.3232 -0.3320  0.0009
 6342W        W26622  12.229  12.111   2.260 -0.1888 -0.1118 -0.0466
 6343W        W26623   5.111   6.520   1.921 -0.0777 -0.2129  0.0867
 6344W        W26624  10.747   7.451   2.198 -0.2312 -0.0943  0.3171
 6345W        W26625  14.685  16.612   3.163  0.0035  0.1844  0.0565
 6346W        W26626   1.737  14.355   2.731  0.0501 -0.0031 -0.2612
 6347W        W26627  17.016   9.930  13.718  0.0966 -0.0027 -0.4870
 6348W        W26628  17.214   6.189  14.061  0.1828 -0.3025 -0.0027
 6349W        W26629   5.582   0.346  13.387 -0.1638 -0.1588  0.3117
 6350W        W26630   9.727   4.728   3.314 -0.3111  0.0053  0.0904
 6351W        W26631   2.825  18.109  10.552  0.1395 -0.0457 -0.2290
 6352W        W26632  11.245   8.434   2.659  0.1661 -0.0933  0.1661
 6353W        W26633   3.659   6.715   0.583  0.0515 -0.0770  0.2170
 6354W        W26634   9.451   2.264   2.345  0.0299  0.1719 -0.0361
 6355W        W26635   1.292  16.035   1.677  0.0235  0.3140  0.3736
 6356W        W26636  15.559   9.244   0.200 -0.0683 -0.0264 -0.0089
 6357W        W26637  18.193   7.386   1.366 -0.0533  0.0453 -0.1022
 6358W        W26638  15.921  10.585   0.788 -0.0550 -0.0692  0.0338
 6359W        W26639   2.967   7.772   3.378  0.3467 -0.3296  0.2492
 6360W        W26640  16.982  15.193   1.929  0.0510 -0.0535 -0.0677
 6361W        W26641   5.634  15.219   3.153  0.1220  0.1793 -0.0579
 6362W        W26642  18.333   7.442  15.898 -0.0412  0.1417  0.0591
 6363W        W26643   2.199   9.597  15.369  0.0418  0.3379 -0.3097
 6364W        W26644   6.751  18.052  13.235  0.0825  0.2945  0.0572
 6365W        W26645   5.929  13.226  14.767 -0.0198 -0.3205 -0.0676
 6366W        W26646  13.675   7.361   2.387  0.1311  0.1499  0.0684
 6367W        W26647   7.341   4.635   4.523  0.2783 -0.1064  0.2492
 6368W        W26648   7.284  12.331  15.052  0.0280 -0.2055 -0.0245
 6369W        W26649   3.482  18.103   1.129 -0.4149  0.0940  0.0998
 6370W        W26650  16.386  12.060   1.137  0.0613 -0.5559  0.0486
 6371W        W26651  16.502   4.391   4.157 -0.0318 -0.0946  0.1035
 6372W        W26652  11.783  11.628  13.818  0.0760 -0.2265 -0.2979
 6373W        W26653   4.381  13.636   4.492  0.0155  0.2678 -0.1028
 6374W        W26654   1.178  18.123   5.324  0.0145  0.3288  0.0594
 6375W        W26655   9.832   9.110  12.082  0.2727 -0.2643 -0.3057
 6376W        W26656   0.773  11.781   4.728  0.0857 -0.3231 -0.1242
 6377W        W26657   6.373   5.931   4.419  0.1927  0.1326 -0.0584
 6378W        W26658   6.676  12.008   4.797  0.0797  0.0047  0.1346
 6379W        W26659  11.496  15.993   0.628  0.0120 -0.1140 -0.0117
 6380W        W26660   6.320  14.714  14.177  0.1366 -0.0274  0.0142
 6381W        W26661   9.651  14.668  11.494  0.0413  0.0965  0.2820
 6382W        W26662  13.195   1.784   2.366 -0.0784  0.0747  0.0072
 6383W        W26663  14.303   8.871   6.204 -0.0958  0.0233 -0.1430
 6384W        W26664  10.485   3.121   0.105  0.0843 -0.0719  0.1916
 6385W        W26665  12.326  14.876   0.717 -0.1948 -0.1415  0.2953
 6386W        W26666  11.090   2.162   3.305 -0.2669 -0.0062 -0.2305
 6387W        W26667   4.726   4.406   3.067 -0.0316 -0.0744 -0.1312
 6388W        W26668   8.501  11.497   1.705  0.1460 -0.0080  0.1953
 6389W        W26669   9.050   8.979  11.362  0.0995  0.0622 -0.1177
 6390W        W26670  13.296   9.361  14.968 -0.0362  0.1107 -0.2544
 6391W        W26671   1.581   5.717  14.870  0.1200 -0.0303 -0.0071
 6392W        W26672   1.142   2.802  13.967  0.0635  0.0394 -0.0296
 6393W        W26673   5.514   7.706   1.016 -0.2352  0.4184 -0.1180
 6394W        W26674   0.202   2.725  15.534 -0.0781 -0.0364  0.0032
 6395W        W26675   8.812   1.535   0.322  0.0600  0.0782 -0.0195
 6396W        W26676   8.016   8.126   1.256 -0.0415  0.0195  0.0666
 6397W        W26677   1.151  15.928   4.249 -0.1850 -0.0360 -0.0325
 6398W        W26678   6.296   4.394  15.701 -0.0280 -0.4177  0.0229
 6399W        W26679  16.909   4.237  15.695  0.1113  0.1135  0.1402
 6400W        W26680   4.558   1.228   2.521  0.0230 -0.0396  0.2454
 6401W        W26681  10.019  15.850   3.308  0.1214  0.0705  0.1536
 6402W        W26682  10.673  13.589   4.091 -0.0314  0.1130  0.3240
 6403W        W26683   4.901   5.263   2.401 -0.0826  0.1085  0.1953
 6404W        W26684  17.636   1.635  13.076 -0.1539  0.2524 -0.1472
 6405W        W26685   3.025   8.463  12.402 -0.2409 -0.1302  0.1212
 6406W        W26686  16.977  12.655   3.946 -0.3019  0.1459  0.0802
 6407W        W26687  11.580  10.939  15.007 -0.1365  0.2716  0.0352
 6408W        W26688  14.153  17.639   2.937  0.2645 -0.1704  0.6393
 6409W        W26689  15.767   4.026  12.623  0.0314  0.1408 -0.2107
 6410W        W26690  14.383   7.110   2.488 -0.4977  0.1042  0.0445
 6411W        W26691   4.147   1.144   2.181  0.0544 -0.2508  0.1137
 6412W        W26692   7.646   4.987  13.469  0.1192 -0.1865 -0.1140
 6413W        W26693  11.046  15.094   4.094  0.0544  0.0200 -0.0314
 6414W        W26694   0.265   7.310   3.040  0.0693 -0.0446  0.1126
 6415W        W26695  10.312  12.288   3.112 -0.0975  0.0826 -0.0048
 6416W        W26696   0.846  14.563  14.305 -0.3863 -0.0782 -0.0419
 6417W        W26697   6.157   7.857  13.854 -0.3809  0.0671 -0.1660
 6418W        W26698  10.630  12.768   1.352  0.2411  0.4035  0.1487
 6419W        W26699   5.595   0.660   3.079  0.1339  0.1523 -0.0891
 6420W        W26700   8.094  15.527  15.238 -0.0573 -0.4181  0.0092
 6421W        W26701  13.623   0.127   1.677 -0.0068 -0.1893 -0.1706
 6422W        W26702   0.580  14.647   2.596 -0.2177 -0.1837 -0.2729
 6423W        W26703   8.176  16.585   3.349  0.0050 -0.0133  0.1997
 6424W        W26704  13.191  15.161   0.096  0.0508 -0.1488  0.0916
 6425W        W26705   1.733   1.699   2.094  0.1192  0.0635  0.1935
 6426W        W26706  17.095  17.118  11.355 -0.0869  0.2493  0.1469
 6427W        W26707   1.079  14.640   2.918  0.0013 -0.2130  0.2690
 6428W        W26708   7.606   3.070   4.114  0.1250 -0.4480 -0.0868
 6429W        W26709   4.242  12.885  15.831  0.2150  0.0183 -0.1107
 6430W        W26710  16.656   6.193  13.342 -0.2667  0.1032 -0.1425
 6431W        W26711  10.764   8.366   0.186  0.1246 -0.0022 -0.0407
 6432W        W26712   2.062   7.935   2.093 -0.1218 -0.0172  0.1674
 6433W        W26713   9.484  10.489   4.313  0.0275 -0.0028  0.0246
 6434W        W26714   3.036   7.160   1.533 -0.0183  0.0644  0.0452
 6435W        W26715   0.055   6.799  11.748  0.2038  0.1774 -0.1051
 6436W        W26716   9.284  14.597  12.641 -0.2862  0.2394  0.2430
 6437W        W26717  14.554  14.533   2.181 -0.1932 -0.0557  0.0052
 6438W        W26718   3.196   2.867   1.349  0.1135 -0.0776 -0.2454
 6439W        W26719   0.630   5.040  12.311 -0.2067 -0.1731  0.0442
 6440W        W26720   1.076   5.312   3.481 -0.2892 -0.1485  0.3929
 6441W        W26721  12.014  12.442  11.488 -0.1161 -0.4441 -0.0133
 6442W        W26722   4.095  17.083   0.116  0.1203 -0.1959  0.1442
 6443W        W26723  13.598  15.940   2.739  0.0871 -0.0877 -0.2206
 6444W        W26724  12.726  13.542   1.530  0.0508  0.0904 -0.0370
 6445W        W26725   5.534   4.776  11.630 -0.0569  0.0079  0.2436
 6446W        W26726   1.997   7.204  11.975  0.1140  0.3627  0.0786
 6447W        W26727   9.618   8.461   1.696  0.1404 -0.0169  0.0356
 6448W        W26728   0.922  17.974  15.172  0.0411 -0.1507  0.0664
 6449W        W26729  17.585   5.395   3.032  0.1410 -0.1187 -0.1537
 6450W        W26730   4.048  12.264  15.198  0.1701 -0.2458 -0.1833
 6451W        W26731   9.084   1.227  15.854  0.0038  0.1747 -0.1045
 6452W        W26732  17.053  16.213   3.638 -0.0166 -0.2537 -0.2108
 6453W        W26733   2.958  13.917  11.389  0.3310  0.0795  0.0764
 6454W        W26734   7.754  10.942   0.563  0.0578 -0.1666 -0.0015
 6455W        W26735   3.161   7.126  15.452  0.1670  0.1236 -0.1570
 6456W        W26736   2.805  13.747   0.655 -0.1132  0.1819 -0.0796
 6457W        W26737   0.781   7.671   0.805 -0.2928  0.1617 -0.0497
 6458W        W26738   5.847  15.672  12.629  0.4645 -0.0609  0.0935
 6459W        W26739  17.832   5.320   3.467 -0.0564  0.0911  0.0945
 6460W        W26740  11.910  14.067  15.656  0.1617 -0.2634  0.0389
 6461W        W26741   1.271  11.196  13.972  0.1352  0.1668 -0.1728
 6462W        W26742  13.096  14.353  12.159 -0.1195 -0.1644  0.1425
 6463W        W26743   9.007  14.546   0.017 -0.2409  0.1029  0.1412
 6464W        W26744   2.740  11.836   1.277  0.2730  0.0462  0.1815
 6465W        W26745  18.019  18.310   1.815  0.0090  0.4189 -0.2092
 6466W        W26746  16.303   6.184  14.298  0.1587  0.1502  0.0741
 6467W        W26747   5.578  11.653   0.762  0.1614 -0.2006 -0.0975
 6468W        W26748  10.363  15.145  15.775  0.2348 -0.0978 -0.1592
 6469W        W26749  15.251  11.076  13.381 -0.2730  0.1504  0.0337
 6470W        W26750  10.794   5.797   1.575 -0.1504  0.0559  0.1451
 6471W        W26751   8.897   5.605  14.353  0.0715 -0.2039  0.2314
 6472W        W26752   1.945   4.668   0.469  0.2187  0.2688  0.0379
 6473W        W26753  18.216   4.401  12.505  0.0098  0.2456 -0.1514
 6474W        W26754   0.302   3.300  11.439 -0.2330 -0.2494  0.0319
 6475W        W26755   0.275   0.340  12.054  0.0636  0.0356 -0.2636
 6476W        W26756   8.366   5.288   1.437 -0.0423  0.1664  0.1513
 6477W        W26757  17.980  10.369   2.253  0.2882  0.0149  0.0778
 6478W        W26758   5.828  15.799  13.232 -0.1537 -0.1118 -0.1520
 6479W        W26759  13.859  11.361   0.441 -0.0632 -0.2838 -0.1478
 6480W        W26760  15.018   0.079  13.356 -0.0175  0.1714 -0.1672
 6481W        W26761   0.432  14.866  14.186 -0.0882  0.4021 -0.4987
 6482W        W26762  16.222  12.723  15.484  0.0799 -0.1640 -0.2160
 6483W        W26763   8.564   6.903  15.421  0.1461 -0.0236  0.1618
 6484W        W26764   1.365  17.290  15.891 -0.0705 -0.1484  0.0653
 6485W        W26765  12.718   9.253   4.176 -0.1256 -0.0852 -0.0220
 6486W        W26766  12.081   2.348   0.485  0.0603  0.1137  0.1014
 6487W        W26767   6.296  12.858   2.293  0.0505 -0.1057 -0.2815
 6488W        W26768  11.457  12.632   0.736 -0.1294  0.1828  0.1372
 6489W        W26769  12.517  12.851   3.796 -0.0588 -0.0673 -0.0454
 6490W        W26770  17.270   2.737   0.228  0.0765 -0.0073 -0.0924
 6491W        W26771   2.966  17.672   0.508  0.0841 -0.0999  0.1362
 6492W        W26772  11.306  14.180   4.234  0.0698 -0.0347 -0.0193
 6493W        W26773   2.498  10.115   0.952  0.2341  0.0980  0.0082
 6494W        W26774   7.373   7.158   3.556 -0.1380  0.0082 -0.1533
 6495W        W26775  17.311   7.698  12.264  0.0327 -0.2730 -0.2030
 6496W        W26776   2.674   6.762   3.725 -0.2853  0.0491  0.3333
 6497W        W26777   9.361  18.006   0.917 -0.0746  0.0340 -0.1403
 6498W        W26778  18.169  14.575   4.281 -0.3668  0.1672 -0.0073
 6499W        W26779  18.073   3.758  15.655 -0.1214 -0.1310  0.3132
 6500W        W26780   8.586   7.206  12.779 -0.0358 -0.0210  0.2681
 6501W        W26781   8.395   3.238  12.208 -0.1907  0.2188 -0.0891
 6502W        W26782   3.052   3.996   0.556 -0.2987  0.2626  0.1453
 6503W        W26783  11.558   0.881  13.572 -0.1121 -0.1616 -0.1738
 6504W        W26784   9.662  16.490   2.868 -0.3022 -0.0334 -0.2635
 6505W        W26785   6.255   4.157  10.824 -0.3625  0.0633 -0.0638
 6506W        W26786  15.898   7.631   5.006  0.1191  0.3309  0.1664
 6507W        W26787   3.811   1.432  14.634  0.0189  0.0351  0.1911
 6508W        W26788  16.239   3.977  12.927  0.0137  0.1911  0.0307
 6509W        W26789  14.422   9.852   1.484 -0.2424 -0.1857  0.0646
 6510W        W26790  12.438   1.545   3.040  0.1072  0.2789 -0.0775
 6511W        W26791  17.783  16.107  11.720  0.1327 -0.1880 -0.1320
 6512W        W26792   3.623  11.211   0.482  0.0096 -0.0729 -0.1304
 6513W        W26793  17.031   6.067   3.519  0.0773  0.0066 -0.0591
 6514W        W26794  11.127  14.737  12.647  0.0105 -0.0902 -0.1804
 6515W        W26795   6.983  13.495   3.344 -0.1834  0.1209 -0.1483
 6516W        W26796  11.856  14.598  12.287  0.0639  0.3051  0.0329
 6517W        W26797  11.478   4.333   2.039  0.2200 -0.2465 -0.4040
 6518W        W26798   3.583   1.720  11.543  0.1301  0.0661 -0.0235
 6519W        W26799   6.704  14.073   1.160  0.0459 -0.0986 -0.1791
 6520W        W26800  15.687   7.718   0.008 -0.0279 -0.0505 -0.1425
 6521W        W26801   5.752   2.797  15.341  0.0557 -0.2049 -0.0022
 6522W        W26802   8.755  12.525   3.228  0.1003 -0.1624 -0.2928
 6523W        W26803   0.733  14.882  12.948 -0.0666  0.0151 -0.3432
 6524W        W26804   3.519   9.185  12.206  0.0266 -0.1620  0.5677
 6525W        W26805  11.127  13.250  11.571 -0.0173 -0.0024 -0.0473
 6526W        W26806   3.298  13.509   3.446  0.0767  0.1408  0.2091
 6527W        W26807  15.607   2.574  15.590 -0.3044  0.1255  0.1917
 6528W        W26808   4.565  14.513   2.398  0.1857 -0.1473  0.3207
 6529W        W26809  15.407  16.703  13.694  0.2136  0.0145 -0.2274
 6530W        W26810  10.637   9.713   1.962  0.2140 -0.2311  0.2773
 6531W        W26811   9.596  17.311  13.931 -0.1005  0.1104 -0.1236
 6532W        W26812   2.507  13.544   0.283  0.2498 -0.0623  0.0177
 6533W        W26813  13.882  12.669  13.836 -0.3103 -0.1237  0.3299
 6534W        W26814   2.686  16.448   0.588  0.0625  0.2737  0.2441
 6535W        W26815   2.908   4.843   3.668  0.3457 -0.1714  0.1705
 6536W        W26816  16.083  17.289   5.455  0.1043  0.0266 -0.0281
 6537W        W26817  11.251   9.286   0.612  0.2541 -0.1860 -0.0216
 6538W        W26818   4.953   2.888   1.858 -0.0396 -0.0948  0.2726
 6539W        W26819   5.367  17.166   0.623 -0.1555  0.1570 -0.0623
 6540W        W26820  10.815   2.218   5.544  0.0785 -0.1840 -0.0283
 6541W        W26821  11.010  15.553   1.332  0.0899 -0.1010  0.0074
 6542W        W26822  18.192   3.680   1.093  0.0077  0.2517 -0.2808
 6543W        W26823  15.980  15.161  13.279  0.2887  0.1914 -0.0518
 6544W        W26824   3.783   3.580   0.487  0.0606  0.1328 -0.1685
 6545W        W26825   4.232   5.678  12.851  0.1027 -0.0691 -0.0813
 6546W        W26826   2.621  13.340   3.940  0.0174 -0.1290  0.0920
 6547W        W26827   6.240   3.579  15.202 -0.0992 -0.0228  0.2079
 6548W        W26828   0.153  12.291  15.159 -0.2187 -0.4188 -0.2290
 6549W        W26829  10.792   5.460  11.261 -0.0955 -0.1879 -0.5507
 6550W        W26830   4.520  16.759   2.312 -0.1422 -0.0943  0.1596
 6551W        W26831   3.711   0.005   3.162 -0.0778  0.0907 -0.1291
 6552W        W26832   6.213   2.573   1.379 -0.2837 -0.0894  0.1184
 6553W        W26833   3.907   6.884   2.106 -0.0678 -0.1587  0.0248
 6554W        W26834   1.702  14.782  14.850  0.0066  0.3877 -0.0960
 6555W        W26835   6.935   7.542   0.879  0.1003  0.0486  0.1553
 6556W        W26836   2.753  14.079  13.239 -0.0986  0.0795 -0.2074
 6557W        W26837   0.518   0.305   2.740 -0.0138 -0.2147 -0.0158
 6558W        W26838   2.793   7.741  11.990 -0.0624 -0.0242 -0.1699
 6559W        W26839  16.236  11.837  15.797  0.2248 -0.1259 -0.2620
 6560W        W26840  13.923   8.488  15.778  0.1492  0.0550  0.0596
 6561W        W26841  10.587   3.416  12.555  0.1210 -0.0183  0.3350
 6562W        W26842  13.772  11.626   1.468  0.1947  0.1838 -0.0871
 6563W        W26843   5.517  18.297   0.424 -0.0643 -0.0127  0.0781
 6564W        W26844   8.677   8.894   3.064  0.2513  0.0170  0.2874
 6565W        W26845   9.173   4.106   1.037  0.1287 -0.2299  0.2203
 6566W        W26846  12.767   1.401  12.427  0.3232 -0.3360  0.0694
 6567W        W26847   4.041   7.049  14.371 -0.0295  0.1958 -0.1862
 6568W        W26848   2.511  14.360   1.368  0.3819  0.1166  0.1105
 6569W        W26849   6.448  18.248   0.996 -0.1741 -0.3371  0.2453
 6570W        W26850  14.168   9.284  12.023 -0.0198  0.1346 -0.2223
 6571W        W26851  11.396   9.202   2.313  0.1742 -0.0896 -0.0873
 6572W        W26852   9.277   0.869  13.044 -0.0364  0.2879 -0.2587
 6573W        W26853  11.621  17.178   0.621 -0.0091 -0.1514 -0.1112
 6574W        W26854   8.927  13.343  13.187 -0.1467 -0.1492 -0.1501
 6575W        W26855   9.510  17.554  12.027  0.1784  0.1332  0.0016
 6576W        W26856   6.479   0.771  11.569  0.1299 -0.0909  0.0640
 6577W        W26857  11.780  15.067  13.076  0.4625 -0.0367  0.0302
 6578W        W26858   3.098   9.385   1.999  0.0058 -0.0648 -0.1057
 6579W        W26859  12.900   2.642   2.486  0.0704 -0.1525  0.0233
 6580W        W26860   9.384  10.974  14.669 -0.2029 -0.1604  0.3156
 6581W        W26861   0.505   5.806  15.674  0.1106  0.3434  0.3229
 6582W        W26862   9.760   5.104   2.929  0.0763  0.0308  0.0539
 6583W        W26863  13.571   9.743   1.627  0.0370 -0.0121  0.2266
 6584W        W26864   7.403   4.576  11.980 -0.0475 -0.2822  0.1854
 6585W        W26865   2.603   5.408   3.350 -0.2494  0.1125 -0.1266
 6586W        W26866   0.889  16.056  13.069  0.1142 -0.2207  0.0114
 6587W        W26867  11.652  10.481   0.017  0.2601  0.0099 -0.0454
 6588W        W26868  16.633   3.022   3.931 -0.1691 -0.0141 -0.1755
 6589W        W26869  17.181   1.326  13.318 -0.1658 -0.1375  0.1152
 6590W        W26870  16.769   1.485   0.567  0.3478  0.0777  0.1334
 6591W        W26871  13.974   1.659   1.305  0.2049 -0.1402 -0.1538
 6592W        W26872   9.715   4.220  11.673 -0.2834  0.0036 -0.1721
 6593W        W26873  13.330   1.353   2.082 -0.0158 -0.1055  0.0183
 6594W        W26874   6.619   3.589   1.081  0.3187  0.4119  0.1290
 6595W        W26875  12.562   9.993  12.459 -0.2325 -0.0501  0.0673
 6596W        W26876   3.470   2.244  13.162 -0.1566  0.0470  0.0667
 6597W        W26877  10.678   0.326   1.307 -0.1135  0.2829 -0.0123
 6598W        W26878  17.120  14.153  13.390 -0.0561 -0.0868 -0.0880
 6599W        W26879   4.057   5.194   2.827 -0.1902  0.0846  0.1457
 6600W        W26880  16.411   3.692  15.311  0.2703 -0.4263 -0.2764
 6601W        W26881   2.458  11.287  15.748  0.1279  0.0447  0.0176
 6602W        W26882  16.283   1.342  13.236 -0.0518  0.2500 -0.0037
 6603W        W26883  16.293  10.341  13.228  0.0182  0.0584  0.0996
 6604W        W26884  17.091  17.465   1.589 -0.1254  0.0521  0.0067
 6605W        W26885  10.123   8.300  14.218 -0.0414 -0.0638  0.1774
 6606W        W26886  13.053  12.726  12.112  0.0345  0.0003  0.1602
 6607W        W26887   4.828   2.064  11.899 -0.1332 -0.1488 -0.1425
 6608W        W26888  10.090  12.936   2.075 -0.1105  0.1893 -0.0595
 6609W        W26889  10.820   8.812  12.164 -0.0187  0.1441 -0.3117
 6610W        W26890   9.239  10.564  14.356 -0.1288  0.1616  0.2040
 6611W        W26891   6.607  16.073   1.479 -0.1702  0.1416  0.1111
 6612W        W26892   5.464   7.299  13.442  0.3346  0.1579  0.1082
 6613W        W26893   4.453   7.438   1.276  0.1262 -0.0021  0.1444
 6614W        W26894  10.777   7.471  14.664 -0.4311  0.2067 -0.2001
 6615W        W26895   0.726   2.159  13.196  0.1585  0.0492  0.0587
 6616W        W26896   6.443  12.502  15.853  0.0332  0.0782  0.0025
 6617W        W26897   6.634   7.157  14.931  0.1962  0.3407  0.4677
 6618W        W26898  17.249  14.405  12.041 -0.0379  0.1393  0.0461
 6619W        W26899  15.590   6.479  11.991 -0.0159  0.1182 -0.4266
 6620W        W26900   9.234   1.303  14.934 -0.1206 -0.0217 -0.0134
 6621W        W26901   8.307   3.310  13.168 -0.0369  0.1955  0.0649
 6622W        W26902   9.431  10.437   1.062  0.2037 -0.1988 -0.1282
 6623W        W26903  12.195   0.601  12.483  0.3679 -0.3972 -0.0443
 6624W        W26904  12.552  11.175   2.735  0.1243 -0.1019 -0.0809
 6625W        W26905  14.783   0.838  14.057  0.0391 -0.0188 -0.2145
 6626W        W26906   7.716   6.011  14.945 -0.0139  0.2909  0.0427
 6627W        W26907   9.300  13.938   3.146  0.4540 -0.1035 -0.1408
 6628W        W26908   1.744   5.403   3.016 -0.1068  0.1095 -0.1682
 6629W        W26909   7.827   7.857   0.095  0.0872  0.1243  0.0058
 6630W        W26910  17.630  16.233   1.077 -0.0768  0.2120 -0.1981
 6631W        W26911   3.277   0.034  10.558 -0.3428  0.0285 -0.0664
 6632W        W26912   3.418   2.562  13.573 -0.0331  0.2229  0.3389
 6633W        W26913   1.697  12.430   4.320  0.1585 -0.0559  0.0143
 6634W        W26914   4.143  10.915   2.916 -0.0658 -0.1582 -0.1810
 6635W        W26915   4.575  14.448  14.468  0.0845  0.4815 -0.0436
 6636W        W26916  18.189  16.210   1.156 -0.2687  0.0330  0.0177
 6637W        W26917   6.907   5.278  10.453 -0.1549  0.2092  0.0361
 6638W        W26918   2.509   9.742   2.902  0.0311  0.1900  0.0900
 6639W        W26919   3.604  16.119  13.117 -0.0880  0.6667  0.0063
 6640W        W26920   7.717   3.414   9.928  0.1628  0.1054  0.2825
 6641W        W26921  13.267   9.243   0.578  0.0818 -0.0531 -0.0741
 6642W        W26922   2.837   4.906  12.572 -0.0292  0.0405  0.2338
 6643W        W26923   2.532   6.802   0.298 -0.4215  0.0686 -0.0066
 6644W        W26924  14.232   9.693  15.584 -0.2032  0.2267  0.0705
 6645W        W26925   7.435   1.709  13.359  0.1063 -0.1885  0.3841
 6646W        W26926  12.733  11.171  14.682 -0.1913 -0.0312 -0.2158
 6647W        W26927   5.838   3.439   4.366  0.1839 -0.1531  0.1862
 6648W        W26928  16.777   7.390   4.514 -0.0393 -0.1170 -0.0540
 6649W        W26929   3.968  15.992   4.154 -0.0778  0.0181 -0.3200
 6650W        W26930  14.706  16.473   1.304  0.0786  0.1365  0.1215
 6651W        W26931   8.861   0.675   2.636  0.0025  0.0640 -0.0815
 6652W        W26932   6.485  17.913  14.220 -0.0464 -0.0154  0.1090
 6653W        W26933  17.723   4.329  15.216 -0.1561  0.1036 -0.1755
 6654W        W26934  15.237   2.601   1.992 -0.0442 -0.1627 -0.0765
 6655W        W26935   7.684   3.204  13.491 -0.3018  0.2497  0.2864
 6656W        W26936  14.299  12.971  12.369 -0.1604  0.0098  0.0230
 6657W        W26937  16.908  12.817   3.233  0.0786  0.1994 -0.1289
 6658W        W26938   7.723   7.564  12.501  0.1352 -0.0294 -0.0721
 6659W        W26939   1.700   3.494  14.771 -0.2001  0.3510  0.0314
 6660W        W26940   5.061   2.648   3.630 -0.2781  0.1296  0.3670
 6661W        W26941  14.087  10.128   2.443  0.0399  0.1003 -0.2664
 6662W        W26942  13.082   5.079   0.085 -0.2401  0.1474 -0.0015
 6663W        W26943  15.919   9.093  13.321 -0.0022  0.2876 -0.1173
 6664W        W26944  12.062   9.236   2.047 -0.1833 -0.2459  0.2668
 6665W        W26945  14.650   0.372  13.522 -0.0875 -0.0178 -0.1071
 6666W        W26946   2.308  11.593   0.727  0.3007 -0.4047  0.0307
 6667W        W26947   6.519   7.213   2.688  0.1275  0.0995  0.2577
 6668W        W26948  13.131   4.764  11.492  0.2422  0.1832 -0.0012
 6669W        W26949  16.050   1.552   2.445  0.0465  0.2182  0.3461
 6670W        W26950  11.380  15.477  15.553  0.1518 -0.3815 -0.0290
 6671W        W26951   5.676  17.143  12.029  0.3542 -0.1797  0.0770
 6672W        W26952  13.637  16.375  12.622 -0.3095 -0.2350 -0.0435
 6673W        W26953   0.269  10.178  13.926  0.0910  0.4214 -0.1584
 6674W        W26954   8.826  17.842  11.222 -0.0579 -0.3382  0.2788
 6675W        W26955   3.435  11.603   0.706  0.2366 -0.1745 -0.2732
 6676W        W26956  14.970   9.601  14.331  0.0739 -0.0992  0.1377
 6677W        W26957   7.545   2.160   1.340  0.3290 -0.0044  0.0716
 6678W        W26958   5.660   7.267   0.871  0.0329 -0.2697  0.3336
 6679W        W26959   0.503   2.180   3.813  0.2587 -0.2969 -0.2866
 6680W        W26960   5.482   1.773  13.121  0.2191  0.0445  0.0642
 6681W        W26961  11.741  17.508  11.670 -0.0349 -0.1472  0.0781
 6682W        W26962   5.945  15.043  14.264 -0.0689  0.0854 -0.1420
 6683W        W26963  14.205  16.459   1.726  0.0758  0.1607 -0.0786
 6684W        W26964   3.025   2.202  12.587 -0.1853  0.0880  0.1568
 6685W        W26965  16.067   9.941   4.629  0.1027  0.0968 -0.0181
 6686W        W26966   6.744   4.800  13.037  0.0492 -0.0811  0.0098
 6687W        W26967   7.535  10.272   1.224  0.2147  0.2378  0.0961
 6688W        W26968   9.752   3.371   3.401 -0.0460 -0.1132  0.1538
 6689W        W26969   7.074   1.322  13.463  0.4269 -0.0264  0.0193
 6690W        W26970  16.580   1.750   2.382  0.1272  0.0688  0.1776
 6691W        W26971   1.286  13.455   2.172 -0.1700  0.0853  0.0081
 6692W        W26972  10.553   3.087  11.496  0.2848 -0.0221  0.0654
 6693W        W26973  12.587  13.478   0.049 -0.1288  0.0801 -0.0769
 6694W        W26974   4.004   3.657  14.595  0.2569 -0.0239  0.0303
 6695W        W26975   4.903   5.488   5.061 -0.0442 -0.1462  0.2053
 6696W        W26976  10.832   2.465   1.629 -0.0785  0.0450 -0.0085
 6697W        W26977   3.399  15.849  12.768 -0.1784  0.3599  0.0430
 6698W        W26978  12.965   6.777  15.797  0.2786 -0.2252 -0.2319
 6699W        W26979  11.228  11.920   1.943  0.0246  0.0345  0.1917
 6700W        W26980  12.289   1.212   0.126 -0.0014  0.2506 -0.0610
 6701W        W26981  15.631   5.288   0.856  0.1820  0.0718 -0.4526
 6702W        W26982  15.827   3.658  11.478  0.3349 -0.0929  0.0276
 6703W        W26983   6.251   4.922  14.214 -0.0761  0.0208  0.0268
 6704W        W26984   3.799   7.473   3.667 -0.0389 -0.2437  0.0194
 6705W        W26985  11.871   3.997   2.332 -0.0964 -0.0196 -0.0897
 6706W        W26986   9.956   5.472  13.678 -0.0338  0.0918 -0.3149
 6707W        W26987  10.921  11.928  15.765  0.3029  0.3694 -0.0748
 6708W        W26988   9.834   3.877   0.689  0.2690  0.0745  0.0718
 6709W        W26989  13.280   5.030   3.409 -0.1710  0.1125 -0.1867
 6710W        W26990   7.193   8.205   2.271  0.0222 -0.0518  0.0082
 6711W        W26991   0.689  13.778   2.025  0.1696  0.1478 -0.0786
 6712W        W26992   7.383  15.009   0.935  0.0572  0.0354 -0.1621
 6713W        W26993   6.080  12.481  14.340 -0.0808 -0.0262 -0.1430
 6714W        W26994   6.457  18.290   0.516 -0.3272 -0.0870 -0.0807
 6715W        W26995   7.089  11.360  12.637  0.1111 -0.0262 -0.0643
 6716W        W26996   8.341   1.285   1.617  0.0772  0.0954 -0.2695
 6717W        W26997   4.472  15.745  11.141  0.4748 -0.2068  0.4305
 6718W        W26998  11.225   0.786   4.135  0.1542 -0.1585 -0.0835
 6719W        W26999  13.497  15.990   0.079 -0.1389  0.1786  0.2020
 6720W        W27000   9.084  14.914   4.251 -0.1759  0.2247 -0.0878
 6721W        W27001  17.903  10.469   2.768  0.4009  0.4817  0.1493
 6722W        W27002  10.359  17.491   1.165 -0.0160 -0.1524  0.1464
 6723W        W27003   4.079   7.624   1.844  0.0800 -0.3818 -0.1552
 6724W        W27004   1.839  12.252   3.870  0.1661 -0.1278 -0.0543
 6725W        W27005  13.148  15.286  13.470  0.2555  0.0336 -0.0084
 6726W        W27006  17.945   3.713  13.766 -0.0637 -0.0604  0.1583
 6727W        W27007  11.009   0.162   1.618  0.1905 -0.0738  0.2474
 6728W        W27008   4.473  17.924   1.250  0.0279  0.0511 -0.0281
 6729W        W27009   0.599   6.142   2.821 -0.0631  0.0174 -0.0125
 6730W        W27010  10.105   9.985   0.069  0.0490 -0.0400  0.1843
 6731W        W27011   9.020   6.949  15.666 -0.0168  0.0076 -0.0130
 6732W        W27012  12.838  15.659  14.242  0.1022 -0.1658 -0.0002
 6733W        W27013   7.418  14.157  11.434  0.2750 -0.1074  0.3015
 6734W        W27014   2.206  14.605  11.611 -0.1519  0.3568 -0.0343
 6735W        W27015   0.876   9.070   1.537  0.2430 -0.0677  0.1515
 6736W        W27016  11.020   5.584  12.471  0.1381  0.1622 -0.1608
 6737W        W27017  17.968   1.348   1.651  0.0406  0.1645  0.0046
 6738W        W27018   8.002   2.959   2.301  0.2709  0.2820  0.0609
 6739W        W27019  11.453   0.406   1.832 -0.2592 -0.0214 -0.0293
 6740W        W27020   3.365   1.225   1.658  0.0622 -0.1867  0.1715
 6741W        W27021  13.541   0.775  13.500 -0.3096 -0.2351  0.2362
 6742W        W27022   3.299  11.441   2.568  0.1228 -0.1558  0.2142
 6743W        W27023  15.073  18.256  15.488  0.2081  0.0845 -0.0400
 6744W        W27024  14.383  10.715   4.442  0.0774  0.0663 -0.0465
 6745W        W27025   4.819   1.450  13.765  0.2558 -0.1133 -0.1016
 6746W        W27026  17.230  13.476  15.935 -0.1794  0.3458  0.1163
 6747W        W27027  12.590  13.946   4.139  0.0130 -0.0919 -0.1664
 6748W        W27028   1.491  10.874  15.739 -0.1868  0.1329 -0.0977
 6749W        W27029  13.992  14.447  13.488 -0.1029 -0.1622  0.1393
 6750W        W27030  10.107   9.171   2.468  0.2057 -0.0188 -0.1923
 6751W        W27031  10.721   7.951   1.958 -0.0008 -0.2770 -0.2898
 6752W        W27032   5.295   0.369  15.161 -0.0498  0.4298 -0.0021
 6753W        W27033   9.426  17.963  14.897  0.0981  0.0139  0.0462
 6754W        W27034   0.441   7.935  14.034  0.3104 -0.0113 -0.2201
 6755W        W27035  12.993  12.856   3.091 -0.0068 -0.0915 -0.0342
 6756W        W27036  15.634  15.532  15.718  0.2450  0.0060  0.2498
 6757W        W27037  16.415  10.412   1.578 -0.0064 -0.1437 -0.2138
 6758W        W27038   9.034   2.740  13.256  0.0363  0.1396  0.2268
 6759W        W27039  12.829  17.983  13.078 -0.0816 -0.0197  0.0173
 6760W        W27040  17.029  17.055   3.796  0.2318  0.1356  0.2193
 6761W        W27041   8.900  13.292   1.535  0.0322  0.1228 -0.0221
 6762W        W27042  11.421  11.285  11.093 -0.4038 -0.0327  0.0639
 6763W        W27043  14.728  13.501   3.443 -0.1565 -0.1512 -0.1243
 6764W        W27044   5.014  12.574   0.365  0.1094  0.1392 -0.0158
 6765W        W27045  17.291   1.202   2.382  0.0770  0.1490 -0.0570
 6766W        W27046  18.224  12.643   3.582 -0.2194 -0.1423 -0.1290
 6767W        W27047   5.034   9.540  13.794 -0.1176 -0.0982 -0.1273
 6768W        W27048  12.968   0.593  12.141  0.0243 -0.0326  0.1456
 6769W        W27049   5.918   7.095  15.530 -0.3358 -0.0874  0.1811
 6770W        W27050  16.962  17.424   1.119  0.0717 -0.3717 -0.0521
 6771W        W27051   3.925   5.932  14.169 -0.1631  0.2049  0.1235
 6772W        W27052   1.311   7.578  15.508 -0.3824  0.1621 -0.1351
 6773W        W27053  15.332  16.876  12.344 -0.0737  0.0935 -0.0826
 6774W        W27054   6.871   9.729  14.020 -0.2976 -0.2973 -0.1385
 6775W        W27055   3.010  13.582   2.585  0.1182  0.2621  0.2740
 6776W        W27056   2.323   5.631   4.255  0.1406 -0.2254 -0.1348
 6777W        W27057   4.731  18.058   0.296 -0.0844  0.4362  0.3411
 6778W        W27058   3.752   8.969  11.204  0.0949  0.1318  0.0167
 6779W        W27059   5.702   9.673   3.920  0.1097  0.1844  0.3640
 6780W        W27060  15.909  15.230   4.021  0.3577  0.0089 -0.0291
 6781W        W27061  18.162  17.471   2.350 -0.0273  0.0430 -0.0314
 6782W        W27062   6.193   3.417   3.914  0.2285  0.0231  0.3129
 6783W        W27063  11.744  10.024   1.763  0.0318  0.2694 -0.1419
 6784W        W27064   3.504   8.257   0.065 -0.2972 -0.1090 -0.1741
 6785W        W27065   8.856   9.887   2.689 -0.3358 -0.4197 -0.0430
 6786W        W27066   6.240   3.084   0.004  0.3114  0.4636 -0.1839
 6787W        W27067   5.412  12.897   1.441 -0.1738  0.3139 -0.2097
 6788W        W27068   1.955  12.693  13.737 -0.1578 -0.0707 -0.4875
 6789W        W27069  15.943  17.459  14.238 -0.0935 -0.0294  0.0230
 6790W        W27070   1.703   5.116  13.173  0.1669 -0.1215  0.3201
 6791W        W27071   2.781  13.806   3.920  0.1417  0.4120 -0.1561
 6792W        W27072   4.106   7.707   0.303  0.0206 -0.1283  0.1488
 6793W        W27073   4.307  16.979   1.108 -0.0240 -0.2277 -0.1231
 6794W        W27074  16.885  11.141  15.011 -0.1162 -0.1420 -0.1999
 6795W        W27075   2.365  13.328  13.855  0.1273  0.0870 -0.2971
 6796W        W27076   4.918   1.581  12.092  0.3104  0.1545  0.1192
 6797W        W27077  12.560   5.487  14.990  0.0088 -0.1097  0.1434
 6798W        W27078   0.016   7.483   4.695 -0.2022 -0.3540 -0.1237
 6799W        W27079  13.506  11.233   0.083 -0.1365 -0.1637  0.1538
 6800W        W27080   7.108   3.675   3.398  0.1937  0.0716  0.3696
 6801W        W27081  13.269   7.988   0.238 -0.0552  0.5984  0.0751
 6802W        W27082   6.839  13.791  15.731  0.2829 -0.0678  0.0227
 6803W        W27083  10.125   1.139  12.241  0.0003 -0.0861 -0.0783
 6804W        W27084  16.103   3.172   3.714  0.3429  0.0503 -0.2875
 6805W        W27085   5.153   0.123   1.231 -0.0246 -0.2606  0.0798
 6806W        W27086   5.469  12.931   3.679 -0.1175 -0.2743  0.0418
 6807W        W27087   8.178   4.374   2.450 -0.2330 -0.1450  0.0370
 6808W        W27088   6.906  14.796   3.924  0.1829  0.0613  0.1718
 6809W        W27089   6.113  13.635   5.086 -0.1286 -0.2647 -0.0192
 6810W        W27090   8.612   8.276  12.023 -0.1721 -0.1141  0.1260
 6811W        W27091   3.211   2.913  13.189  0.4023  0.0983 -0.0889
 6812W        W27092   6.675   9.839   3.611  0.1052 -0.0138 -0.0303
 6813W        W27093   7.856   2.307  13.237 -0.4760 -0.0715 -0.1877
 6814W        W27094  13.819   1.449  12.096 -0.0301  0.0960 -0.2634
 6815W        W27095  11.957   9.681   3.709 -0.3533  0.0479  0.1687
 6816W        W27096   3.111  15.619  11.206  0.2193  0.0521  0.0248
 6817W        W27097  12.483   8.672  13.947  0.2024  0.0806  0.0333
 6818W        W27098  17.940   1.108  12.367 -0.2073 -0.1115  0.0712
 6819W        W27099  16.508   7.843   0.238  0.0787 -0.2270  0.2042
 6820W        W27100   8.405   0.008  14.494 -0.1027  0.3474  0.2560
 6821W        W27101   1.218  13.225   3.136  0.1289  0.0367  0.5204
 6822W        W27102  12.327   0.735   2.634  0.1576 -0.1889  0.2936
 6823W        W27103   5.197  15.204   3.363 -0.0318  0.2363  0.1007
 6824W        W27104   4.609   4.653  15.226 -0.3484 -0.1951 -0.1565
 6825W        W27105   9.343   1.283   2.538 -0.0891 -0.2210  0.0238
 6826W        W27106   3.363   2.143   0.498 -0.0739  0.0753 -0.1426
 6827W        W27107  17.301   9.302   3.019 -0.0457 -0.2599  0.0454
 6828W        W27108   5.721  10.490   5.203 -0.0833 -0.1652  0.2578
 6829W        W27109  17.353   4.096  15.916 -0.0863 -0.2320 -0.0490
 6830W        W27110  16.939   1.180   4.063 -0.1055 -0.3185 -0.0757
 6831W        W27111  14.408   7.853   3.190 -0.0529  0.1002  0.1711
 6832W        W27112  17.555  17.317  14.466 -0.1205 -0.0321  0.2499
 6833W        W27113   2.122   5.149  12.255  0.1020 -0.0368  0.1684
 6834W        W27114  17.852  16.999  14.100 -0.0501 -0.0295  0.3678
 6835W        W27115  16.974   0.472  15.915  0.0533  0.1200  0.0604
 6836W        W27116  14.871   4.193   2.629  0.1810 -0.1531  0.2478
 6837W        W27117  17.299   8.991  14.070  0.0550  0.0104 -0.2091
 6838W        W27118  11.883  13.156  14.553  0.0921  0.0965  0.0067
 6839W        W27119   0.436  11.861  15.074 -0.1746  0.0256  0.1175
 6840W        W27120  14.426  14.059   0.895 -0.2158 -0.1073 -0.0868
 6841W        W27121  15.144  17.708   1.493 -0.0333 -0.0368  0.0641
 6842W        W27122  11.005  16.884  14.926  0.1141 -0.0846  0.1246
 6843W        W27123   6.942  18.140  14.124 -0.0697 -0.3213  0.0485
 6844W        W27124   1.977   7.985   0.895 -0.0486 -0.2337 -0.0062
 6845W        W27125   8.340   2.654   4.484  0.2230 -0.0111  0.1984
 6846W        W27126  11.683   3.507   2.337  0.0840 -0.0749 -0.1002
 6847W        W27127  14.438   7.324  13.561  0.0519  0.1532  0.2651
 6848W        W27128   6.819  13.216   3.817 -0.0446  0.2579  0.0750
 6849W        W27129  12.622   9.931   0.590  0.1584 -0.1939  0.0169
 6850W        W27130   2.492   3.144   4.133  0.1947 -0.0386  0.0840
 6851W        W27131   5.207  12.348  11.656  0.0130  0.1606 -0.2600
 6852W        W27132   6.162  13.225   1.134 -0.1112  0.2350  0.0889
 6853W        W27133  15.229  13.766  15.671 -0.1333 -0.1505  0.0508
 6854W        W27134   7.413   9.759   2.451 -0.1813  0.0520  0.0909
 6855W        W27135  15.161  15.373  11.769 -0.1554 -0.2293  0.2663
 6856W        W27136   6.949  13.890   4.040 -0.1498  0.4809 -0.1950
 6857W        W27137  10.489  15.713  14.212  0.3277 -0.1328  0.1077
 6858W        W27138   7.205   4.936  12.682  0.0562  0.2484 -0.1583
 6859W        W27139   0.130  10.706   3.979 -0.1546 -0.3837 -0.4574
 6860W        W27140   5.428  17.665   3.344  0.1473  0.2906 -0.2111
 6861W        W27141  10.582   1.369   4.468 -0.0347  0.0553 -0.1391
 6862W        W27142   7.627   3.027  12.680 -0.1871  0.1046  0.1576
 6863W        W27143  16.962  10.487   3.776  0.0545  0.2990 -0.0198
 6864W        W27144   4.585   9.884  13.033 -0.0739 -0.1879 -0.5021
 6865W        W27145  13.839  16.093   4.588 -0.0472 -0.3039  0.2005
 6866W        W27146   0.590  10.025   1.553 -0.0899  0.0487 -0.1594
 6867W        W27147  14.756   7.509  15.649 -0.3056  0.3683  0.3202
 6868W        W27148   3.111   3.966  13.635  0.0602 -0.1426  0.0631
 6869W        W27149   6.769   5.708   4.206 -0.0382  0.0817  0.0532
 6870W        W27150  17.657  15.847   1.833  0.0579 -0.2350  0.2505
 6871W        W27151   8.628   4.827   1.571  0.4124 -0.1946  0.2190
 6872W        W27152  14.878   2.503  14.218  0.1406  0.0677  0.0658
 6873W        W27153   1.218   7.650   4.817 -0.2966  0.0133 -0.0132
 6874W        W27154  16.846  11.475  12.832 -0.0813 -0.3072  0.2071
 6875W        W27155  11.470   4.605   1.143 -0.2048  0.2826  0.2063
 6876W        W27156  10.851   9.531  11.379 -0.0801  0.0077 -0.0798
 6877W        W27157  10.758  13.262  12.845  0.2159  0.1211 -0.0085
 6878W        W27158  10.011   4.212  15.464 -0.0227 -0.0588 -0.0484
 6879W        W27159  15.434  12.921  13.474  0.3239 -0.1479  0.1223
 6880W        W27160  12.863   8.780   4.070  0.0957  0.0077 -0.0648
 6881W        W27161   9.065  17.584   2.442 -0.1222  0.2255  0.3648
 6882W        W27162   4.839   4.205   3.931 -0.0194  0.0613 -0.1075
 6883W        W27163   1.797  14.386  14.550  0.0255  0.0741 -0.0076
 6884W        W27164  12.751   1.930  13.854  0.2310  0.2825  0.4343
 6885W        W27165   7.095   5.457   0.846 -0.0327  0.1389  0.0311
 6886W        W27166   4.723   8.860   1.279 -0.2706 -0.0542 -0.0160
 6887W        W27167   1.486  13.832  14.022  0.0355  0.1243  0.0933
 6888W        W27168   3.193   5.222   3.449 -0.2039  0.0662  0.1373
 6889W        W27169  11.430   9.889   0.022  0.1783  0.0242 -0.2136
 6890W        W27170   8.928  12.074  14.554 -0.1654 -0.0588 -0.0854
 6891W        W27171   4.932   4.188  14.021 -0.0051 -0.0297  0.0417
 6892W        W27172   1.294   6.698   4.305 -0.0466 -0.1636 -0.0079
 6893W        W27173  11.055   3.513  13.451  0.0667 -0.1173  0.1023
 6894W        W27174   1.638  11.465  14.369  0.0171  0.3781  0.1225
 6895W        W27175   0.660   9.147   0.432  0.0150  0.0434  0.2397
 6896W        W27176   2.254   0.177   3.661  0.1648  0.0191 -0.1755
 6897W        W27177   4.587  16.427  15.451 -0.0091  0.1404  0.0171
 6898W        W27178   3.707   5.131   1.170 -0.0607  0.0252  0.0477
 6899W        W27179  10.751  12.902  12.402  0.1977 -0.1658 -0.1055
 6900W        W27180  18.220  16.084   3.636 -0.0190  0.1638 -0.0050
 6901W        W27181  10.192   8.675   2.774  0.1312  0.3207  0.2716
 6902W        W27182   7.582   7.869   1.435 -0.0329 -0.1019  0.0272
 6903W        W27183   1.373  13.985  12.050  0.3902 -0.1167 -0.2995
 6904W        W27184  11.610  17.727  12.997 -0.1289 -0.0016  0.2433
 6905W        W27185  18.000   3.648  14.604 -0.0248 -0.1150  0.0666
 6906W        W27186   3.856   2.437  11.449 -0.4009 -0.0665 -0.1440
 6907W        W27187   8.736   7.296   4.001  0.3487 -0.1685  0.3621
 6908W        W27188  17.191   8.691  15.614 -0.1972 -0.1371 -0.0802
 6909W        W27189   2.823   1.941   3.218  0.1473  0.1572  0.0038
 6910W        W27190  15.258   2.204  14.165  0.4393  0.2455  0.0088
 6911W        W27191   9.615   2.473   3.534 -0.2402 -0.0915 -0.0166
 6912W        W27192  13.043  10.922   3.572  0.0783  0.1038 -0.0930
 6913W        W27193  17.959   6.352   0.194 -0.0520 -0.1058  0.1272
 6914W        W27194   7.615  16.692  14.743  0.0395  0.2021 -0.0994
 6915W        W27195   8.940   5.781  11.811  0.3023  0.2034 -0.1411
 6916W        W27196  11.550  16.196   3.281 -0.1023 -0.0735 -0.0316
 6917W        W27197  17.683   9.794  12.543  0.1065 -0.2069 -0.1681
 6918W        W27198   3.334   6.330   5.587  0.1236 -0.1647 -0.1948
 6919W        W27199   4.268  14.563   1.073 -0.0494  0.1282  0.1925
 6920W        W27200  10.373  16.558  14.529 -0.0455  0.1937 -0.0457
 6921W        W27201   9.351  15.862  12.415  0.0399  0.1479 -0.2151
 6922W        W27202   6.784  10.907   2.484  0.2687 -0.0468  0.1134
 6923W        W27203  13.560   2.315  13.891  0.0101  0.1203  0.3388
 6924W        W27204   5.379  15.012  15.428  0.2309 -0.0146  0.0800
 6925W        W27205   9.063   7.316  12.618 -0.1661  0.0649 -0.0259
 6926W        W27206   4.528   6.471   1.016  0.1302 -0.1368 -0.4133
 6927W        W27207   1.374   1.026   0.842  0.0277 -0.1428  0.0293
 6928W        W27208   0.144  11.990  13.571  0.1090  0.1399  0.1362
 6929W        W27209   6.277   3.260   4.459  0.2896  0.1862  0.0151
 6930W        W27210   5.091   4.446  15.019  0.0053  0.1122 -0.1501
 6931W        W27211   2.373   0.841  11.730 -0.0672 -0.1278  0.3490
 6932W        W27212  14.064   5.007  11.213  0.0871 -0.1602 -0.1925
 6933W        W27213  15.401   8.824  14.655  0.0911 -0.1657 -0.1406
 6934W        W27214   4.278  10.274  11.778 -0.1315  0.0266  0.0130
 6935W        W27215   9.699  10.447  14.517 -0.2680  0.3060  0.0592
 6936W        W27216   1.378  12.997  11.797  0.1846 -0.0002 -0.0485
 6937W        W27217  10.342  13.125   2.578 -0.0468 -0.0219  0.2635
 6938W        W27218   2.160  12.984  12.833  0.0302  0.1297 -0.3588
 6939W        W27219   4.481   7.394  13.306  0.0672  0.3360  0.1687
 6940W        W27220  15.756  12.039  15.001  0.2398 -0.0045  0.0112
 6941W        W27221   1.350  10.855  12.977 -0.1739 -0.0848 -0.2756
 6942W        W27222  12.128   1.424  11.328  0.1817 -0.0855 -0.0068
 6943W        W27223   2.253   9.719   0.768  0.4584  0.3508 -0.1540
 6944W        W27224  15.238   8.293  15.426 -0.0455 -0.1993 -0.0520
 6945W        W27225   3.397   6.100  14.079  0.2372 -0.0826 -0.4707
 6946W        W27226  10.563   0.380   4.356 -0.1092 -0.1269 -0.0009
 6947W        W27227  13.873   7.589  15.353  0.0324  0.0716  0.1410
 6948W        W27228   7.027   2.623  10.510  0.4515  0.0826  0.5086
 6949W        W27229  11.793  14.108  12.243  0.0183 -0.0917 -0.1502
 6950W        W27230   9.998  14.239  12.669  0.1897 -0.0069 -0.1597
 6951W        W27231  10.596  14.429  14.553  0.1869 -0.1482 -0.2554
 6952W        W27232   2.680   6.932   4.580 -0.2855 -0.2172 -0.0203
 6953W        W27233   8.149   0.439   4.048 -0.0763 -0.1251  0.0567
 6954W        W27234  15.134   9.457   2.167 -0.0210  0.1101 -0.2258
 6955W        W27235  13.311  16.353  13.004  0.1088  0.1198 -0.2271
 6956W        W27236   6.921  15.440  13.495  0.0995 -0.0882  0.1156
 6957W        W27237   9.998   6.675  15.615  0.2657 -0.2892  0.0957
 6958W        W27238  10.058  16.152  14.313  0.0064 -0.0551  0.2042
 6959W        W27239  17.379   7.474   4.529 -0.0378 -0.0851 -0.1399
 6960W        W27240   1.471  15.812  11.937 -0.2522  0.1188 -0.1149
 6961W        W27241   7.441   9.120   3.371  0.2307 -0.0808 -0.0416
 6962W        W27242  14.230   8.423   3.017  0.0887  0.1306 -0.2226
 6963W        W27243   6.443  16.688   0.238 -0.2163  0.0753 -0.2316
 6964W        W27244   9.264  17.253  13.566  0.0294  0.3179  0.4666
 6965W        W27245  13.322   3.486  11.969  0.2148  0.2222  0.2130
 6966W        W27246   3.934  16.234   2.837  0.5333  0.0584 -0.2826
 6967W        W27247   9.778   9.587   1.741 -0.0473  0.2145 -0.1870
 6968W        W27248  14.658   9.625   1.907  0.0123 -0.0752  0.1454
 6969W        W27249   1.142  17.443   4.077 -0.2950 -0.3248  0.0234
 6970W        W27250  14.887   3.462  15.865 -0.4604 -0.1395 -0.1078
 6971W        W27251  14.271  12.200   2.098  0.0962 -0.2257  0.0588
 6972W        W27252   4.489  17.984   3.034 -0.1002 -0.0531 -0.1705
 6973W        W27253  13.917  17.997   2.405 -0.0249 -0.2404 -0.1413
 6974W        W27254   5.981  11.093   2.520  0.2379 -0.1313  0.1078
 6975W        W27255   0.239  10.784   3.047  0.2076  0.0757 -0.0388
 6976W        W27256   5.432  14.070  13.741  0.2683  0.3052  0.1877
 6977W        W27257   6.574   4.036  11.645 -0.1845 -0.2296  0.0828
 6978W        W27258   4.275  12.555  11.671 -0.1689  0.0374  0.0515
 6979W        W27259  17.530   9.708   0.299  0.2199 -0.2184 -0.0996
 6980W        W27260  13.983   9.925   1.215 -0.1049  0.0580 -0.0844
 6981W        W27261   0.476   9.846  13.474 -0.2065  0.0266 -0.1418
 6982W        W27262  12.412   0.327  12.888 -0.2371  0.2716 -0.0286
 6983W        W27263  12.591  11.027  14.071  0.1393  0.0459 -0.1363
 6984W        W27264  10.979   5.179   1.974 -0.0422 -0.0487 -0.1261
 6985W        W27265  16.211  10.570  13.619  0.1728  0.2789  0.0934
 6986W        W27266  12.773  12.658  15.429  0.1106 -0.3153 -0.0884
 6987W        W27267   0.252  14.973   0.024  0.0880 -0.0262 -0.0716
 6988W        W27268  16.045   4.862  15.502 -0.3315  0.1717  0.2543
 6989W        W27269   1.397   2.182   2.237  0.2529  0.0477  0.0401
 6990W        W27270   8.086   8.089  15.666 -0.1203  0.0683  0.2655
 6991W        W27271  14.592   0.430   0.587 -0.4322  0.2830 -0.0217
 6992W        W27272   9.518  18.169   2.341  0.0828  0.0244  0.3206
 6993W        W27273  10.518   8.266  13.946  0.1161 -0.0630 -0.0847
 6994W        W27274   2.523  15.685  13.764  0.1985  0.2193 -0.4326
 6995W        W27275   1.302   2.725  11.580 -0.2872  0.2985 -0.2401
 6996W        W27276  11.893   6.666   1.374  0.1670  0.1362 -0.0332
 6997W        W27277  16.801   1.421   1.949 -0.1084  0.0526  0.4679
 6998W        W27278  11.011   2.533   4.815  0.0404  0.1679  0.0507
 6999W        W27279  10.353   7.873   3.320  0.1349  0.3707  0.1224
 7000W        W27280   1.947   0.227   0.300 -0.1794 -0.0358  0.2113
 7001W        W27281  15.444   4.819  12.644  0.0607  0.0288 -0.2525
 7002W        W27282   5.796   5.268   5.718 -0.0767 -0.0959 -0.1094
 7003W        W27283  17.880   4.789  15.072 -0.0271 -0.3696 -0.2515
 7004W        W27284  15.896  18.085   2.110 -0.3395 -0.0614  0.2903
 7005W        W27285  18.138   9.710  13.280 -0.0544 -0.0446  0.0037
 7006W        W27286  16.879   0.058  14.503 -0.2622  0.1055 -0.0049
 7007W        W27287  14.329  12.686   3.498  0.0580 -0.0748 -0.0045
 7008W        W27288  14.576   3.825  13.087 -0.0120  0.1190  0.0551
 7009W        W27289   8.277   9.134  14.740  0.0971  0.2128 -0.0953
 7010W        W27290  11.291   2.164   2.774  0.0440  0.0349 -0.2504
 7011W        W27291   9.786  12.439   3.180 -0.0253  0.0736 -0.1621
 7012W        W27292   2.821  15.851   1.241  0.0062  0.1069  0.1119
 7013W        W27293  14.556   5.566  13.055  0.1313  0.2026 -0.0139
 7014W        W27294   5.167  18.012   1.824 -0.0454 -0.2001 -0.1229
 7015W        W27295   2.061  12.404  14.262  0.0373  0.0431  0.1636
 7016W        W27296  11.759  18.185   1.141  0.1731  0.4430 -0.1793
 7017W        W27297  12.576  10.098   1.628 -0.1999 -0.0851  0.0970
 7018W        W27298  10.119  11.089   0.724 -0.2021 -0.0260 -0.1554
 7019W        W27299   7.785  13.240   3.121  0.1020  0.0904 -0.1484
 7020W        W27300  13.242   4.695  15.749 -0.0986  0.1512 -0.1016
 7021W        W27301   8.191   0.559   3.563  0.0459  0.1113  0.0889
 7022W        W27302   9.443   7.994  15.873 -0.1391  0.1904  0.4106
 7023W        W27303   8.740   0.938   1.601  0.1296 -0.1332 -0.1043
 7024W        W27304   6.408   8.511   3.984  0.0559  0.2789 -0.0692
 7025W        W27305  13.935   7.797  14.906 -0.0342  0.0002 -0.0290
 7026W        W27306   7.854   7.838  11.553  0.3267  0.4430 -0.1044
 7027W        W27307  14.037   7.305  14.980  0.5456  0.1247 -0.2199
 7028W        W27308   1.119   8.797  10.695  0.2876 -0.0118  0.2489
 7029W        W27309  18.294   1.425   1.191 -0.2543  0.2754 -0.0667
 7030W        W27310   6.939   0.270   5.035  0.2983 -0.2358  0.1693
 7031W        W27311   4.957   4.685  14.195  0.0774  0.1164  0.0837
 7032W        W27312   4.231   8.444   0.995 -0.0907 -0.0471  0.1292
 7033W        W27313   6.198   3.424  13.804  0.2649  0.0129 -0.1665
 7034W        W27314   5.356   1.045  13.836  0.3638  0.1229 -0.0709
 7035W        W27315   1.693  10.338  12.130  0.2208  0.2738  0.3940
 7036W        W27316   1.303   0.105  15.734 -0.0990 -0.0474  0.0935
 7037W        W27317  11.347  16.495   1.303 -0.0197 -0.1578  0.3556
 7038W        W27318  12.982  11.073   3.024  0.2481 -0.1017 -0.1273
 7039W        W27319   6.456   9.213   3.999  0.0186  0.0391  0.1338
 7040W        W27320   0.445   7.711   2.170  0.2787  0.1387 -0.0132
 7041W        W27321   2.723  12.606  13.268 -0.0780  0.1779 -0.1562
 7042W        W27322   5.723   6.601   3.073  0.2261 -0.2133 -0.0885
 7043W        W27323   1.608   9.355  13.938 -0.2341 -0.2370 -0.1559
 7044W        W27324  10.011  11.436  11.340  0.0712  0.2285  0.3386
 7045W        W27325  17.138   7.320   0.087 -0.2755  0.0109 -0.0877
 7046W        W27326  11.488  17.735   2.629 -0.0452  0.1109  0.0458
 7047W        W27327   8.095   6.257  15.840 -0.2469  0.1071  0.1413
 7048W        W27328  17.324  16.181  13.548  0.0055  0.0121  0.1947
 7049W        W27329   0.354  16.746   1.099  0.0571 -0.1921 -0.2997
 7050W        W27330   8.423  15.495  13.771 -0.0975 -0.1928  0.2976
 7051W        W27331   3.695   0.367  13.379 -0.0241  0.2489 -0.2755
 7052W        W27332   6.377  14.204   3.375  0.0463 -0.3333  0.0726
 7053W        W27333   8.248  17.244  15.254  0.1727 -0.0668  0.2096
 7054W        W27334  16.448  10.941   2.183  0.2295  0.3009  0.1632
 7055W        W27335  10.629  17.777   3.970  0.2035  0.0343  0.1010
 7056W        W27336  10.966  14.912   2.335 -0.2662 -0.4835  0.0704
 7057W        W27337  17.639   2.956  14.795  0.0173  0.1168  0.3403
 7058W        W27338   9.537  16.392   0.413  0.1134 -0.1135 -0.1418
 7059W        W27339  18.221  17.491   3.544 -0.1492 -0.1914 -0.1906
 7060W        W27340  10.404  11.270   2.123  0.3086  0.2360  0.2325
 7061W        W27341  15.005   7.695   0.795  0.0110  0.0098 -0.1453
 7062W        W27342  12.982   9.011  15.540 -0.1390  0.1272  0.0450
 7063W        W27343   9.022   4.523  15.007 -0.0013 -0.1455 -0.2718
 7064W        W27344   2.244  14.023   3.044  0.2991  0.0386  0.3680
 7065W        W27345  16.866  16.459   1.575  0.2091 -0.1336 -0.1369
 7066W        W27346   6.296   8.708  13.467  0.1941 -0.2139  0.1582
 7067W        W27347   9.606   7.253   3.093  0.0749  0.1457 -0.1170
 7068W        W27348   9.201  15.661  14.414 -0.2323 -0.0596 -0.2449
 7069W        W27349  15.520  12.227   3.952 -0.2395 -0.1364 -0.2303
 7070W        W27350   7.622   6.969   4.304  0.0317 -0.2098 -0.2004
 7071W        W27351   4.487   9.674  15.792 -0.0049  0.1489 -0.0404
 7072W        W27352   2.882  14.150   3.571 -0.0774  0.1340 -0.2090
 7073W        W27353  10.866   4.413   1.499 -0.1680  0.1048 -0.2023
 7074W        W27354   1.033  17.141  14.189  0.1293  0.1427 -0.1415
 7075W        W27355  11.441   9.661   2.550  0.4334  0.1318 -0.2332
 7076W        W27356  13.253   8.471   2.227  0.2062  0.0059  0.3874
 7077W        W27357  14.581   8.202   3.559  0.0057  0.1393 -0.0625
 7078W        W27358   5.506   4.912  15.586 -0.0297 -0.1718  0.1414
 7079W        W27359   1.895  15.792   1.725 -0.4246  0.0595  0.1593
 7080W        W27360   9.856   3.402  13.256  0.2756 -0.0813  0.0964
 7081W        W27361   9.734  11.558   4.459  0.0412  0.0655  0.1327
 7082W        W27362   7.341  17.586  12.500 -0.3177  0.1350 -0.1255
 7083W        W27363   4.233  11.432   2.915 -0.1209  0.2843 -0.0559
 7084W        W27364  10.525  14.237  12.576  0.0529 -0.2371 -0.3238
 7085W        W27365  16.115  10.528  12.128 -0.1699  0.1254  0.2735
 7086W        W27366  12.875   6.317   1.063 -0.1501 -0.0547 -0.1602
 7087W        W27367  13.062   0.004   3.217 -0.2814  0.0982  0.0496
 7088W        W27368   8.721   7.576   1.192 -0.0795  0.0447  0.1115
 7089W        W27369   1.586   3.107  12.287  0.1606 -0.0260 -0.0434
 7090W        W27370   4.648   4.284  13.526 -0.3269 -0.1270  0.1425
 7091W        W27371   5.566   1.970   0.923 -0.2682 -0.0181 -0.0455
 7092W        W27372  16.871   2.257   1.530 -0.0129 -0.0981  0.1073
 7093W        W27373   6.747   9.522  15.838 -0.2640  0.1072  0.2990
 7094W        W27374  12.424  11.353  12.508  0.1897  0.5122 -0.0796
 7095W        W27375   7.124   5.905   0.983 -0.1905  0.1733 -0.1431
 7096W        W27376  17.467  17.748   1.733 -0.0951  0.0870  0.0563
 7097W        W27377  11.497   2.961  13.192  0.0339  0.0355  0.1145
 7098W        W27378  15.863  13.330  13.598 -0.0111 -0.1914  0.0412
 7099W        W27379  13.637  10.712   3.655 -0.1068 -0.0753 -0.3043
 7100W        W27380   3.839  13.321  11.340  0.1652 -0.2125 -0.2331
 7101W        W27381   5.105   1.076  14.782 -0.1966 -0.2612 -0.1021
 7102W        W27382   3.514  15.404   1.108  0.2572  0.2100  0.1493
 7103W        W27383  12.343  11.785  12.193 -0.0831 -0.1777 -0.1701
 7104W        W27384   8.755  17.612  12.611  0.0826  0.1219 -0.1690
 7105W        W27385   1.668   6.774   1.900 -0.1502  0.1835 -0.0609
 7106W        W27386   8.991  11.402  12.664  0.0016 -0.5013  0.1029
 7107W        W27387  17.378   1.726  13.546  0.0827 -0.0851  0.1254
 7108W        W27388   7.998   6.806   2.701 -0.1331 -0.4615 -0.2162
 7109W        W27389  13.274  13.100  13.264 -0.1748 -0.0723  0.0420
 7110W        W27390   2.274   2.042  15.359 -0.1004 -0.1751 -0.0748
 7111W        W27391  11.804  15.170  14.369  0.0619 -0.0540 -0.1613
 7112W        W27392  17.246   5.005   0.934  0.1227 -0.3362 -0.4240
 7113W        W27393  14.390   3.222  15.311 -0.0877  0.2024 -0.3747
 7114W        W27394   2.622   6.791   1.506 -0.0630 -0.1048 -0.1138
 7115W        W27395  13.832  15.232   4.611  0.1990  0.0879  0.1354
 7116W        W27396   2.073   1.816  13.877  0.0453  0.2334 -0.2930
 7117W        W27397   0.804   4.456  12.464  0.2108 -0.1726 -0.2311
 7118W        W27398   8.229   2.224  11.195  0.0138  0.4616  0.2872
 7119W        W27399  11.136   2.047   2.274  0.0157 -0.0515  0.0535
 7120W        W27400   8.322   8.432   0.845  0.2936 -0.0407  0.0666
 7121W        W27401  15.752  11.525  15.142  0.2526 -0.0282 -0.1526
 7122W        W27402   3.490   5.431  13.435 -0.0676  0.2865 -0.0459
 7123W        W27403  13.971   4.595   3.446  0.0351  0.1336 -0.0676
 7124W        W27404   8.833  16.848   4.322  0.1343  0.0633 -0.0330
 7125W        W27405   1.621   4.921   4.138 -0.2602 -0.1133 -0.1504
 7126W        W27406  12.978   5.102   1.403  0.2784 -0.0858  0.3274
 7127W        W27407  11.992  15.613  12.219 -0.1869  0.0620  0.0042
 7128W        W27408  10.924   5.616   1.143 -0.0332  0.2815 -0.0698
 7129W        W27409   8.763   7.862   2.031  0.0682 -0.1171  0.1180
 7130W        W27410  16.960  15.128  11.401  0.0094 -0.1711 -0.1021
 7131W        W27411   0.233   6.229   2.034  0.0353  0.1155 -0.1447
 7132W        W27412   7.115  16.636   3.034 -0.2315 -0.1706 -0.2703
 7133W        W27413  10.380   7.712  14.818 -0.0806  0.2471 -0.0428
 7134W        W27414  14.292   4.628  11.997 -0.0538  0.2636  0.0496
 7135W        W27415  17.771   3.458   3.436 -0.2703  0.1955 -0.0391
 7136W        W27416   7.827  11.538   0.365  0.1256 -0.0243  0.3146
 7137W        W27417   8.213  16.640   0.950  0.0307  0.0753 -0.2617
 7138W        W27418   5.170   8.148   3.216  0.1262  0.0472  0.3123
 7139W        W27419  16.672   9.573  13.704  0.0734  0.1708 -0.0530
 7140W        W27420   8.102  18.221   4.076  0.2053 -0.1064  0.0447
 7141W        W27421  13.558  17.118  15.228  0.2516  0.1587  0.0202
 7142W        W27422  16.149  11.501  14.846 -0.0478 -0.0931 -0.1256
 7143W        W27423   0.061  14.482   0.512 -0.1743  0.0565  0.0705
 7144W        W27424   3.040   9.531   2.450 -0.0990 -0.0372  0.1521
 7145W        W27425   2.244  12.642  11.946  0.3007 -0.0980  0.1393
 7146W        W27426   7.526   9.098  13.598  0.1354  0.1421 -0.0886
 7147W        W27427  17.884   8.041   1.133 -0.0024 -0.3694 -0.1159
 7148W        W27428   9.570  12.024   0.258 -0.0346  0.0378 -0.0862
 7149W        W27429   9.320   3.068  12.951  0.0239  0.1166 -0.0863
 7150W        W27430  17.781   3.587  12.941  0.2112 -0.0127 -0.1093
 7151W        W27431  13.386  12.327  12.034 -0.0646 -0.4055  0.1931
 7152W        W27432   4.122  10.719  15.092 -0.3500 -0.0862 -0.2892
 7153W        W27433   0.420   1.794  15.140 -0.0865 -0.1727  0.0345
 7154W        W27434   5.637  10.956   5.333  0.2082 -0.2240 -0.0086
 7155W        W27435  15.243  15.872  12.376  0.1133 -0.2408 -0.3337
 7156W        W27436  17.788  14.230  13.285 -0.3163  0.0058  0.1910
 7157W        W27437   0.652   8.381   3.512  0.1871  0.0235  0.2177
 7158W        W27438   2.715   0.423  12.346 -0.2563  0.0472  0.0332
 7159W        W27439   2.887   6.083  14.253  0.2689 -0.0105  0.0673
 7160W        W27440   0.238   1.948   2.325  0.1543  0.1854  0.0285
 7161W        W27441   3.770  10.630   2.214 -0.2103 -0.2548 -0.0206
 7162W        W27442   4.666   2.349   2.800  0.1835 -0.0103 -0.1574
 7163W        W27443  15.291  14.867  13.838  0.1994  0.0080 -0.0298
 7164W        W27444   2.291   6.637   2.087 -0.0212  0.2650 -0.2270
 7165W        W27445   1.699   9.395  13.042 -0.0664  0.1095  0.1870
 7166W        W27446  15.391   8.005   2.553  0.2955  0.2168 -0.0232
 7167W        W27447   1.441   2.407  11.982  0.3555 -0.2797 -0.1024
 7168W        W27448  14.944   5.097   3.925  0.1373  0.1391 -0.0758
 7169W        W27449   5.293   8.621  13.639 -0.0920 -0.0835 -0.2063
 7170W        W27450   6.986  14.152  14.920  0.1428  0.2420  0.3065
 7171W        W27451  14.154   2.567  14.959  0.0647  0.0118 -0.1493
 7172W        W27452  14.175  14.495  12.997 -0.1331 -0.2127  0.0916
 7173W        W27453  11.227   2.168   1.451  0.0362 -0.2798 -0.0140
 7174W        W27454   4.375   6.468   2.334 -0.2186 -0.1051 -0.0427
 7175W        W27455   6.644   1.256  11.448 -0.1417 -0.3285  0.0829
 7176W        W27456   4.241   4.227   1.169 -0.3034 -0.4085  0.0547
 7177W        W27457   5.185   7.694  14.349  0.0896 -0.2098 -0.0429
 7178W        W27458   0.968   2.554   0.280  0.1309 -0.1569  0.3080
 7179W        W27459  10.715   9.304   1.697  0.3811  0.1875 -0.1869
 7180W        W27460   9.656   0.444   4.502  0.2193  0.0799  0.3903
 7181W        W27461  14.606   8.536   2.680 -0.0863 -0.1343 -0.0557
 7182W        W27462  10.286  10.499  13.202  0.3051 -0.1383  0.1157
 7183W        W27463  15.891   3.587   3.416  0.1102 -0.2514 -0.0613
 7184W        W27464   5.289  11.156  15.728 -0.1607 -0.0459 -0.1322
 7185W        W27465   8.104   8.327   4.851  0.0270 -0.2463  0.1341
 7186W        W27466   6.631   4.318   2.406  0.0366  0.1953  0.4239
 7187W        W27467   2.824   8.754  13.758  0.1446 -0.2044  0.2865
 7188W        W27468  10.482   9.117  15.681  0.1364  0.0063 -0.0353
 7189W        W27469  15.956  14.226   1.766 -0.0938  0.3173 -0.1623
 7190W        W27470  11.593   7.292   3.355  0.0136  0.1521 -0.1100
 7191W        W27471  10.043  17.606  12.148 -0.0649  0.3839  0.2621
 7192W        W27472   1.448   4.737   0.497 -0.0714 -0.1065  0.2737
 7193W        W27473   3.334  14.810   2.262 -0.2641  0.0290 -0.0519
 7194W        W27474   3.219   4.298  14.006  0.1654  0.3828  0.2005
 7195W        W27475   2.796   3.487  12.349 -0.2489 -0.0023  0.1301
 7196W        W27476   0.944  11.678   1.163 -0.1728  0.1261 -0.1241
 7197W        W27477   4.351  18.098  13.161 -0.1979  0.2727 -0.0799
 7198W        W27478  12.084   2.447  12.613  0.2360  0.0242 -0.1013
 7199W        W27479   2.625  13.219   2.332 -0.0572 -0.1761  0.0429
 7200W        W27480   8.281   9.915   2.026  0.4931  0.1543 -0.0755
 7201W        W27481  11.582   1.623   0.572 -0.0306 -0.1170 -0.0679
 7202W        W27482   7.874   2.655  11.876  0.2770  0.1965 -0.1976
 7203W        W27483   7.565   8.741  11.467  0.1993 -0.3086 -0.0773
 7204W        W27484  18.120  10.289  15.661  0.0961  0.0792  0.0920
 7205W        W27485  14.272  17.932   2.003  0.2065 -0.1051 -0.2577
 7206W        W27486   0.127   2.352   1.342  0.2986  0.0298 -0.1674
 7207W        W27487   2.472  16.277   0.019  0.1682 -0.1285 -0.2101
 7208W        W27488  11.078   1.690  14.117 -0.0821 -0.0145 -0.1304
 7209W        W27489   0.796   8.724   2.227  0.1925  0.0129  0.0150
 7210W        W27490   9.230  10.930  11.423 -0.0753 -0.2310 -0.2603
 7211W        W27491   6.710   3.376   0.126  0.1778  0.2014  0.1372
 7212W        W27492  17.501   9.256  12.659 -0.0134 -0.0549  0.2184
 7213W        W27493  15.039   2.603   1.500  0.1322  0.2051  0.0841
 7214W        W27494   1.483  11.636   4.238 -0.0483  0.2011  0.2151
 7215W        W27495   3.702   2.946   2.763  0.1675  0.0707 -0.2881
 7216W        W27496   4.123   1.588  12.211  0.0534  0.5029  0.2701
 7217W        W27497   7.733  11.164  12.192  0.1381  0.3650 -0.0163
 7218W        W27498   9.663  12.107  15.621  0.3677 -0.2941  0.2206
 7219W        W27499  11.711  16.821   1.553 -0.1140 -0.2824  0.0343
 7220W        W27500  17.876   6.442   5.035 -0.1227  0.0188 -0.2385
 7221W        W27501   3.742  15.254   0.240 -0.1450 -0.1967  0.0218
 7222W        W27502  13.788   1.163  15.374  0.4260 -0.0370 -0.0376
 7223W        W27503   3.112   2.534  15.448  0.0196 -0.0850  0.1268
 7224W        W27504   7.692  16.988   1.803  0.1788 -0.0437  0.0553
 7225W        W27505   6.160  17.522   3.966 -0.2582  0.2799  0.2294
 7226W        W27506   2.725  16.144  12.418  0.0783  0.0006  0.1738
 7227W        W27507  16.461   0.463   2.557 -0.1425 -0.0396  0.2033
 7228W        W27508  16.911   1.363   1.428  0.2058  0.0593  0.1262
 7229W        W27509   2.824  13.238  11.203  0.3750 -0.0824 -0.3053
 7230W        W27510  15.774  18.018   1.212 -0.1163  0.0321 -0.2345
 7231W        W27511  10.988  13.444   3.569  0.0173  0.2226  0.1899
 7232W        W27512  11.193  10.354   4.560  0.0522 -0.5255  0.0294
 7233W        W27513   5.018  13.273  14.530  0.1932 -0.1109  0.0415
 7234W        W27514   4.990   6.545   4.898  0.0480  0.2315 -0.1129
 7235W        W27515   8.504   2.378  12.175 -0.2711  0.1261 -0.1258
 7236W        W27516   0.144   0.987   2.517  0.0285  0.3217  0.0147
 7237W        W27517   0.963   0.404  14.380 -0.0579  0.0485  0.1682
 7238W        W27518  11.324  15.746   0.215  0.4233  0.0437  0.0898
 7239W        W27519  15.183   5.346  13.814 -0.0226 -0.0738  0.0898
 7240W        W27520  11.352   5.979  12.487  0.0778  0.2634  0.2009
 7241W        W27521   7.001   7.342   2.739 -0.1404  0.0468 -0.3056
 7242W        W27522   7.415  15.955   1.135 -0.0228 -0.0723  0.0420
 7243W        W27523   6.017   5.806  13.919 -0.0318  0.0369  0.3201
 7244W        W27524  11.797   1.026  12.605  0.1015  0.0048 -0.1028
 7245W        W27525  11.041  14.096   0.774  0.0569  0.1455  0.0668
 7246W        W27526  18.264  17.155  12.938  0.1556  0.0571  0.1093
 7247W        W27527  15.275  12.561   4.400 -0.0427 -0.2448 -0.1520
 7248W        W27528   6.273   7.852   2.451 -0.1345 -0.1537  0.0078
 7249W        W27529   3.448   2.256  12.388  0.0589 -0.0981 -0.0868
 7250W        W27530   0.817   0.872  14.206  0.1159  0.0946 -0.2256
 7251W        W27531  13.182  11.037  13.085  0.0376  0.2287 -0.0425
 7252W        W27532   3.488   1.336  13.634  0.1921  0.0504 -0.0550
 7253W        W27533   9.731  15.781  12.738 -0.0412  0.1607  0.0815
 7254W        W27534  14.697   3.585   3.130 -0.1057 -0.1013 -0.0233
 7255W        W27535  17.962   9.471   2.119 -0.1144  0.1287  0.2917
 7256W        W27536   5.097   5.110  14.874 -0.1821  0.1779 -0.2667
 7257W        W27537   3.191   3.529  11.588 -0.0823  0.0052 -0.2970
 7258W        W27538  11.575   0.997   0.525  0.0125 -0.0674 -0.1886
 7259W        W27539   6.178   5.562   4.133  0.0065 -0.1897 -0.1563
 7260W        W27540   2.435  16.818   4.037  0.0409 -0.1201  0.1406
 7261W        W27541   3.905   6.977  12.189  0.2410  0.0171  0.0942
 7262W        W27542  11.716   1.827   3.955 -0.1203  0.0455 -0.2799
 7263W        W27543  16.310  17.755  14.029  0.1850  0.0586 -0.2702
 7264W        W27544   4.989   5.163   3.534 -0.1280 -0.3416  0.0060
 7265W        W27545   6.012  15.008   2.806  0.0581  0.1783 -0.2935
 7266W        W27546  11.871  10.760  13.346  0.2793 -0.0121  0.1391
 7267W        W27547  14.828  16.070   2.136  0.0448 -0.2536 -0.0524
 7268W        W27548   1.213   1.346  11.588  0.0949 -0.0634 -0.0879
 7269W        W27549   1.686   0.495  13.054 -0.0321  0.0188 -0.1103
 7270W        W27550   6.370  17.026   3.237  0.0092 -0.0404  0.0488
 7271W        W27551   8.340  13.856  15.783  0.0665  0.0462 -0.0628
 7272W        W27552  16.185  10.444  14.968  0.1712  0.0327 -0.0831
 7273W        W27553   5.667   0.475  14.847 -0.2231 -0.2793  0.1694
 7274W        W27554  11.373   7.095   4.649  0.4540  0.0679 -0.2115
 7275W        W27555   3.620  12.256   1.572 -0.1594 -0.0160  0.2534
 7276W        W27556   6.051  13.292  12.356 -0.1252  0.3822 -0.0858
 7277W        W27557   8.006   5.805  12.685  0.3057 -0.3604 -0.0202
 7278W        W27558   3.811  16.890  14.810 -0.2281 -0.0904  0.3929
 7279W        W27559   6.871  11.702  11.746  0.0738 -0.2475 -0.0794
 7280W        W27560  12.108  18.075   2.092 -0.0105 -0.0174  0.2752
 7281W        W27561  16.588  11.454  15.876  0.2036 -0.1193 -0.2696
 7282W        W27562   1.416  15.933  12.390 -0.2360  0.0497  0.0464
 7283W        W27563   1.235   7.230   1.757 -0.1744 -0.2089 -0.0456
 7284W        W27564   4.698   0.579   0.399  0.1487 -0.0075  0.3165
 7285W        W27565   7.807   9.292   4.065  0.0007  0.0368 -0.1615
 7286W        W27566   6.032   8.225  13.468  0.0754  0.0634  0.0451
 7287W        W27567  15.960  10.981   2.759  0.4597 -0.0401  0.0042
 7288W        W27568   7.497   9.775  14.887 -0.1622  0.0955  0.0393
 7289W        W27569   8.506  17.007   3.053  0.0613  0.0531 -0.2128
 7290W        W27570  14.056  13.371   1.334  0.1004  0.2100  0.0373
 7291W        W27571   7.239  13.105  13.029  0.1348  0.0578  0.4343
 7292W        W27572  12.075   8.030  13.620 -0.3335 -0.0669  0.0575
 7293W        W27573   4.177   6.005   2.124  0.3635 -0.1008  0.1854
 7294W        W27574  17.455   7.622   3.125  0.2115 -0.0536 -0.0357
 7295W        W27575   6.713   2.608   1.391  0.2395 -0.1086  0.0232
 7296W        W27576   2.406   1.759  12.303 -0.1525  0.0294  0.2120
 7297W        W27577   4.598  15.208  13.087 -0.2217 -0.0361 -0.2593
 7298W        W27578   0.463  11.500  12.079 -0.3004  0.1025  0.2816
 7299W        W27579   8.471   3.353   4.047 -0.0251  0.1450 -0.0138
 7300W        W27580  17.902   0.401  15.813  0.0860 -0.0203 -0.0313
 7301W        W27581   8.012  13.756   1.808 -0.0627  0.1220  0.2512
 7302W        W27582   9.432  13.359   1.744  0.1677 -0.1182 -0.0883
 7303W        W27583   3.673  17.386   3.819  0.2101 -0.2025 -0.0895
 7304W        W27584  11.653   0.503   0.660  0.3539  0.2296  0.1227
 7305W        W27585  17.276  17.498   3.310 -0.0322 -0.0479 -0.0384
 7306W        W27586  15.324   5.264  12.901 -0.0697  0.2319 -0.0208
 7307W        W27587   5.426   6.332  15.028  0.2599 -0.1710 -0.1022
 7308W        W27588   6.034   4.700   2.822 -0.0955 -0.1804  0.0872
 7309W        W27589   1.799  12.630  12.917  0.2421  0.3101  0.2598
 7310W        W27590  15.211  15.694   0.238  0.0549  0.1840  0.0198
 7311W        W27591   3.747   1.542   1.343  0.4120 -0.0043 -0.1551
 7312W        W27592   9.339  15.777   2.089  0.4049 -0.2213 -0.1194
 7313W        W27593   7.672   2.134   4.460 -0.0167 -0.2793  0.0848
 7314W        W27594  15.923   3.055   0.266 -0.1105  0.2437  0.0100
 7315W        W27595   0.685   0.235   1.603 -0.1753 -0.2317 -0.0684
 7316W        W27596  14.008   5.195   4.338  0.0304 -0.0717 -0.1155
 7317W        W27597  11.549  10.321  13.032  0.2815  0.3598 -0.0156
 7318W        W27598   4.869  14.205   0.578  0.1022  0.2988 -0.1765
 7319W        W27599   1.137   8.386   2.407 -0.1294  0.0079 -0.1169
 7320W        W27600  13.293   1.098  15.538 -0.3672 -0.0177  0.0640
 7321W        W27601   3.305   6.723  15.833 -0.0189  0.0145 -0.3091
 7322W        W27602  14.218   8.649   1.584  0.0698 -0.1630 -0.1197
 7323W        W27603   2.217   0.707   2.411  0.4944 -0.0252  0.1206
 7324W        W27604   4.461   9.275   1.345 -0.1982 -0.3876  0.2407
 7325W        W27605  13.972  13.434   4.514  0.3385  0.1054 -0.1518
 7326W        W27606   6.030  12.779  12.033 -0.1060 -0.0339 -0.4525
 7327W        W27607  12.851   8.481  14.139 -0.1093 -0.0078  0.1010
 7328W        W27608   0.418  10.284  14.514  0.1590  0.0939 -0.1614
 7329W        W27609  17.953  11.127   3.877 -0.1354 -0.1016 -0.0988
 7330W        W27610  10.516  15.941  13.127 -0.0368 -0.1525  0.3667
 7331W        W27611   4.928   1.835  14.013  0.1345  0.1574 -0.0393
 7332W        W27612   5.102   9.153  12.158 -0.0171  0.3404 -0.0471
 7333W        W27613  12.621   3.037  13.151 -0.0563 -0.0940 -0.1149
 7334W        W27614  16.589   9.609   2.374  0.2933 -0.1547  0.0960
 7335W        W27615  14.392   2.594  12.763  0.1227 -0.1893  0.0489
 7336W        W27616   0.457   3.753  14.531 -0.0862 -0.0619 -0.0525
 7337W        W27617   3.419   6.686   2.056 -0.0772 -0.4314 -0.2395
 7338W        W27618   9.745  15.490   0.078  0.1682 -0.0390  0.3439
 7339W        W27619  15.991   2.954  14.995  0.2359 -0.0100  0.0909
 7340W        W27620  12.569  17.831  14.920 -0.2049 -0.0128 -0.4612
 7341W        W27621   9.156   9.523   3.931 -0.1187 -0.2562  0.3011
 7342W        W27622   5.929   1.815  14.840  0.2863 -0.2498  0.0798
 7343W        W27623  10.359   1.198  14.188  0.0328 -0.4573 -0.1028
 7344W        W27624   4.454   8.665  14.548 -0.0013 -0.2280  0.2041
 7345W        W27625  11.285   2.083  11.656 -0.0263 -0.2715 -0.0396
 7346W        W27626   8.718  11.311   0.185  0.4104 -0.3630  0.0160
 7347W        W27627   7.499   3.952   1.375  0.0018  0.1589  0.0616
 7348W        W27628  16.432   7.723  12.291 -0.2429 -0.2205  0.3151
 7349W        W27629  15.167  12.998   4.163  0.0241 -0.0545  0.1454
 7350W        W27630  13.168   2.178   3.256 -0.1679 -0.2526  0.0659
 7351W        W27631   5.370   9.196   0.896  0.1002  0.2917 -0.1025
 7352W        W27632  17.527   8.914   2.615  0.0525  0.0869 -0.1230
 7353W        W27633   7.872  15.792   1.176 -0.0622  0.2669  0.3662
 7354W        W27634  14.071   9.129  14.667 -0.1951  0.0610  0.1137
 7355W        W27635   9.773  17.106  12.924 -0.2949 -0.0471  0.0398
 7356W        W27636  16.415   6.733  14.859 -0.0161 -0.2772 -0.1294
 7357W        W27637  12.573   4.386   3.845  0.1892 -0.2449  0.1900
 7358W        W27638   7.679   5.836  14.204  0.0291  0.1244 -0.1324
 7359W        W27639  12.375  12.725  12.960  0.1293  0.1457  0.1397
 7360W        W27640  14.121  17.159  15.815 -0.1478 -0.2476 -0.0315
 7361W        W27641  11.184   1.554   3.857  0.0150  0.1752 -0.3671
 7362W        W27642  15.142   6.037   2.015  0.1423  0.0404  0.0173
 7363W        W27643  15.201   9.424   2.656 -0.0776  0.0154  0.1224
 7364W        W27644   0.674   3.274  12.427 -0.2917  0.1602 -0.3454
 7365W        W27645  16.502   4.301  12.180  0.0271 -0.1253 -0.1217
 7366W        W27646   9.296  16.486  11.550 -0.1056 -0.0430 -0.3067
 7367W        W27647   3.229   1.438  14.508  0.0043  0.1547  0.0287
 7368W        W27648  16.138   8.444   5.850 -0.1359  0.1066 -0.1363
 7369W        W27649  13.859  13.095  11.017 -0.3257 -0.0543 -0.2618
 7370W        W27650  17.713   5.396   1.269  0.2704  0.0014 -0.1213
 7371W        W27651  11.825   6.960   2.541  0.1661 -0.1758  0.1687
 7372W        W27652  16.619   6.820  11.970 -0.0178  0.0936  0.0235
 7373W        W27653  10.938   0.125  12.589  0.1127 -0.0511  0.0148
 7374W        W27654   0.940  13.301  11.582  0.3255 -0.0156 -0.0108
 7375W        W27655   9.915   3.174   2.539  0.2571 -0.2743  0.0510
 7376W        W27656   3.215   7.597   1.592  0.0402 -0.0477  0.0240
 7377W        W27657   6.626   5.255   4.497  0.0314  0.1779 -0.2022
 7378W        W27658   3.960  11.974  12.014 -0.1479  0.0668  0.0043
 7379W        W27659   5.750   0.172  11.195 -0.1488  0.0132 -0.3693
 7380W        W27660   6.519   3.885   0.007 -0.1095  0.0517 -0.2745
 7381W        W27661   6.995   4.699  12.266  0.3652  0.1715 -0.1438
 7382W        W27662   8.458  16.284  14.730 -0.1408 -0.1001 -0.1049
 7383W        W27663  10.051   5.645   2.205  0.2310  0.0417 -0.4323
 7384W        W27664   7.229   0.903   1.022  0.2163  0.1250  0.0166
 7385W        W27665   9.796  12.086   4.417 -0.1121 -0.0084  0.0344
 7386W        W27666  10.204  16.060  15.477  0.0556 -0.2555  0.1988
 7387W        W27667   5.450  10.103  12.834  0.0952 -0.0633  0.2419
 7388W        W27668  17.664  13.270   0.131  0.0295 -0.0775  0.0176
 7389W        W27669   4.911   6.489  13.743 -0.1170  0.0970 -0.1607
 7390W        W27670  16.267   2.461  11.915  0.2049  0.1858  0.0970
 7391W        W27671  12.396  17.449   1.031  0.2640 -0.1311  0.2177
 7392W        W27672  13.642  11.174  10.365 -0.1505 -0.0391 -0.0585
 7393W        W27673   6.923  18.279  13.609  0.0791  0.0440 -0.0563
 7394W        W27674  10.384   0.012   0.572 -0.0685  0.0260  0.0816
 7395W        W27675  14.094  15.134   1.115 -0.1503  0.1259 -0.2096
 7396W        W27676  13.182   5.127  14.229 -0.2765  0.0979  0.1191
 7397W        W27677   6.802   0.926   3.788 -0.0584 -0.0590 -0.2072
 7398W        W27678   3.726   5.676  10.680  0.2058 -0.2809  0.1434
 7399W        W27679  16.763  12.684  15.496 -0.1578 -0.1405 -0.1333
 7400W        W27680  12.617   1.345  11.486 -0.0779  0.0209 -0.0212
 7401W        W27681  17.756   3.087   4.677  0.0142  0.0428 -0.0021
 7402W        W27682  12.384   1.617  14.221  0.1768 -0.0911 -0.2019
 7403W        W27683  18.120   0.650  11.228 -0.1560  0.4144 -0.1322
 7404W        W27684   0.036  11.181   2.308  0.2054 -0.0466 -0.0525
 7405W        W27685   9.049   5.024  15.044 -0.1507  0.0651  0.3118
 7406W        W27686   7.734   7.634   0.987  0.0500 -0.0202 -0.0143
 7407W        W27687   4.403  16.966  13.913 -0.0225 -0.1130 -0.1177
 7408W        W27688  10.421  18.282  14.051 -0.1818  0.0523 -0.2014
 7409W        W27689  17.580   9.229   3.987  0.1555 -0.1386 -0.0823
 7410W        W27690   8.718  17.374   4.215 -0.0249  0.2532  0.0932
 7411W        W27691   6.937   2.638  15.675 -0.2116  0.0493 -0.1196
 7412W        W27692   4.868   3.273  14.630 -0.1864  0.0357  0.2690
 7413W        W27693   7.916   9.801  13.199  0.1372 -0.2783  0.2073
 7414W        W27694   5.132  15.878   3.290  0.2500 -0.0378  0.0985
 7415W        W27695  14.857  17.895   0.686  0.0951 -0.1272 -0.0007
 7416W        W27696   5.870   1.723   0.450  0.1241  0.0984  0.1004
 7417W        W27697   3.533   1.724   1.851  0.1997  0.2211 -0.1114
 7418W        W27698  12.084   5.322   4.329 -0.0758  0.0492 -0.0176
 7419W        W27699  13.383   9.277   4.960  0.0122  0.1689 -0.0410
 7420W        W27700  10.134  18.318   0.038  0.0089  0.2566 -0.0674
 7421W        W27701  14.824   5.058  12.847 -0.0647 -0.4602 -0.0726
 7422W        W27702  10.537   3.914   1.798 -0.1884 -0.0277  0.1319
 7423W        W27703   9.685   6.311   2.903 -0.1518  0.0616 -0.0461
 7424W        W27704   9.934  17.374  15.728  0.0329  0.1100  0.0843
 7425W        W27705   8.177   8.579   1.507  0.2069 -0.0672 -0.0756
 7426W        W27706  10.713   3.916  13.510 -0.1699 -0.0762 -0.0467
 7427W        W27707  17.766   3.218  11.965 -0.1351 -0.0753 -0.0271
 7428W        W27708  12.640   9.597  11.353  0.1938  0.1238 -0.2312
 7429W        W27709  15.906  15.557   2.888  0.1283 -0.0959 -0.0313
 7430W        W27710   9.676  12.450   0.595 -0.3731 -0.2619  0.0837
 7431W        W27711   3.077  10.484  13.890  0.0044 -0.0659 -0.0716
 7432W        W27712   9.124   3.487  11.565 -0.2283 -0.0760  0.1969
 7433W        W27713  10.809  17.083  13.697  0.0680  0.1563 -0.0328
 7434W        W27714   1.812  11.258  14.968 -0.0428 -0.0896 -0.1840
 7435W        W27715   2.651  14.463   2.309 -0.2033 -0.0172  0.1748
 7436W        W27716  16.464  18.136   2.471 -0.2764  0.2618  0.0559
 7437W        W27717  16.483  17.970   1.508  0.0489 -0.1189 -0.0238
 7438W        W27718   9.198   7.850  14.367 -0.1364 -0.0695 -0.1725
 7439W        W27719  17.037   2.908   4.136 -0.3128  0.1502  0.1537
 7440W        W27720  16.759   2.069   3.542 -0.0304 -0.1014  0.3457
 7441W        W27721   6.664  14.414  15.430  0.3333  0.0331  0.0948
 7442W        W27722   5.609   6.960  12.606 -0.2686 -0.0390  0.1887
 7443W        W27723  14.828   5.945  14.298  0.3996  0.1205  0.0896
 7444W        W27724   2.086  12.444   1.086  0.0194 -0.0210 -0.0924
 7445W        W27725   0.879   3.138   0.258 -0.1640  0.0352 -0.2416
 7446W        W27726   5.689  18.313  15.846  0.1607 -0.2027  0.2903
 7447W        W27727   4.030  17.291   1.426  0.1237 -0.0851 -0.2330
 7448W        W27728   6.846  10.737  11.969 -0.2503  0.2430 -0.4418
 7449W        W27729   2.398  12.541   0.501  0.4403 -0.0445 -0.0929
 7450W        W27730   4.310   3.706   1.150  0.1845  0.0970  0.2539
 7451W        W27731  11.215   4.442   0.675  0.0375  0.1165  0.1346
 7452W        W27732  16.808  11.804   4.181 -0.1217 -0.0597 -0.2347
 7453W        W27733   8.773   9.151   3.948  0.1014  0.2823  0.1163
 7454W        W27734  10.453  11.851   3.355  0.0434  0.0332 -0.0082
 7455W        W27735  11.963  15.392   3.078 -0.2726 -0.0210  0.1149
 7456W        W27736   2.949  15.976   1.687 -0.1263 -0.0081 -0.2364
 7457W        W27737   7.820   4.390   1.074 -0.1384 -0.1635 -0.0170
 7458W        W27738   7.388   9.755  12.825 -0.0402 -0.0443  0.0439
 7459W        W27739   7.902  13.745  12.485 -0.0577  0.1387  0.1544
 7460W        W27740   4.440   8.251   2.063  0.2103 -0.0233 -0.3658
 7461W        W27741  16.210  14.396   4.476 -0.0031  0.1749 -0.0360
 7462W        W27742  14.855  15.785  12.024 -0.1298 -0.1612  0.1202
 7463W        W27743   4.956   2.018  14.504  0.0189 -0.0862 -0.0831
 7464W        W27744  10.926  10.613   1.763 -0.1702 -0.1454  0.1983
 7465W        W27745  12.911  12.431  14.996 -0.0904 -0.2353  0.0731
 7466W        W27746   5.878   4.250   4.814  0.2321 -0.0833  0.0011
 7467W        W27747  17.900  17.249   1.864  0.0177 -0.1922  0.2640
 7468W        W27748   6.452   7.914  12.799  0.0122  0.2378 -0.1661
 7469W        W27749   2.842   5.678  12.866 -0.0463  0.1038 -0.0997
 7470W        W27750  12.171   3.345  12.460  0.0087 -0.1502 -0.1441
 7471W        W27751   4.348  12.167   3.038 -0.1451  0.0789  0.0572
 7472W        W27752   6.797  18.194  11.192  0.3182  0.3345 -0.2769
 7473W        W27753   0.406   5.735   4.104 -0.2488 -0.0495  0.2010
 7474W        W27754   4.852   0.320  13.860 -0.0021  0.2701  0.0092
 7475W        W27755  14.847   5.928  12.335  0.4456 -0.0433  0.1268
 7476W        W27756  13.817  13.041  14.249 -0.0989  0.0443  0.3921
 7477W        W27757   0.028   3.288  15.500  0.2898  0.0736  0.0224
 7478W        W27758  14.402   7.368  15.336 -0.1407 -0.2739  0.0568
 7479W        W27759   6.735   8.733  11.960 -0.0241  0.3049 -0.2671
 7480W        W27760  17.647   5.851   1.043 -0.1053  0.0470  0.0822
 7481W        W27761   6.369   9.347  15.532  0.2794 -0.2053  0.0832
 7482W        W27762   4.569  13.345  15.293 -0.0880  0.0704 -0.0930
 7483W        W27763  14.618   4.885  15.929  0.1071  0.1292  0.0730
 7484W        W27764  11.363  11.656   2.382 -0.0553  0.1060 -0.0001
 7485W        W27765   3.417  10.621   0.611  0.0073  0.0153  0.0298
 7486W        W27766   8.371   3.532   3.522 -0.1212  0.1481  0.1878
 7487W        W27767   3.131   4.048  14.622  0.0626 -0.4823 -0.1575
 7488W        W27768   7.386   6.006  13.425  0.1174 -0.0589  0.0530
 7489W        W27769   4.038   5.535   1.902 -0.0436 -0.0224  0.1134
 7490W        W27770  12.124  16.498  15.565 -0.1056 -0.0018 -0.4547
 7491W        W27771  16.547   2.902   3.390  0.1661  0.0369  0.1186
 7492W        W27772  15.459   8.136  12.367 -0.1289 -0.1935  0.0980
 7493W        W27773  15.305   2.444  13.479 -0.0762  0.2380  0.1859
 7494W        W27774   3.305   3.548   0.374  0.3589 -0.1075  0.1158
 7495W        W27775   2.120  15.694   4.309 -0.0318  0.0299  0.0569
 7496W        W27776   0.635   3.490   1.816 -0.2148  0.0682  0.1450
 7497W        W27777   4.956  12.574  12.612 -0.1629 -0.2133  0.3393
 7498W        W27778   5.720   8.840   0.998  0.2623  0.1633 -0.2819
 7499W        W27779   1.422   6.708  14.557 -0.0935  0.0365  0.2165
 7500W        W27780  11.113  10.801   0.830  0.0859  0.2206 -0.0048
 7501W        W27781  16.509   5.562  12.260  0.4155  0.1828  0.1743
 7502W        W27782  16.437  16.654   4.377 -0.1573 -0.1245 -0.1492
 7503W        W27783  13.055   2.019   2.814 -0.0598 -0.1734  0.0210
 7504W        W27784  16.912   8.378   3.597  0.1161  0.0816  0.3627
 7505W        W27785  16.294   2.025   2.752 -0.0409  0.0797  0.2436
 7506W        W27786   5.422   2.685  13.906 -0.0151  0.3190  0.0481
 7507W        W27787   0.653  10.476   2.221 -0.0608 -0.2387 -0.1229
 7508W        W27788  15.091   2.738   4.015  0.1076 -0.2172 -0.2483
 7509W        W27789   0.773  11.623   5.229  0.0221  0.1713  0.0569
 7510W        W27790  17.914   8.590   1.230  0.0510 -0.3267  0.0354
 7511W        W27791   8.382   4.359   2.956 -0.1022  0.2419  0.3128
 7512W        W27792   5.122  17.374   2.919 -0.0174 -0.4499  0.0832
 7513W        W27793  10.134   1.019   3.347 -0.3942  0.0790 -0.2501
 7514W        W27794   6.109   6.664  14.281 -0.2396 -0.2652  0.2013
 7515W        W27795  14.802   2.054  11.638 -0.0239  0.0626 -0.0107
 7516W        W27796  16.241  12.115  14.898 -0.0884 -0.0224  0.0513
 7517W        W27797  10.984  15.101   1.860 -0.1575  0.1189  0.3752
 7518W        W27798  11.029  15.408   4.534 -0.1144 -0.1478  0.0986
 7519W        W27799   2.932   6.680  15.500 -0.1812  0.1631 -0.1706
 7520W        W27800   1.401   1.851   1.614  0.0136  0.3142 -0.0820
 7521W        W27801   3.478   3.597  14.587 -0.0947 -0.2250  0.1295
 7522W        W27802   3.879  10.307  15.328 -0.2744 -0.1424  0.5135
 7523W        W27803   6.470   4.768   4.402  0.0287 -0.0586  0.0553
 7524W        W27804  16.457  15.382  14.077  0.0904 -0.1844 -0.0438
 7525W        W27805  12.957  13.868  14.775  0.0892 -0.0239  0.1736
 7526W        W27806   2.081  11.981  14.747  0.2661 -0.3205  0.1854
 7527W        W27807   2.730  18.188   0.505 -0.1508 -0.2449 -0.0642
 7528W        W27808   4.533  17.164   2.004 -0.1888  0.2340 -0.0007
 7529W        W27809  13.160  13.908   1.070  0.1799 -0.0499 -0.1329
 7530W        W27810   9.948  17.451  14.253  0.0753  0.4007 -0.1865
 7531W        W27811   4.455  12.012  11.285 -0.0240 -0.1404 -0.1962
 7532W        W27812  12.016  15.304  12.624 -0.2654  0.2248  0.0790
 7533W        W27813   3.069  16.739  12.788  0.0265  0.0095 -0.0991
 7534W        W27814   0.848  12.097   1.970  0.1140  0.0923 -0.2045
 7535W        W27815  17.634  13.557  12.081  0.1781 -0.2602  0.0222
 7536W        W27816   4.754   9.622   4.849  0.0419 -0.3235  0.2510
 7537W        W27817  11.037   7.691   1.262  0.2859  0.0377  0.1691
 7538W        W27818   5.881   4.880  12.016 -0.0406 -0.2136 -0.0242
 7539W        W27819   3.968   5.440   1.412  0.0157  0.0665  0.0757
 7540W        W27820  15.463  10.920  15.932 -0.0322 -0.0320 -0.2963
 7541W        W27821  12.831   1.039  14.137 -0.2028 -0.1218 -0.0458
 7542W        W27822   9.702   8.449  15.871  0.0677  0.0986  0.0827
 7543W        W27823   0.387   5.242  15.544  0.0028 -0.1758  0.3781
 7544W        W27824   6.447  14.206  14.906 -0.3294 -0.1002  0.0762
 7545W        W27825  13.281  14.166   3.632  0.0505  0.1303 -0.2047
 7546W        W27826  16.852   5.224  15.184  0.0999  0.1166 -0.3210
 7547W        W27827   6.709  11.272  14.147 -0.0354  0.1150  0.1601
 7548W        W27828  12.543   4.456  12.954  0.0677 -0.0202  0.0849
 7549W        W27829   7.898   0.870  13.121  0.0511 -0.2307  0.1901
 7550W        W27830  12.953  16.387   3.275 -0.0247  0.1076 -0.2409
 7551W        W27831   1.146  12.018  15.668  0.0387  0.1169  0.0683
 7552W        W27832   3.735  11.639   1.600 -0.2334 -0.1869 -0.1633
 7553W        W27833  13.615   8.342  13.136  0.0192  0.0433 -0.1809
 7554W        W27834   1.983  16.164  15.486  0.1099  0.0488  0.1768
 7555W        W27835   6.055   5.649   3.123 -0.1635  0.0534  0.1427
 7556W        W27836   6.779  15.743   0.320  0.0827  0.2853  0.2267
 7557W        W27837  14.556  11.830  12.363  0.0826 -0.0018 -0.0365
 7558W        W27838  12.677   5.135   3.576 -0.2931 -0.1993  0.1123
 7559W        W27839  16.021  16.869  15.550 -0.5082  0.2850  0.1234
 7560W        W27840   1.371  11.143   4.254  0.1363 -0.2358 -0.0688
 7561W        W27841  12.459  13.937   0.306 -0.0627  0.1125  0.1172
 7562W        W27842   8.819   0.808  10.358 -0.0434 -0.2754  0.0520
 7563W        W27843  16.257   8.315   3.369 -0.2009  0.1127  0.2071
 7564W        W27844  17.697  11.831  15.341 -0.0833  0.3465 -0.3080
 7565W        W27845   3.544   9.993  11.468 -0.1746 -0.0746  0.1940
 7566W        W27846   7.540   4.771  14.895 -0.0583  0.0574 -0.0247
 7567W        W27847   5.413  16.434  14.641 -0.0516 -0.3906 -0.1071
 7568W        W27848  17.604  14.913  15.702  0.0125 -0.0531  0.0601
 7569W        W27849  17.763  10.718  12.901 -0.4705  0.1211 -0.0054
 7570W        W27850   0.545   0.426  11.572 -0.0816 -0.1281 -0.0683
 7571W        W27851   2.999   5.870  15.601  0.0819 -0.0728 -0.0556
 7572W        W27852   9.523  12.224  13.884 -0.0966  0.1298 -0.0852
 7573W        W27853   8.367  17.583  13.178 -0.0182  0.0121  0.0372
 7574W        W27854  12.258   0.679   1.284  0.1271  0.1761  0.4308
 7575W        W27855   9.375  17.256   0.532 -0.2764 -0.1368  0.0337
 7576W        W27856  14.693  16.176  12.362 -0.0400  0.0401  0.0196
 7577W        W27857   0.709   2.744   2.432 -0.0970 -0.1556  0.1652
 7578W        W27858   0.247   3.338  13.232  0.0416  0.1864 -0.1577
 7579W        W27859   1.074  16.112  14.470  0.2027  0.0580 -0.1510
 7580W        W27860   8.049   7.621  15.377  0.2752 -0.1062 -0.1239
 7581W        W27861  16.232  16.867  11.969 -0.2105 -0.1641 -0.3370
 7582W        W27862  17.782   4.493  13.001 -0.3511  0.1686  0.1035
 7583W        W27863   0.015  14.113  12.363  0.1756 -0.0452  0.1607
 7584W        W27864   3.710  14.019   1.840 -0.1053 -0.2172  0.3093
 7585W        W27865   7.967   0.279  11.893 -0.1617 -0.2072  0.3166
 7586W        W27866   6.513   0.116  12.109 -0.0922  0.3724 -0.2295
 7587W        W27867  13.737  10.880  13.280  0.1079  0.1779 -0.0857
 7588W        W27868  14.190   9.898   2.867 -0.1647 -0.1936 -0.0904
 7589W        W27869   7.208  18.001   3.152 -0.1632  0.1486 -0.0573
 7590W        W27870  15.248  18.019   2.784 -0.0916  0.0782 -0.0515
 7591W        W27871   9.323   2.242  11.719  0.2410 -0.1786  0.2284
 7592W        W27872  14.519  11.335  11.475 -0.0614  0.0923  0.1279
 7593W        W27873  13.857  14.108  15.260 -0.0275  0.0877 -0.3116
 7594W        W27874   7.634  16.635   3.117  0.1654 -0.0734 -0.0570
 7595W        W27875   7.956   5.319  14.360 -0.0919  0.1182 -0.3263
 7596W        W27876   4.754   7.727   2.626 -0.1880  0.1705 -0.0760
 7597W        W27877  12.124  11.641   0.265 -0.1361  0.0266  0.2351
 7598W        W27878   7.615   1.215  14.796  0.0384  0.1866  0.2198
 7599W        W27879  15.062  15.312  13.934 -0.2406 -0.1308 -0.0399
 7600W        W27880  16.969   8.204  15.623 -0.1455  0.1785 -0.2437
 7601W        W27881  11.920   0.791   2.931 -0.3010  0.1096  0.2498
 7602W        W27882  12.186  14.953   4.789  0.1598 -0.1008  0.1915
 7603W        W27883   8.437   6.023   1.979  0.0826  0.1763  0.4278
 7604W        W27884   1.478   1.798   3.997 -0.4516 -0.0647  0.1729
 7605W        W27885  10.565  14.683  12.972  0.2012 -0.2522 -0.4617
 7606W        W27886   7.916   8.676   1.054 -0.0383  0.3121 -0.1669
 7607W        W27887   8.257   3.472  14.898  0.1838  0.1069 -0.2257
 7608W        W27888  16.808   4.436   2.155 -0.2891 -0.2849 -0.0276
 7609W        W27889  13.994   9.128  13.260  0.2422 -0.0318 -0.1164
 7610W        W27890   3.799   2.778  15.869 -0.0669  0.1300 -0.0334
 7611W        W27891  11.932  10.425  10.711  0.2714 -0.0715 -0.2315
 7612W        W27892   6.576   3.472  12.711  0.0951 -0.1692  0.4196
 7613W        W27893   6.663   2.182  14.536 -0.1466 -0.2251  0.0424
 7614W        W27894  10.634   4.246  13.077 -0.1365  0.1222 -0.0171
 7615W        W27895  12.576   5.576   0.751  0.3819  0.0194 -0.2639
 7616W        W27896   2.308  12.403   3.609  0.3073 -0.0391 -0.1549
 7617W        W27897   4.802   6.507  12.735 -0.3638  0.0218 -0.0766
 7618W        W27898  16.286  14.249  12.099  0.1486  0.0809 -0.4745
 7619W        W27899   0.162   1.603  15.801  0.0251  0.2117 -0.3293
 7620W        W27900  10.537   5.804   0.856  0.0218 -0.0748 -0.1919
 7621W        W27901   9.964  12.677  12.388  0.0472 -0.0201 -0.1029
 7622W        W27902   7.602   5.575  15.152  0.2223  0.2419  0.3098
 7623W        W27903   0.914  13.451  15.360 -0.3159 -0.1951  0.0031
 7624W        W27904   3.732   9.906   3.576 -0.0420  0.0060  0.1888
 7625W        W27905   0.555   0.687   0.193  0.0163 -0.1029  0.1284
 7626W        W27906   8.652  12.919  12.906 -0.0950 -0.2031  0.0942
 7627W        W27907  17.420   8.713  12.589  0.1162 -0.0530  0.0204
 7628W        W27908  18.247  17.706   0.134 -0.0470 -0.0558 -0.1408
 7629W        W27909  12.624   4.446  14.825 -0.0028  0.1698 -0.3129
 7630W        W27910  10.820  13.726  11.960 -0.0094  0.0113  0.0319
 7631W        W27911  16.389  14.919  13.125  0.0012 -0.0494  0.0708
 7632W        W27912  12.017   8.834   0.358 -0.1817 -0.2035 -0.0629
 7633W        W27913   3.502  11.678  12.964 -0.0713  0.3720  0.1267
 7634W        W27914   7.247  10.450   4.633  0.1557  0.2199  0.2434
 7635W        W27915   5.772   0.903  13.582 -0.1238  0.0907 -0.1021
 7636W        W27916  10.269   5.323   0.136 -0.0795 -0.0061  0.2067
 7637W        W27917   3.172   0.395   2.600  0.0448  0.2156 -0.0535
 7638W        W27918   9.385   1.746   2.285  0.0703  0.2525  0.1814
 7639W        W27919   7.059  17.373   1.207  0.1193 -0.3816  0.0762
 7640W        W27920  10.458   2.098  11.212 -0.2948 -0.1221 -0.1798
 7641W        W27921  17.725  11.562  11.202  0.0238  0.2031 -0.2750
 7642W        W27922  12.618   7.105  13.893  0.0667  0.1409 -0.2175
 7643W        W27923  16.854   2.897   0.469 -0.1357 -0.2646  0.2545
 7644W        W27924   7.660  14.879   0.523 -0.1300  0.1330 -0.0190
 7645W        W27925  12.886   7.039   4.156  0.1810  0.0401 -0.0934
 7646W        W27926  12.047   4.241  12.926  0.0283 -0.0529  0.1910
 7647W        W27927   2.602  17.411   2.653 -0.1901  0.1452 -0.2828
 7648W        W27928  15.023   0.310   5.453  0.2899  0.2968 -0.0808
 7649W        W27929  10.848   0.434  11.233 -0.0219  0.2484  0.2167
 7650W        W27930  14.347  12.680   1.684 -0.1436 -0.0493 -0.1322
 7651W        W27931   0.635   1.345   0.049  0.0013 -0.0190  0.1054
 7652W        W27932   2.209  11.889   1.154  0.0049  0.2703 -0.0659
 7653W        W27933   4.508   8.989   0.433 -0.3664 -0.1855  0.0824
 7654W        W27934  10.252  17.998  12.337  0.3449 -0.0368 -0.1898
 7655W        W27935   2.999   9.295  11.712  0.0715  0.4065 -0.2062
 7656W        W27936  10.271  16.367  11.885  0.1001  0.1684  0.1070
 7657W        W27937  15.449  12.591   1.962  0.0918 -0.0456  0.0752
 7658W        W27938   2.752  16.512   4.278 -0.0315  0.0978  0.0546
 7659W        W27939  14.270  13.487  13.521  0.1368  0.1720 -0.0377
 7660W        W27940  14.623   1.332  12.805 -0.2475  0.2309  0.2149
 7661W        W27941   9.617  10.399  13.412  0.0465  0.1056  0.2989
 7662W        W27942   7.264   4.596  13.629  0.3259 -0.1515 -0.1250
 7663W        W27943   7.561  11.501  13.000 -0.1031  0.1458 -0.0317
 7664W        W27944  10.294  10.843  14.036  0.0928  0.0331 -0.2957
 7665W        W27945   3.904   6.159   4.364 -0.0687  0.1165 -0.1268
 7666W        W27946  10.109   8.409   1.585 -0.0928 -0.1222  0.0937
 7667W        W27947   2.361   2.020   2.928  0.1173 -0.0443  0.0375
 7668W        W27948  16.769   4.731   0.722  0.0905  0.1156 -0.1804
 7669W        W27949   9.298  15.563  12.035  0.2258  0.0700  0.2283
 7670W        W27950  15.986   6.459   3.780  0.3058  0.0911 -0.0229
 7671W        W27951  13.126  16.400   0.342 -0.0740  0.0252  0.0290
 7672W        W27952   7.746   3.930  15.186 -0.0485 -0.0381 -0.0425
 7673W        W27953   3.591   9.475  11.337  0.0071  0.3765  0.1787
 7674W        W27954   0.280  12.946   2.748 -0.0257 -0.0040 -0.0306
 7675W        W27955   9.953   1.609  12.036  0.0381  0.0023  0.2295
 7676W        W27956   6.542  11.246   0.371  0.0905  0.0412 -0.2732
 7677W        W27957  10.657  11.309  13.423 -0.0993  0.0682  0.1418
 7678W        W27958   8.663  14.067  14.654  0.0727  0.2605  0.3365
 7679W        W27959  16.547   3.576   2.473  0.4314  0.0166 -0.2926
 7680W        W27960  17.808   9.647  14.566  0.0013  0.2251 -0.1083
 7681W        W27961  13.527   2.117  11.517  0.4253 -0.0038 -0.0509
 7682W        W27962   5.549  16.305  15.134 -0.0638 -0.1289 -0.0378
 7683W        W27963   8.692   6.408  12.587  0.0026 -0.0422 -0.1615
 7684W        W27964  13.253   3.901   0.116 -0.3561  0.1240 -0.0239
 7685W        W27965  16.758  14.520  12.094  0.1579  0.1261  0.0757
 7686W        W27966   5.313   5.735  13.192  0.1013 -0.0863  0.2694
 7687W        W27967  10.569  13.093   4.131  0.2977  0.1545  0.2151
 7688W        W27968   3.036  16.043   0.847  0.2102 -0.0278 -0.2189
 7689W        W27969  10.354   4.681  13.153 -0.1805 -0.2024 -0.3259
 7690W        W27970   0.760  17.691  12.952 -0.0689  0.2839  0.1726
 7691W        W27971  16.670  15.440   0.192  0.1252  0.0693  0.2593
 7692W        W27972  10.375   6.444  13.850 -0.0384 -0.0758 -0.1076
 7693W        W27973   4.819   5.246   4.357 -0.0001  0.3801 -0.4770
 7694W        W27974  14.972  14.640  13.049 -0.3253  0.1798 -0.0776
 7695W        W27975  13.355   8.408  12.577  0.0155 -0.1001 -0.2956
 7696W        W27976  13.560  12.730  11.702  0.1881 -0.0565 -0.1438
 7697W        W27977   0.305   7.900   3.381  0.0183 -0.0525 -0.0681
 7698W        W27978   2.577  12.145  12.124 -0.0498 -0.0465  0.2541
 7699W        W27979   3.573   5.439   3.780 -0.3460  0.2901 -0.1904
 7700W        W27980   0.878   7.109  14.391  0.0622  0.2996  0.0779
 7701W        W27981  10.229   2.875  12.667  0.0222 -0.2143  0.2586
 7702W        W27982   0.648  15.689  15.028 -0.2241 -0.1475  0.0101
 7703W        W27983  12.235  15.604   1.784 -0.1432 -0.1308 -0.0014
 7704W        W27984  15.313   1.403  11.196 -0.0806 -0.1408  0.3511
 7705W        W27985   0.371   2.890  13.483  0.1161  0.2726 -0.1565
 7706W        W27986   7.242  11.337   1.591  0.4912  0.2014  0.2273
 7707W        W27987   8.945   1.025   0.366  0.0769  0.2795  0.0859
 7708W        W27988   8.511  18.171   0.889  0.0139 -0.1371  0.1270
 7709W        W27989  17.323  12.404   0.343 -0.0464 -0.4258 -0.0915
 7710W        W27990   8.128   0.369   2.918 -0.0416 -0.2484  0.1557
 7711W        W27991  11.484  13.150  15.749 -0.1456  0.0404  0.0610
 7712W        W27992  15.714   3.959   3.741 -0.1192  0.0922 -0.1092
 7713W        W27993  11.590   7.657  11.864 -0.1265  0.2849  0.0392
 7714W        W27994   7.194  13.110  15.480  0.0088  0.2881  0.0931
 7715W        W27995   4.979   8.968   3.527  0.0634 -0.0522 -0.1883
 7716W        W27996   4.345  10.320  13.038 -0.0227  0.1102 -0.0328
 7717W        W27997   8.426  13.068   3.747 -0.0938 -0.1745  0.1091
 7718W        W27998   6.596   6.971   1.674 -0.0858  0.0239  0.2044
 7719W        W27999  12.198   3.199   0.546  0.1474 -0.0616  0.1778
 7720W        W28000  11.491   5.705   2.180  0.4513  0.0652  0.2699
 7721W        W28001   4.954   9.731   0.127  0.0144  0.0176 -0.1355
 7722W        W28002  10.093  12.516   4.489  0.0666  0.1018 -0.0405
 7723W        W28003  10.327   1.182  11.794 -0.1979 -0.0024  0.0505
 7724W        W28004   8.224  12.521  15.288 -0.0876  0.1044 -0.0180
 7725W        W28005   2.587   0.273  14.120  0.0791 -0.2151  0.0640
 7726W        W28006  15.968  14.316  15.605  0.0548  0.2043 -0.0310
 7727W        W28007   9.968   0.525  11.418 -0.2949  0.0214  0.0811
 7728W        W28008   2.780   1.091  11.545  0.2635 -0.0359  0.0267
 7729W        W28009  11.998   7.962   1.467 -0.0268 -0.2820 -0.2292
 7730W        W28010  17.934  11.952   3.210 -0.0402 -0.0418  0.0682
 7731W        W28011  17.339  13.270  11.748 -0.0069 -0.2079 -0.0297
 7732W        W28012   4.708  13.378   1.113 -0.2365  0.0761 -0.0563
 7733W        W28013  16.388  13.559   1.337 -0.1245 -0.0591 -0.1461
 7734W        W28014   7.055  10.044  14.494  0.1413 -0.0842 -0.4923
 7735W        W28015  10.120  17.481   0.685  0.2749  0.3015  0.0487
 7736W        W28016   9.987   1.018  11.433 -0.0806  0.1008 -0.1671
 7737W        W28017  13.525   4.825  13.932  0.1683 -0.1044 -0.2083
 7738W        W28018   6.521   8.460   1.853  0.0267 -0.2834 -0.2645
 7739W        W28019  17.444   5.993  12.849  0.0462 -0.2341 -0.1653
 7740W        W28020  10.216   3.937  11.362  0.2830 -0.0274  0.2915
 7741W        W28021   1.496  10.754  14.016 -0.1452  0.0275  0.0235
 7742W        W28022   6.389  16.736   2.045 -0.1617  0.0934 -0.0100
 7743W        W28023  13.318   9.794   2.932  0.0403  0.0794 -0.2001
 7744W        W28024  15.892  14.723   3.790 -0.1018  0.1772  0.1537
 7745W        W28025  17.540   9.504  11.920  0.1073  0.0974  0.1301
 7746W        W28026  13.381   1.073  13.074 -0.2743  0.0716 -0.3549
 7747W        W28027  17.451   1.247   1.360 -0.3135  0.0177  0.1349
 7748W        W28028   5.961   8.045   3.937  0.2650  0.0869  0.3188
 7749W        W28029  12.354   0.093   2.314  0.0061 -0.1843  0.0114
 7750W        W28030  16.697  14.875  10.930  0.0740 -0.2431  0.2467
 7751W        W28031   7.855  17.835   2.037 -0.0687 -0.0158 -0.0856
 7752W        W28032  17.464  15.351   3.152  0.0689 -0.0514 -0.0876
 7753W        W28033  10.535   8.755   2.403  0.4311  0.1005 -0.0502
 7754W        W28034  12.636  15.935   1.569 -0.1296  0.0773 -0.1351
 7755W        W28035  10.791   3.242   3.433  0.1405 -0.0441  0.0309
 7756W        W28036  15.830  12.934  14.764  0.0288  0.2682 -0.2352
 7757W        W28037   5.869  10.022   3.106 -0.2800 -0.2202 -0.2162
 7758W        W28038   8.867  12.728   3.696 -0.0058  0.2469  0.2070
 7759W        W28039   3.909   8.532  13.360  0.2047 -0.1418 -0.0084
 7760W        W28040   7.533  11.097  11.655 -0.0012 -0.1145  0.2454
 7761W        W28041  14.893   4.597  12.616 -0.1148  0.0124  0.2095
 7762W        W28042  10.335   3.048  13.171 -0.1015  0.0095  0.1060
 7763W        W28043  14.681   7.276   4.161 -0.0654 -0.1089  0.0355
 7764W        W28044   7.938   7.300   2.904  0.1544  0.1036  0.1705
 7765W        W28045   8.548   9.264  15.488 -0.3451 -0.0204 -0.0563
 7766W        W28046   7.561  15.417  11.690  0.1346 -0.0170  0.0730
 7767W        W28047  13.971  13.125  13.512  0.0373 -0.3709 -0.2248
 7768W        W28048  12.166  13.281   3.616 -0.1388 -0.1396 -0.1581
 7769W        W28049   4.150  10.056   3.050  0.0014 -0.0054  0.0122
 7770W        W28050   0.952  17.562  12.543 -0.0147  0.0717  0.0244
 7771W        W28051   0.733  11.396   0.565 -0.2502  0.0378  0.1246
 7772W        W28052   5.101  13.631  15.418 -0.0612 -0.0711  0.1569
 7773W        W28053   6.301   5.377   3.455  0.2365 -0.3282  0.2257
 7774W        W28054   2.875  11.024   2.940 -0.0271 -0.0662  0.1384
 7775W        W28055   4.906  15.082  11.281 -0.2586 -0.0588 -0.0219
 7776W        W28056  15.643   9.196   1.162 -0.1793 -0.1054  0.0723
 7777W        W28057  10.423   6.057   3.226  0.0830 -0.2856  0.1618
 7778W        W28058   9.681   5.104  12.617 -0.2342 -0.0548  0.2305
 7779W        W28059  17.380   7.766  12.744  0.1552  0.2983 -0.1539
 7780W        W28060   7.141  10.643   2.215 -0.2424  0.2453  0.2913
 7781W        W28061   0.650  11.071   2.891 -0.0267  0.1197 -0.2320
 7782W        W28062   5.404  11.626  14.308  0.1372  0.2314 -0.1421
 7783W        W28063   4.694  16.276   0.285  0.4606  0.0485 -0.0894
 7784W        W28064   0.527  10.469   0.822 -0.3781  0.1481 -0.0987
 7785W        W28065  10.432   4.174  14.250 -0.0057 -0.0244  0.2714
 7786W        W28066   4.532  16.453   4.776  0.0266  0.1736 -0.3485
 7787W        W28067   0.536  14.576   2.041 -0.2704  0.1168 -0.2332
 7788W        W28068  14.875   1.206   2.038  0.2213  0.0998 -0.0251
 7789W        W28069   9.450   3.799   0.001 -0.1370 -0.0275  0.0273
 7790W        W28070   4.533  17.451   3.128 -0.1807 -0.3232 -0.1077
 7791W        W28071   3.992  12.752  15.444  0.0458 -0.1091 -0.1308
 7792W        W28072  16.165   0.710   0.417 -0.1572  0.1137 -0.1476
 7793W        W28073   2.254   8.943  14.287 -0.2004 -0.1965 -0.1394
 7794W        W28074  13.291   8.171   6.222  0.2220 -0.1358 -0.3020
 7795W        W28075  17.762  17.056   1.399  0.1153 -0.4871  0.3003
 7796W        W28076   3.209   3.480  15.773  0.1956  0.1517  0.0177
 7797W        W28077  12.860   0.222   4.496  0.3540  0.0900  0.1690
 7798W        W28078  13.603   6.070  11.750  0.0430  0.0071 -0.2678
 7799W        W28079  17.205  17.131  13.641 -0.2477  0.3485 -0.2250
 7800W        W28080   1.023   4.454   0.580  0.0149 -0.5077  0.0282
 7801W        W28081  11.677  18.319   2.374 -0.1615 -0.1868 -0.0221
 7802W        W28082  11.269   6.889   3.209  0.1985 -0.4231  0.2452
 7803W        W28083  10.771   5.338  15.239  0.3020  0.1044 -0.0673
 7804W        W28084  10.842  11.904  14.242 -0.3858 -0.0967  0.0426
 7805W        W28085  11.165  12.381  13.060  0.0725  0.2719 -0.0422
 7806W        W28086   6.848   5.444  14.102 -0.0371  0.1097 -0.1689
 7807W        W28087   2.902   5.609   1.112 -0.0340 -0.2471 -0.3761
 7808W        W28088   0.997   9.801  15.886  0.1331 -0.2367 -0.0303
 7809W        W28089  16.121  10.686  14.062 -0.2643  0.0006 -0.3607
 7810W        W28090  13.898  13.927  14.763  0.0648 -0.0148 -0.0323
 7811W        W28091   9.102   1.966   3.092  0.1599 -0.1656  0.1702
 7812W        W28092   7.237  12.775   3.628 -0.1026 -0.0059 -0.3884
 7813W        W28093   4.434   1.070  13.547  0.1085 -0.2127 -0.1773
 7814W        W28094   8.210  13.202  13.820  0.1161 -0.0033  0.2348
 7815W        W28095   2.803   3.654   0.037  0.0799 -0.0300  0.0220
 7816W        W28096   3.233  14.106   4.194  0.0108  0.1995 -0.3398
 7817W        W28097   7.744   7.975  12.064 -0.0221  0.0311  0.2770
 7818W        W28098   3.799  18.075  14.442 -0.1470  0.1211 -0.0801
 7819W        W28099   9.973  15.185   0.454  0.2446  0.0050  0.0446
 7820W        W28100  12.344  15.901   0.700 -0.0208 -0.4929 -0.1215
 7821W        W28101  17.801   6.867   0.396 -0.0399  0.1324 -0.1411
 7822W        W28102   2.578  11.435   0.295 -0.1976 -0.0370  0.3812
 7823W        W28103   3.899   3.992   1.413  0.3681  0.1245  0.0954
 7824W        W28104  10.243   8.085  15.115 -0.0552 -0.0816  0.0599
 7825W        W28105   7.337   9.532  13.779 -0.1362  0.1344 -0.2774
 7826W        W28106  10.071   7.312  13.807 -0.0770  0.0764 -0.0268
 7827W        W28107   7.175   5.071  13.785 -0.1416 -0.0276  0.1814
 7828W        W28108   4.373   5.605  15.442 -0.4693  0.0289 -0.1684
 7829W        W28109   5.756   6.928  13.590 -0.3188  0.0775  0.1373
 7830W        W28110  12.137   7.104  15.916  0.3902 -0.0911  0.0048
 7831W        W28111   9.089  14.269   3.927 -0.1460  0.1237 -0.0929
 7832W        W28112  15.787  13.859   0.720  0.1723 -0.0689 -0.1667
 7833W        W28113   2.243  15.563   2.340  0.1476  0.0724 -0.0224
 7834W        W28114   3.108  11.479   2.050 -0.0663  0.1083 -0.1035
 7835W        W28115   4.761   8.187  12.896 -0.0902  0.0114  0.1465
 7836W        W28116  15.948  13.595   4.345  0.0507  0.0212  0.0001
 7837W        W28117   2.659  11.927   2.812  0.1289  0.1139  0.1050
 7838W        W28118  11.923   0.262  12.183 -0.1739  0.0608 -0.0655
 7839W        W28119  16.877   2.929  15.336  0.0284  0.2469 -0.1655
 7840W        W28120  10.124  17.563  13.216 -0.2028  0.1509 -0.1968
 7841W        W28121   4.174  13.315   2.360  0.2033 -0.2936 -0.1205
 7842W        W28122   8.881  12.080  13.235  0.0849 -0.4543 -0.0083
 7843W        W28123  17.334   7.197  13.107  0.0329 -0.0377 -0.1505
 7844W        W28124   8.907   2.539  11.845 -0.1164 -0.1551  0.1342
 7845W        W28125  16.549  11.508   0.636 -0.2860 -0.0031 -0.0766
 7846W        W28126   0.965  11.951  12.038  0.0910 -0.0014  0.3668
 7847W        W28127   1.293   5.041   1.790  0.2141 -0.0665 -0.3142
 7848W        W28128  17.894  17.377   5.453 -0.3201  0.1348  0.1816
 7849W        W28129   0.350  11.957   0.070  0.1859 -0.1102  0.1255
 7850W        W28130   1.368   9.616  11.666 -0.2783  0.1118  0.0102
 7851W        W28131   9.918  15.132   3.544  0.1670 -0.0976  0.2937
 7852W        W28132   5.600   2.722  11.928 -0.2246 -0.0793 -0.1075
 7853W        W28133  13.581   4.910  11.309  0.2408 -0.1156  0.0730
 7854W        W28134  14.495   4.165  11.805  0.0838  0.0418  0.0326
 7855W        W28135   6.363   2.591   1.850  0.0147 -0.3450  0.1954
 7856W        W28136   3.126  13.777   3.082 -0.0712  0.1445  0.0112
 7857W        W28137   4.023   6.401   0.451  0.1247  0.1006  0.1332
 7858W        W28138  18.188   6.129  15.739 -0.2040 -0.1776 -0.0642
 7859W        W28139   1.668  12.187   2.611 -0.0875 -0.0144  0.1594
 7860W        W28140  17.554   2.388  11.470  0.0519  0.1159  0.0581
 7861W        W28141   1.939   2.096   3.835 -0.1549 -0.1881 -0.1640
 7862W        W28142   9.032   7.956   5.139  0.0196  0.0637 -0.0373
 7863W        W28143  11.511   7.476  13.472  0.1038  0.0314 -0.0421
 7864W        W28144   5.627   2.254  13.189 -0.2571  0.1543 -0.0039
 7865W        W28145   0.303   1.838   1.313  0.1036  0.4047  0.1947
 7866W        W28146   2.367  11.140   2.523  0.1885  0.0034  0.2349
 7867W        W28147   1.779  16.632   2.067  0.0983 -0.0493 -0.0837
 7868W        W28148  10.100   8.836  15.013  0.1180 -0.1159  0.0384
 7869W        W28149  10.871   2.126  15.873 -0.2531  0.0452 -0.1566
 7870W        W28150   9.367   3.769  13.660  0.0078 -0.2490  0.0250
 7871W        W28151  15.038  14.124   2.964 -0.2622  0.1287  0.3114
 7872W        W28152   1.654   7.207   2.068 -0.3849  0.2275 -0.2056
 7873W        W28153  12.526   1.700   0.015  0.0594  0.0005  0.2501
 7874W        W28154  12.235   4.568   1.784  0.0025 -0.1264  0.1279
 7875W        W28155  14.655  18.101  15.316 -0.3444 -0.0240  0.0936
 7876W        W28156   2.662  11.604  15.390  0.1478  0.1294  0.1375
 7877W        W28157   5.396   6.366   2.774  0.0855  0.0791  0.2147
 7878W        W28158  17.273   1.747   4.206  0.2199  0.3750 -0.0973
 7879W        W28159   1.931  17.666  12.561  0.0713  0.2910  0.0854
 7880W        W28160  13.329   3.437   1.584  0.0445 -0.1075  0.3615
 7881W        W28161  14.158  13.973  15.886 -0.0625  0.1380 -0.2733
 7882W        W28162  15.403   1.930  12.753 -0.0503 -0.2787  0.2642
 7883W        W28163   1.020   6.583  12.900  0.0327  0.1858  0.0016
 7884W        W28164  10.149  17.212   4.519 -0.3307  0.1140 -0.0593
 7885W        W28165  16.130  13.429  15.339  0.1070 -0.1179  0.0432
 7886W        W28166   0.561  15.150  15.161  0.1089  0.0088 -0.1241
 7887W        W28167   5.742  10.605   1.917 -0.2680 -0.1488 -0.1013
 7888W        W28168   5.636  15.698   3.894 -0.0471  0.0724  0.0742
 7889W        W28169   7.684  15.200  14.381  0.1045 -0.1189  0.0053
 7890W        W28170  16.636   3.432  14.948 -0.2108  0.2149  0.1268
 7891W        W28171  17.574   3.126  13.087  0.1129 -0.0167  0.1926
 7892W        W28172  12.525  11.759   2.040  0.0698  0.2413 -0.2886
 7893W        W28173   9.751   4.599  12.505 -0.1423  0.1186  0.1737
 7894W        W28174   5.701  12.968   0.388 -0.0439  0.1172  0.1003
 7895W        W28175   0.480  13.661   0.395 -0.0057 -0.1035 -0.1622
 7896W        W28176  16.125  17.634   1.216  0.2715 -0.0924 -0.2100
 7897W        W28177   4.201  11.794  12.766  0.1919 -0.1440  0.1719
 7898W        W28178   6.163   0.540  14.185 -0.5145  0.2547 -0.0501
 7899W        W28179   9.498   2.671  13.202  0.0793 -0.0755  0.0784
 7900W        W28180  13.578  11.960  15.738  0.3670  0.0387  0.0851
 7901W        W28181   5.187   0.254   2.629  0.1217 -0.0246  0.3954
 7902W        W28182  17.090  15.588   2.851  0.0150 -0.1518 -0.1135
 7903W        W28183  16.080  11.432  11.688  0.2041  0.2512  0.0200
 7904W        W28184  12.381   0.330   3.571  0.0100  0.0473  0.0067
 7905W        W28185   7.989   6.565   3.131  0.3953  0.1639 -0.2095
 7906W        W28186  15.778   0.940   4.530  0.2643  0.2289  0.0016
 7907W        W28187   2.889  16.598   2.173  0.0166 -0.0399 -0.0981
 7908W        W28188  15.340   3.398  15.524 -0.0782 -0.2881  0.0167
 7909W        W28189   0.844   1.788  14.807 -0.0067  0.0231 -0.2088
 7910W        W28190  17.967  13.438  14.376 -0.0592  0.0161  0.1098
 7911W        W28191   9.995  15.058   2.179  0.1405  0.0337 -0.1435
 7912W        W28192   2.593  13.587   2.975  0.0726  0.0751  0.2426
 7913W        W28193   4.009   4.371   0.648 -0.3055 -0.3205 -0.0915
 7914W        W28194   8.056   5.326   0.948 -0.2109 -0.3273 -0.0877
 7915W        W28195  14.547   9.778  14.776  0.0535 -0.0810 -0.3507
 7916W        W28196   6.917   6.827  14.552 -0.1924  0.1415  0.3720
 7917W        W28197  12.964  15.721  12.575  0.0572 -0.0215 -0.0032
 7918W        W28198   3.352   4.976   3.937 -0.2000 -0.1753  0.1990
 7919W        W28199   7.418   2.409   3.041  0.1538  0.0198 -0.0425
 7920W        W28200  13.366   8.816   3.474  0.0620  0.0124 -0.2532
 7921W        W28201   6.255  16.260  13.445 -0.1927  0.1895 -0.0211
 7922W        W28202   0.965   6.998   2.596  0.0634 -0.0183  0.0584
 7923W        W28203   5.371   4.054  15.850  0.3068  0.0680  0.1297
 7924W        W28204  10.132  17.355  15.285  0.0562 -0.0062  0.4062
 7925W        W28205  15.506   8.278   1.142 -0.1169  0.2039 -0.1587
 7926W        W28206  14.050   7.367   3.183  0.0845  0.0608  0.0950
 7927W        W28207  13.679  12.229  12.431 -0.1198 -0.0221  0.0153
 7928W        W28208  17.022  17.603   0.581  0.3158  0.0961  0.0521
 7929W        W28209  16.209  17.134  13.325 -0.2565  0.1890  0.4373
 7930W        W28210   6.651  16.886  12.159 -0.1199  0.1843  0.2178
 7931W        W28211   3.108   1.712   0.772 -0.0988 -0.2258 -0.0369
 7932W        W28212  14.926   2.940  13.994 -0.2324 -0.1603  0.1777
 7933W        W28213   2.889   3.152  12.807  0.0790  0.0657  0.1423
 7934W        W28214   5.527   2.829  13.088  0.0010  0.3990 -0.2142
 7935W        W28215  13.184   4.899   3.867  0.0197 -0.1210 -0.0923
 7936W        W28216  15.568  16.923   1.931  0.1062 -0.1080 -0.0875
 7937W        W28217  17.232  13.998   1.761 -0.0732 -0.3526 -0.2389
 7938W        W28218   2.390   2.388   3.655 -0.1561 -0.2223 -0.0597
 7939W        W28219   0.516   9.310   2.253  0.1621 -0.2944 -0.0864
 7940W        W28220   3.373   7.560  14.196  0.1439  0.0221 -0.0138
 7941W        W28221   1.309   4.887  15.075  0.3467 -0.3275 -0.1690
 7942W        W28222   1.244  13.322  13.228  0.3041  0.0129  0.1080
 7943W        W28223  15.074   0.321   0.476 -0.1744 -0.1248  0.2612
 7944W        W28224  15.206  16.405  11.332  0.2398  0.1139 -0.0693
 7945W        W28225   4.799  15.474   2.577 -0.0732 -0.0785  0.2868
 7946W        W28226  11.252  17.368   0.273  0.1078 -0.3384 -0.3408
 7947W        W28227   8.827  16.329  11.858  0.1635  0.1148 -0.0636
 7948W        W28228   6.411  10.845  14.485 -0.2357  0.0649 -0.1603
 7949W        W28229  13.696  14.137   2.684  0.3611  0.1240  0.2805
 7950W        W28230  15.649  12.600  11.591 -0.0952 -0.1092  0.2250
 7951W        W28231  18.153   6.478   3.877 -0.1866 -0.1983  0.0328
 7952W        W28232   9.050  12.234   1.655 -0.0733 -0.0970 -0.0156
 7953W        W28233   7.524   4.928  11.576 -0.3221 -0.2395 -0.0594
 7954W        W28234  14.360  16.972  10.823  0.2994  0.5741 -0.1679
 7955W        W28235   4.326  16.383   3.210 -0.1623  0.5055 -0.1766
 7956W        W28236  17.537   4.238   0.530  0.0099  0.0437 -0.0480
 7957W        W28237  12.258  12.000   1.095  0.3352  0.0777  0.1274
 7958W        W28238  13.184   5.932  13.341  0.0894 -0.1257 -0.1826
 7959W        W28239   6.689   5.359   5.385 -0.0817  0.1487 -0.0336
 7960W        W28240  11.113   7.396   4.921  0.3095  0.0627  0.1501
 7961W        W28241  12.157  13.262  15.181  0.2407  0.3169 -0.1040
 7962W        W28242  15.356  14.747   3.485  0.3180  0.0776  0.0954
 7963W        W28243  11.068   3.879  13.127  0.0068  0.1157  0.0557
 7964W        W28244  10.763  15.115  12.143 -0.1245  0.0385  0.0569
 7965W        W28245   6.969   6.723   1.412  0.1039  0.0556  0.1024
 7966W        W28246   7.708   1.662   1.181  0.0736 -0.0347  0.2448
 7967W        W28247   1.672   9.314  14.572 -0.1152 -0.3561 -0.1182
 7968W        W28248  14.083  10.478   3.929 -0.1661  0.1672  0.2502
 7969W        W28249  11.164   2.244  15.491  0.0103  0.5475  0.0327
 7970W        W28250   3.764  17.122  10.661 -0.1260  0.1093 -0.0324
 7971W        W28251  13.125   6.196  12.552 -0.0434  0.0868 -0.0953
 7972W        W28252   9.023   0.966  12.529 -0.2089  0.1013  0.1495
 7973W        W28253   0.420  13.319   0.757  0.4995 -0.0570  0.2924
 7974W        W28254  13.672   8.033   1.156 -0.3382  0.1558 -0.0113
 7975W        W28255  15.191   8.083  13.300 -0.0385  0.0007  0.2365
 7976W        W28256   2.451  12.634   4.665 -0.2708  0.3204 -0.2132
 7977W        W28257  17.323   0.102   2.453 -0.1914 -0.0053 -0.1311
 7978W        W28258   8.828   0.278  13.934 -0.1968  0.0614  0.1272
 7979W        W28259  16.891   3.801   3.332 -0.0277 -0.0160 -0.2314
 7980W        W28260   4.001  11.594   0.783  0.0913 -0.0585 -0.2981
 7981W        W28261   7.754  15.909   0.625 -0.0309  0.0383  0.0913
 7982W        W28262   4.430  15.355  13.562 -0.0546  0.1179  0.1832
 7983W        W28263  15.836   1.453   3.298  0.2303 -0.1704 -0.3181
 7984W        W28264   1.565   3.032  14.635  0.1832  0.1987  0.2417
 7985W        W28265   4.238  14.126   0.680  0.0341 -0.0223  0.1200
 7986W        W28266  14.428   2.564   0.137  0.3707  0.0016 -0.1159
 7987W        W28267  13.238  17.409   4.174 -0.4668  0.1640 -0.0197
 7988W        W28268   5.043   4.535   4.261 -0.1385  0.1970  0.0834
 7989W        W28269  17.131  14.725  13.189 -0.2906  0.2108 -0.0568
 7990W        W28270  15.865   4.264   1.152 -0.2843 -0.1314 -0.1256
 7991W        W28271   3.753   3.323   4.369  0.0250 -0.1250 -0.1410
 7992W        W28272   9.241   5.406  12.437  0.0427  0.4267  0.0839
 7993W        W28273  16.632  16.525   2.662  0.3500  0.0509  0.0571
 7994W        W28274   0.857   6.749  10.821  0.0247  0.0399  0.0058
 7995W        W28275  14.598  13.876   3.094  0.0806 -0.0479  0.0187
 7996W        W28276   1.729  14.824  14.074  0.0824 -0.2970  0.0118
 7997W        W28277  12.056   6.795  11.714 -0.1964 -0.2519  0.1306
 7998W        W28278  15.815  14.218  14.214  0.0350 -0.0055 -0.2279
 7999W        W28279   9.690  12.225   3.971  0.1253 -0.0292  0.0765
 8000W        W28280   5.086  17.476   1.512  0.2257 -0.1964  0.0178
 8001W        W28281   2.730   9.702   2.104 -0.0187 -0.3306 -0.1397
 8002W        W28282  15.288   2.693  14.427  0.0498  0.4311  0.0348
 8003W        W28283   9.435   7.167  14.418  0.0131 -0.1224 -0.0210
 8004W        W28284  17.129  15.847   1.069  0.0795 -0.1555  0.0840
 8005W        W28285  12.985   2.594   1.499  0.0588 -0.0588  0.1318
 8006W        W28286  12.123  15.989  15.826  0.0003  0.0849 -0.0543
 8007W        W28287  10.290   6.997   0.406 -0.0418 -0.2835  0.0226
 8008W        W28288   5.468   1.848  14.561 -0.1721 -0.0691  0.3503
 8009W        W28289  18.226  10.850  12.693  0.0313 -0.0075  0.0908
 8010W        W28290   8.091   3.601  13.586  0.0698 -0.1539  0.0581
 8011W        W28291   9.572   6.939   4.060 -0.2283  0.0679  0.0510
 8012W        W28292   8.657  17.255  12.926  0.2654  0.3440  0.1124
 8013W        W28293   0.030  10.650   1.537  0.1729  0.0476 -0.1065
 8014W        W28294  13.664  11.934   1.089 -0.1145 -0.1132  0.0897
 8015W        W28295  12.506  17.776   0.617 -0.1573 -0.0002 -0.2380
 8016W        W28296   9.072  17.287   1.636 -0.2392  0.2294 -0.0061
 8017W        W28297   1.502  17.613  11.360 -0.0228 -0.1030  0.0203
 8018W        W28298  17.637  14.259   1.610 -0.1729 -0.0145  0.0825
 8019W        W28299  14.327   8.220  15.529  0.2272  0.2205 -0.3859
 8020W        W28300   2.673  17.436  15.559 -0.2496 -0.0066  0.1623
 8021W        W28301  13.269   1.839   0.145  0.1674  0.2991 -0.1013
 8022W        W28302   7.075  12.312   3.758 -0.0291  0.1932  0.3600
 8023W        W28303   1.000  15.445  14.751  0.1194  0.0455  0.0269
 8024W        W28304  17.858   3.575  11.381 -0.0050  0.1172  0.1856
 8025W        W28305   9.680   1.204   3.008  0.4488 -0.2555  0.1687
 8026W        W28306   9.332   2.918   1.664  0.3356  0.3779 -0.0806
 8027W        W28307   6.768   4.780   2.112 -0.3143  0.1471 -0.3496
 8028W        W28308  10.915  12.668   4.199 -0.4100 -0.3218 -0.1144
 8029W        W28309  12.855  17.804  15.414  0.1479  0.1129 -0.0161
 8030W        W28310   8.775   2.668   0.918  0.1398 -0.2055  0.0068
 8031W        W28311   0.611   5.453   1.451  0.0052  0.0987 -0.2892
 8032W        W28312   5.851   5.398   0.440 -0.0590  0.1376 -0.1427
 8033W        W28313  13.370   8.058   1.583  0.1330  0.0313 -0.1668
 8034W        W28314  16.875  13.289   0.571  0.1541  0.2397  0.4438
 8035W        W28315  12.498   5.324   1.262 -0.2455  0.0400  0.1475
 8036W        W28316   5.212  13.642  14.895  0.1767 -0.1559 -0.0893
 8037W        W28317   7.495   3.420  12.391  0.0245  0.4154  0.0364
 8038W        W28318   4.358   5.591   0.014 -0.0486  0.0863 -0.0132
 8039W        W28319  13.456   4.354  14.686 -0.2641  0.0136 -0.0639
 8040W        W28320   9.130  12.314  12.415  0.1411  0.0227 -0.1241
 8041W        W28321  16.700  14.050  15.766 -0.1769 -0.0956  0.2013
 8042W        W28322   7.792   4.144   2.788 -0.0747 -0.1816  0.4031
 8043W        W28323  11.034  15.937  15.023  0.0829 -0.0349  0.0427
 8044W        W28324  10.685   0.009   0.118  0.2673  0.2505 -0.0116
 8045W        W28325   8.523  14.571  15.820  0.0301 -0.0638 -0.1041
 8046W        W28326  16.165  14.554   1.031 -0.1920 -0.0198  0.1461
 8047W        W28327  11.556  11.748   4.506  0.0143  0.1704 -0.0421
 8048W        W28328  17.773   2.965  13.872 -0.1431 -0.0889  0.0609
 8049W        W28329  11.346  10.856   1.892 -0.0839  0.2813  0.0437
 8050W        W28330   5.397  10.231   0.724  0.2190 -0.0239  0.1026
 8051W        W28331  14.814   9.076   2.768 -0.2918 -0.0298  0.3743
 8052W        W28332  17.536   5.648   2.172  0.3053 -0.1962 -0.2241
 8053W        W28333  13.627   8.271  11.737 -0.1045 -0.0072 -0.0242
 8054W        W28334  13.137   9.575   4.374  0.3032 -0.0306 -0.1654
 8055W        W28335   1.607  15.803   4.465 -0.1304 -0.1895  0.3152
 8056W        W28336   6.054   1.717   0.963  0.3246  0.1304  0.1202
 8057W        W28337   3.147  16.640  14.085  0.0064  0.3346 -0.1111
 8058W        W28338   7.835  10.862  13.992  0.3589  0.1463  0.0918
 8059W        W28339  15.154   6.421   0.603 -0.0671 -0.1063  0.1376
 8060W        W28340  16.860   7.073   4.093  0.0914  0.0817 -0.0115
 8061W        W28341   6.171   3.854  14.188  0.0591  0.2092  0.1817
 8062W        W28342   2.099   5.152  15.275 -0.1861 -0.1854  0.0392
 8063W        W28343   4.637   3.565  12.008  0.0170  0.1880 -0.1641
 8064W        W28344   8.171   6.648  11.194 -0.0306 -0.2293 -0.1206
 8065W        W28345  14.032   3.712   0.636 -0.0085  0.2427  0.3395
 8066W        W28346   0.416  10.026   2.031  0.0642 -0.1019  0.0933
 8067W        W28347   0.903   0.796   1.085 -0.1218 -0.0438  0.0313
 8068W        W28348   8.814  11.971  15.018 -0.3576  0.4005  0.0641
 8069W        W28349   9.201  16.185   0.858  0.3389  0.1117 -0.2189
 8070W        W28350  16.105  14.256  13.666  0.0883 -0.2527  0.2411
 8071W        W28351   1.952  18.127   4.773  0.0447  0.2748  0.1670
 8072W        W28352  14.242   3.444  13.981 -0.2500  0.1253 -0.2043
 8073W        W28353  10.642   9.702  13.115  0.0665  0.2533 -0.0653
 8074W        W28354  16.943  15.880   0.220 -0.2515 -0.0972  0.2989
 8075W        W28355  17.867   3.187   2.437 -0.1382  0.3229  0.2339
 8076W        W28356  10.906  15.611  15.335 -0.0076  0.2622 -0.1689
 8077W        W28357   4.283  12.050   3.564  0.0283 -0.0491  0.1042
 8078W        W28358  10.411   8.678   0.070  0.0320  0.0302  0.3939
 8079W        W28359   3.774   6.147  12.315 -0.1314 -0.1542  0.3566
 8080W        W28360   8.382   5.242   1.954 -0.1329 -0.0376 -0.0955
 8081W        W28361  10.169  13.247   3.303  0.1619 -0.0133  0.0474
 8082W        W28362   9.841   8.070   4.342  0.0353 -0.1620 -0.0339
 8083W        W28363  12.966  11.538   1.835  0.0510  0.0801  0.0262
 8084W        W28364  16.914   2.967  15.859 -0.0832  0.1358  0.3925
 8085W        W28365   3.026  14.132  13.657 -0.2479  0.0539  0.1425
 8086W        W28366  10.204  13.394   0.211  0.0414  0.1825 -0.0716
 8087W        W28367  16.111  10.181  13.943 -0.3821 -0.0711 -0.2778
 8088W        W28368   6.880   3.455  14.126 -0.3197 -0.1163  0.4389
 8089W        W28369  12.980   4.059  14.685 -0.1186  0.1523  0.3842
 8090W        W28370   0.788  11.816  14.618  0.1423 -0.0624  0.1421
 8091W        W28371   3.245  11.526  12.535 -0.2362 -0.1152  0.2417
 8092W        W28372  15.081  17.541   3.579  0.1177  0.0446 -0.0636
 8093W        W28373  12.248   8.691  15.829  0.1425 -0.2651 -0.0200
 8094W        W28374  14.225   4.393  13.804  0.3507  0.2002  0.0186
 8095W        W28375  11.727  16.817  12.209 -0.0374  0.0414  0.1892
 8096W        W28376   1.246  15.532  10.743 -0.2519  0.3110 -0.0412
 8097W        W28377   0.591   4.332   2.926  0.1701  0.1248  0.1606
 8098W        W28378  17.430   6.756   0.865 -0.1077 -0.1335 -0.0335
 8099W        W28379  18.224   0.451  13.137 -0.2031 -0.0195 -0.0561
 8100W        W28380   1.196   1.792   0.427 -0.3634 -0.1122 -0.1766
 8101W        W28381  15.456  16.071   0.010 -0.2071  0.0825  0.1084
 8102W        W28382  12.232   7.882  15.240 -0.1426  0.1609 -0.0360
 8103W        W28383  13.388   4.515   3.521 -0.1049 -0.4305  0.4047
 8104W        W28384  10.155  14.134   3.771 -0.0764 -0.2167  0.0366
 8105W        W28385   5.462  11.914   1.798  0.1142 -0.1955  0.0148
 8106W        W28386   5.119  15.496  14.306 -0.0964  0.0970  0.0537
 8107W        W28387   6.944  14.515  13.496  0.0363 -0.0733  0.1413
 8108W        W28388  16.742   1.083  10.688 -0.1243  0.1034  0.1472
 8109W        W28389  13.495   7.312  13.596  0.0582  0.0378  0.1228
 8110W        W28390  13.616  13.848   3.750 -0.3552 -0.1071  0.1662
 8111W        W28391   6.975   9.765  13.065 -0.2823 -0.1772  0.2047
 8112W        W28392  13.800   6.489   2.522 -0.0219  0.2927 -0.1111
 8113W        W28393   0.318   5.221   2.903 -0.0827  0.1717  0.0336
 8114W        W28394   0.155   5.166  12.752 -0.0145 -0.3108 -0.0495
 8115W        W28395   5.636  17.446  12.751 -0.1077  0.2410  0.0009
 8116W        W28396   9.513   0.679   1.903  0.0389  0.0284 -0.2336
 8117W        W28397   9.436  12.830   4.598  0.1085  0.0210  0.1503
 8118W        W28398   4.410   1.143  14.032  0.0920  0.0340  0.0126
 8119W        W28399   9.226   2.879   0.705 -0.0364  0.0675 -0.0158
 8120W        W28400   8.767   5.523  12.286  0.0517  0.0054 -0.1915
 8121W        W28401  16.707   9.347  13.127 -0.0139  0.0865  0.1120
 8122W        W28402  16.861   7.455  12.158  0.1334 -0.2072 -0.0330
 8123W        W28403  16.041  17.567   0.228  0.0814 -0.1217 -0.0248
 8124W        W28404   3.950  17.321  14.068  0.0223  0.1545 -0.0164
 8125W        W28405  13.199  15.143  11.681 -0.1211 -0.0325 -0.1340
 8126W        W28406   5.914  16.679  14.869  0.1988  0.1634 -0.1557
 8127W        W28407   3.424  14.453   1.742  0.1100 -0.1574  0.0926
 8128W        W28408  13.220   7.608   1.610  0.2675  0.0897 -0.0347
 8129W        W28409   2.708   9.353  12.347 -0.0404 -0.0297  0.2247
 8130W        W28410   9.182  13.938  14.366  0.1504  0.0229 -0.4234
 8131W        W28411  17.570   2.219   2.063 -0.0246 -0.1627  0.0792
 8132W        W28412  14.537   7.428   3.552 -0.1808 -0.2787  0.3125
 8133W        W28413  14.555   1.313   0.481  0.0592  0.1119 -0.0492
 8134W        W28414   6.396   2.491   3.392  0.1639  0.0267 -0.3458
 8135W        W28415   8.516   0.322  13.400  0.1915  0.1009  0.2104
 8136W        W28416   3.779   7.124   2.759  0.2151 -0.1326 -0.1328
 8137W        W28417  13.387  15.918  12.361  0.0998  0.3520  0.4222
 8138W        W28418   4.853  14.877   2.173  0.2141 -0.0591 -0.3249
 8139W        W28419   0.741   6.777  12.477  0.0927  0.1632 -0.2474
 8140W        W28420   3.096  11.571  11.119  0.1122  0.0457 -0.0331
 8141W        W28421   6.383  11.980   1.862 -0.0119 -0.0111  0.0766
 8142W        W28422   7.801  14.639  12.550  0.0529  0.1228  0.0398
 8143W        W28423  17.502  12.315  15.303  0.1785  0.4524  0.1052
 8144W        W28424   4.687   1.039   1.564  0.1679  0.2185 -0.2342
 8145W        W28425   8.362  16.915   2.092  0.0796  0.3183  0.1534
 8146W        W28426   0.403   1.831  13.083 -0.1436  0.3361  0.2394
 8147W        W28427   6.894   9.537   1.012 -0.0413  0.2007  0.0932
 8148W        W28428  16.838  16.610  12.649  0.0593 -0.1134 -0.3403
 8149W        W28429   2.346   4.770  12.502 -0.3617 -0.1812 -0.1510
 8150W        W28430   8.656   4.754  13.999 -0.0799  0.0769 -0.1874
 8151W        W28431  12.105  10.013   2.337  0.0186 -0.1322  0.2689
 8152W        W28432   5.132  13.763  11.720  0.1201  0.0730 -0.0628
 8153W        W28433  11.402   5.197  13.795 -0.1003  0.0059 -0.0681
 8154W        W28434   3.403  16.720  13.170 -0.0321  0.3022 -0.2200
 8155W        W28435  16.522   5.210   0.875  0.2203  0.0156  0.0744
 8156W        W28436   9.449  11.557  14.585  0.0087  0.1153  0.2243
 8157W        W28437  10.996   8.228  15.206  0.1271  0.0094  0.3620
 8158W        W28438  15.864  10.984  14.948 -0.2174 -0.0771 -0.2370
 8159W        W28439   2.262  12.333   0.096  0.1047  0.0549  0.0955
 8160W        W28440  13.767  10.727  15.288  0.1371 -0.0651 -0.0296
 8161W        W28441  10.048  10.578  13.679 -0.0900 -0.0852  0.2164
 8162W        W28442   0.248   3.535   1.383  0.1680 -0.0011  0.0567
 8163W        W28443   1.983  13.311  12.525  0.0446 -0.0262  0.3206
 8164W        W28444  16.687  17.172  13.535 -0.2043 -0.0774  0.2599
 8165W        W28445   3.578   4.072   0.456  0.2367  0.0952  0.1608
 8166W        W28446  11.657  15.620  11.884  0.1856  0.1283 -0.1788
 8167W        W28447  12.804  11.082  12.783  0.1163 -0.0319 -0.1162
 8168W        W28448  18.176   0.169  11.135 -0.0919  0.0787 -0.0100
 8169W        W28449   0.568   1.337  12.850  0.1388 -0.2029  0.3741
 8170W        W28450  11.462  14.854   2.708 -0.1456 -0.1738 -0.1390
 8171W        W28451   4.612   6.312   1.945 -0.0135 -0.0143  0.0503
 8172W        W28452  11.858   6.324   5.654  0.1871  0.0806  0.0161
 8173W        W28453  11.796  15.186  11.585  0.1198  0.0861 -0.1130
 8174W        W28454   3.513   7.360  12.989 -0.1963  0.1439  0.1784
 8175W        W28455   1.226  12.301   0.145  0.0805  0.0935  0.0026
 8176W        W28456  15.488  11.573  12.670 -0.0830 -0.1190 -0.0468
 8177W        W28457  13.853  11.023  12.262 -0.0481  0.2587  0.0506
 8178W        W28458   0.154  10.614  15.427  0.0304  0.1730 -0.1705
 8179W        W28459   2.204  15.601  15.205  0.0597 -0.2284 -0.4322
 8180W        W28460  16.761   6.912  10.778  0.2483 -0.1636 -0.1336
 8181W        W28461   4.281   3.047   3.673 -0.1300  0.2095  0.3758
 8182W        W28462   9.668  14.873  12.881 -0.1946 -0.0435  0.1903
 8183W        W28463  17.422  13.674  13.376  0.4531 -0.0115 -0.0362
 8184W        W28464   1.556  10.093  11.696 -0.1454  0.0116  0.2950
 8185W        W28465  16.080   1.881   3.471 -0.2766  0.1878  0.2590
 8186W        W28466   0.714   5.600  13.458 -0.0397  0.0480 -0.0585
 8187W        W28467   3.766  17.469   1.947 -0.1835 -0.3091  0.1419
 8188W        W28468  16.138   1.870  15.271 -0.2986  0.3480 -0.1877
 8189W        W28469   4.057   1.562  15.510  0.2549 -0.2181 -0.0772
 8190W        W28470   1.578  12.716  14.106 -0.0483  0.0071 -0.0290
 8191W        W28471  15.870   4.266  13.533 -0.2975  0.0994  0.1210
 8192W        W28472  12.238  13.409  14.278  0.3192  0.0049  0.0494
 8193W        W28473  13.001  13.483  11.395 -0.0696  0.2911  0.1774
 8194W        W28474   6.123  16.273  13.954 -0.0850  0.1945 -0.0587
 8195W        W28475   4.710  10.840   3.575 -0.1961 -0.0399  0.4534
 8196W        W28476  16.712  10.244  14.636 -0.0206  0.3137 -0.1650
 8197W        W28477   3.677   4.096  14.980  0.3799  0.0384  0.0533
 8198W        W28478   8.852  10.627  11.632  0.3755  0.1039  0.2476
 8199W        W28479  17.095  15.964   4.257  0.1918 -0.0666  0.1096
 8200W        W28480   9.870   3.901  13.624 -0.0113  0.1270  0.0231
 8201W        W28481  15.097   0.113  14.544 -0.1152  0.0440  0.0605
 8202W        W28482  10.132  15.231   1.018 -0.1054  0.3000  0.0120
 8203W        W28483   9.239   4.989   4.119 -0.0128 -0.0806 -0.2088
 8204W        W28484   6.801   5.523   1.634 -0.1291 -0.0999 -0.0700
 8205W        W28485   5.711   9.409  12.963 -0.2148 -0.3067 -0.3088
 8206W        W28486  11.945  12.851   3.414  0.0070  0.2993 -0.3420
 8207W        W28487   6.719  14.059  11.585  0.0823  0.1002 -0.0991
 8208W        W28488   2.450  10.736   1.077  0.0826  0.1155  0.0611
 8209W        W28489   7.474   6.801  11.500 -0.2639 -0.0055 -0.1615
 8210W        W28490   7.682  17.487  14.293  0.0934  0.0208  0.2069
 8211W        W28491  12.676  11.224  15.870  0.2683 -0.1156 -0.2795
 8212W        W28492  13.881   4.287  13.483 -0.2380  0.0029  0.2636
 8213W        W28493   0.580  12.125  13.281 -0.1076 -0.2346  0.0166
 8214W        W28494   5.128   7.551   0.540 -0.2005  0.2466  0.1699
 8215W        W28495  14.109  13.359   2.616 -0.1900  0.0324  0.0547
 8216W        W28496  12.786   0.751   1.070  0.1985  0.3240 -0.0640
 8217W        W28497   2.234   1.719  12.762 -0.2370 -0.1269 -0.0009
 8218W        W28498   9.344   6.274  14.888 -0.0769  0.0810 -0.1345
 8219W        W28499  12.590   2.325   4.482 -0.2050  0.2064 -0.3395
 8220W        W28500   6.959   8.981   5.589 -0.4356  0.0820  0.3753
 8221W        W28501  16.325   5.714   4.926 -0.0505 -0.1941  0.4094
 8222W        W28502   6.546   1.973  13.545  0.0876 -0.2986 -0.0211
 8223W        W28503  16.703  14.167  15.249 -0.2432  0.0423  0.0589
 8224W        W28504   5.423  17.818  13.537  0.2952 -0.1534  0.1154
 8225W        W28505   7.417  12.683   2.542  0.0144  0.2185 -0.2271
 8226W        W28506   4.930  15.642   1.580  0.3041  0.1389  0.2453
 8227W        W28507  18.327  13.525   4.086 -0.0931  0.2236 -0.1490
 8228W        W28508   9.958  14.731   3.216 -0.2088 -0.0734  0.3547
 8229W        W28509  16.031  17.650   3.967  0.2427 -0.3004 -0.3897
 8230W        W28510   4.239   9.467  11.774 -0.1164  0.3598 -0.0914
 8231W        W28511   2.500   9.196  11.355  0.2222  0.0749  0.2106
 8232W        W28512   4.365   7.674  15.766 -0.0851  0.0049  0.4241
 8233W        W28513   4.037   6.761   0.878 -0.1911  0.0031 -0.0327
 8234W        W28514  16.835   0.074   2.582 -0.0469  0.0243  0.4220
 8235W        W28515  12.726  16.099  11.693  0.1798  0.1246  0.2724
 8236W        W28516   1.718  12.804  12.279  0.0191 -0.2602  0.0970
 8237W        W28517   5.600  16.992  13.780 -0.1889 -0.0399  0.3054
 8238W        W28518  17.142   8.472  14.675 -0.2498  0.0591 -0.1034
 8239W        W28519   5.930   9.286   0.927 -0.2530  0.1237 -0.1958
 8240W        W28520   7.781  17.969   0.746 -0.2240 -0.0442 -0.0667
 8241W        W28521  11.433  10.824  13.017  0.0971 -0.0416  0.0303
 8242W        W28522  16.272   1.716   4.355  0.0407 -0.0822  0.0097
 8243W        W28523   9.008   2.268   4.534  0.0434 -0.0097  0.0906
 8244W        W28524   6.615  16.636   2.922 -0.1026  0.2644 -0.0683
 8245W        W28525   6.780   3.694  12.012  0.1842  0.1047 -0.0691
 8246W        W28526   8.826   3.879   4.789  0.0515 -0.1941 -0.0238
 8247W        W28527   6.121   4.150  13.138 -0.0931 -0.0015  0.3036
 8248W        W28528   6.311   9.694   2.794 -0.0243  0.0977 -0.0761
 8249W        W28529  15.344  11.862  15.359 -0.1848 -0.2997 -0.0042
 8250W        W28530  14.651  17.066  12.962  0.0606 -0.2080  0.2566
 8251W        W28531  16.904  10.508  12.398  0.0799  0.0739 -0.0267
 8252W        W28532   8.903   3.378  13.069 -0.1267 -0.1505  0.1277
 8253W        W28533  13.964   4.236   2.182  0.1474 -0.1286  0.1603
 8254W        W28534   2.594  16.526  12.699  0.0135  0.1474 -0.3033
 8255W        W28535   1.693  15.563   2.122  0.1147  0.0034 -0.1389
 8256W        W28536   1.327  17.904  15.886  0.2211  0.0365  0.0746
 8257W        W28537   9.359  12.367   4.393 -0.3272 -0.0411 -0.1623
 8258W        W28538  13.980   1.757  14.804  0.1122 -0.1350  0.0239
 8259W        W28539  11.420   0.704   3.181 -0.2207 -0.0522 -0.0746
 8260W        W28540   7.178  15.939  11.801 -0.0499  0.0835 -0.0215
 8261W        W28541  17.003  14.665  13.672  0.1647  0.1731  0.2367
 8262W        W28542   6.403   2.614  14.360 -0.3138  0.0564 -0.2775
 8263W        W28543  11.619   5.347  13.364 -0.0892  0.1085 -0.1295
 8264W        W28544   6.603   7.170   0.769 -0.2062  0.1007  0.0444
 8265W        W28545  10.185   0.422   0.326  0.1602 -0.0064  0.2391
 8266W        W28546   8.548   3.778  13.911 -0.3770  0.1863 -0.0645
 8267W        W28547  12.131  11.131   0.050  0.3930  0.1358 -0.3030
 8268W        W28548  11.499   8.855  11.393  0.2132  0.2970  0.0712
 8269W        W28549  11.093  10.290   0.087  0.0429  0.0805 -0.1531
 8270W        W28550   0.250   0.279   1.196  0.0652 -0.2032 -0.0117
 8271W        W28551  17.877  11.844   1.312 -0.1312 -0.0172  0.4065
 8272W        W28552  10.317   4.584  10.986  0.0737 -0.0960 -0.2025
 8273W        W28553  12.726  11.463  14.270  0.0178 -0.3403 -0.2988
 8274W        W28554   1.686  11.170   1.336 -0.2083  0.1445  0.0609
 8275W        W28555  16.467   3.685  15.908  0.0677 -0.0480  0.1200
 8276W        W28556  17.761  11.573  13.033  0.2680 -0.2595 -0.1208
 8277W        W28557   9.398   6.009   3.201  0.0910  0.0469  0.0214
 8278W        W28558  10.825  16.629  15.482  0.1140 -0.0495 -0.2981
 8279W        W28559   9.618   1.969  12.013 -0.0708  0.0106  0.4429
 8280W        W28560  11.771   1.898  14.862 -0.0108 -0.1505 -0.1417
 8281W        W28561  18.001  15.080   2.087  0.0088 -0.1789 -0.4122
 8282W        W28562  12.165  14.416   2.059 -0.1658  0.1456 -0.2399
 8283W        W28563  10.964  11.729   3.727  0.2039  0.0215 -0.2190
 8284W        W28564  15.590  17.915   1.707 -0.1765  0.1738  0.0493
 8285W        W28565  12.371   1.085  12.706  0.2287 -0.0571 -0.1840
 8286W        W28566   4.078   9.015  13.199  0.0788  0.2526  0.3429
 8287W        W28567   1.302  10.379  13.145 -0.0769  0.3244  0.0187
 8288W        W28568  12.546  15.913   4.976  0.0713 -0.2258  0.0282
 8289W        W28569   4.847   5.419  13.195 -0.0020 -0.0638 -0.1192
 8290W        W28570   1.061   4.498  12.924  0.1010 -0.4423 -0.1433
 8291W        W28571   6.809   8.619  14.657 -0.0833 -0.0343  0.2860
 8292W        W28572  14.104   6.588  14.785  0.2751 -0.0463 -0.0485
 8293W        W28573  15.692  10.522   0.216  0.1045 -0.0097 -0.1324
 8294W        W28574   2.491  17.030   3.467  0.1900  0.0118  0.2573
 8295W        W28575  10.039  11.851  15.877 -0.0266  0.0883  0.1787
 8296W        W28576  14.908  13.285   1.583  0.2535 -0.0365 -0.2586
 8297W        W28577   5.059   2.932  12.035  0.3392 -0.1452  0.5684
 8298W        W28578   1.320   3.669  11.849 -0.1189  0.1643  0.0861
 8299W        W28579   3.965   7.949  15.486  0.2186 -0.0315 -0.0677
 8300W        W28580  12.726  10.595   3.672  0.2320 -0.0563  0.1965
 8301W        W28581   1.924  13.867  12.601  0.0443  0.1577 -0.0923
 8302W        W28582   6.398  10.461  13.536 -0.0730 -0.3250 -0.1141
 8303W        W28583   1.227   1.657   2.187  0.2986  0.0388  0.0122
 8304W        W28584  14.214  17.011  12.707  0.0719  0.2001 -0.2654
 8305W        W28585   1.369  16.503   1.206 -0.0783  0.1290  0.0256
 8306W        W28586   7.183   5.464   4.234 -0.2416 -0.0967 -0.0035
 8307W        W28587   3.441  12.068   2.035  0.2948 -0.1633  0.0156
 8308W        W28588  11.065  10.108  12.052  0.1118  0.1362  0.3034
 8309W        W28589  16.571  12.061  13.080 -0.0315  0.0528  0.0343
 8310W        W28590   5.598  15.799   0.601  0.1901 -0.0031  0.1544
 8311W        W28591   5.080   9.927   3.408  0.0735 -0.1401  0.1457
 8312W        W28592   7.814   8.812   4.012  0.4570 -0.2060  0.3467
 8313W        W28593   5.190  11.095  11.997  0.0642  0.1637 -0.0275
 8314W        W28594   0.917   8.774  12.521  0.0299 -0.2309  0.0828
 8315W        W28595  15.736  14.626   1.473 -0.0525 -0.0981 -0.0536
 8316W        W28596  13.459  18.036  14.600  0.1915 -0.1203  0.0829
 8317W        W28597  12.461   1.036   4.003 -0.2725  0.0941  0.0394
 8318W        W28598   4.234  14.897   3.785 -0.0731  0.0704  0.0768
 8319W        W28599  10.570   3.283   4.413  0.3381 -0.0299 -0.0579
 8320W        W28600  12.887  14.843  12.859  0.2335  0.0561 -0.1512
 8321W        W28601   6.374   4.287  13.982 -0.2125 -0.2282 -0.0990
 8322W        W28602  11.558  14.601   3.532 -0.2228 -0.0099 -0.0948
 8323W        W28603  13.756  10.302   3.410  0.0111  0.0808  0.0426
 8324W        W28604   5.752  17.519  15.087 -0.3508  0.0587 -0.0095
 8325W        W28605  18.098   1.247   4.076 -0.1137 -0.3376  0.0326
 8326W        W28606   7.979  16.826  12.796  0.1555 -0.0895 -0.2382
 8327W        W28607  12.842   9.433   1.424 -0.0641  0.2719 -0.0398
 8328W        W28608  17.451   0.130  11.928  0.1588 -0.2122  0.2722
 8329W        W28609   0.991   4.584   1.126  0.1039 -0.3269 -0.0009
 8330W        W28610   6.140  15.506  12.993  0.1243  0.1705 -0.3477
 8331W        W28611   6.979   3.568  12.425 -0.1287  0.1313  0.2087
 8332W        W28612  16.134   2.599  13.927  0.0635  0.1597 -0.0129
 8333W        W28613  16.318   8.522  14.610 -0.0216  0.4381 -0.2067
 8334W        W28614  10.902  17.784   1.057 -0.3645 -0.1182 -0.0857
 8335W        W28615  10.284   7.529  11.721 -0.0769  0.0902  0.0815
 8336W        W28616   8.852  17.805   1.562  0.1116  0.3716  0.0696
 8337W        W28617   4.713   9.250   2.702 -0.0737 -0.0284 -0.1469
 8338W        W28618  14.547  18.226   3.629 -0.0843  0.1534  0.4149
 8339W        W28619   4.128  15.913   3.169 -0.1687  0.3064  0.3189
 8340W        W28620  13.050  15.750  13.706 -0.1993 -0.1770  0.1558
 8341W        W28621   9.563   2.333  11.286 -0.2142  0.1703  0.0615
 8342W        W28622   7.528  12.238  14.597  0.1441  0.2977 -0.3526
 8343W        W28623   7.705   2.313  15.251 -0.0057  0.0733 -0.1201
 8344W        W28624   6.718   1.538   4.392  0.0502  0.1193  0.2968
 8345W        W28625  12.454   1.266  15.025  0.0323  0.0874 -0.1310
 8346W        W28626   5.878  14.585  13.034  0.2026 -0.1993 -0.1641
 8347W        W28627  12.753  15.588   0.524  0.2033 -0.1264  0.0769
 8348W        W28628  15.036  11.506  14.527 -0.3773 -0.2264 -0.1089
 8349W        W28629  16.276  13.566   3.328  0.1924 -0.2986 -0.0359
 8350W        W28630   8.947   9.928  15.880  0.2352 -0.0770  0.4854
 8351W        W28631  14.519   6.684   1.964  0.0332  0.0956  0.0894
 8352W        W28632  15.836   5.441   4.139 -0.6348  0.0875  0.0473
 8353W        W28633  13.708  11.511   3.675  0.0130 -0.0143 -0.1104
 8354W        W28634  17.786   3.306  15.506  0.3484  0.0055  0.1002
 8355W        W28635  13.903   0.427   0.042 -0.1356 -0.0902  0.1610
 8356W        W28636  14.793   1.786   0.939 -0.0329  0.1547 -0.0970
 8357W        W28637  13.072  11.852  15.878  0.0764 -0.0622 -0.2282
 8358W        W28638  14.308   4.859   2.549 -0.0088  0.0192  0.3251
 8359W        W28639   1.602  11.293   3.242  0.0359 -0.0624  0.1505
 8360W        W28640  11.328  12.205  15.885  0.0205  0.0516 -0.0293
 8361W        W28641  13.575  14.520  12.225  0.0429  0.2591  0.1687
 8362W        W28642   9.686  13.401  15.293 -0.0753 -0.0381  0.0999
 8363W        W28643  16.359  16.115   0.838  0.2269  0.4221  0.0014
 8364W        W28644   0.341  13.058   4.081 -0.2466 -0.0265  0.1296
 8365W        W28645   7.763   2.054   3.049 -0.0002 -0.1177 -0.0260
 8366W        W28646  10.540  18.025  14.922 -0.1109 -0.0794  0.0486
 8367W        W28647  12.239   0.447   3.097  0.2942  0.2531  0.0060
 8368W        W28648   9.522   3.074  14.937  0.0279 -0.4072  0.2269
 8369W        W28649   2.329   9.820   2.416 -0.2521 -0.1704  0.1433
 8370W        W28650   4.634  14.524  11.512 -0.1839 -0.1154 -0.1815
 8371W        W28651  11.989   1.755   3.386 -0.0869 -0.1184  0.0831
 8372W        W28652  14.196  11.923   4.845  0.0280  0.2908  0.0770
 8373W        W28653   8.357  16.669   0.425  0.1120 -0.0704  0.1149
 8374W        W28654   3.085  13.394   1.057  0.0734  0.0904 -0.0753
 8375W        W28655  11.641  10.199  14.254  0.0737  0.0462 -0.0581
 8376W        W28656   3.053  13.020  12.432  0.2450 -0.3363 -0.0502
 8377W        W28657  15.732   1.501  11.974 -0.0953 -0.0446 -0.0853
 8378W        W28658   5.966  10.969   1.585 -0.0315 -0.0236 -0.2375
 8379W        W28659  15.362  16.366  12.464  0.0144  0.1770  0.0054
 8380W        W28660   1.239  10.513  14.717  0.0397  0.1325 -0.0427
 8381W        W28661   5.100   7.746   4.187  0.1655 -0.0174  0.0328
 8382W        W28662   2.631   3.038   0.760 -0.1834 -0.0033 -0.2561
 8383W        W28663   5.299  15.614   2.363 -0.1228 -0.3200 -0.0571
 8384W        W28664  11.922  11.451  12.432 -0.0949  0.1231 -0.2683
 8385W        W28665   7.106   3.954   4.247 -0.0640 -0.0319 -0.0597
 8386W        W28666  12.859   1.614   0.351 -0.0076 -0.0402 -0.0434
 8387W        W28667   5.891  15.338   3.606 -0.0906  0.1223 -0.2170
 8388W        W28668   3.266  13.746  14.308  0.2191 -0.0729  0.0784
 8389W        W28669   3.636   4.581  14.707  0.1440 -0.2610  0.2320
 8390W        W28670   2.169  16.078   3.548  0.0312 -0.0000  0.2482
 8391W        W28671   2.821  15.712  12.096  0.1022  0.1490 -0.2228
 8392W        W28672  11.942  15.305   0.353 -0.1631 -0.4215 -0.0301
 8393W        W28673  13.477  17.803  15.060 -0.0926  0.1912  0.2143
 8394W        W28674  16.520   7.973   3.682 -0.0665  0.0871 -0.0620
 8395W        W28675   0.569   2.485   4.286 -0.2313  0.3112  0.2893
 8396W        W28676  14.001   3.118  14.990 -0.0270 -0.1807 -0.2929
 8397W        W28677   7.796  13.900   2.299 -0.1085 -0.1830  0.1400
 8398W        W28678   9.838   5.614   3.519  0.0430 -0.1035  0.2757
 8399W        W28679  14.880   0.896   3.028 -0.1298 -0.0026  0.1791
 8400W        W28680   0.953   0.384   4.500 -0.0406 -0.0946 -0.3887
 8401W        W28681   6.704  17.964   2.760  0.0249  0.1037 -0.3212
 8402W        W28682   0.179   5.337   1.806  0.0294 -0.1004 -0.0461
 8403W        W28683   7.737   6.238  14.441 -0.0561 -0.2025  0.2425
 8404W        W28684   5.674   8.637  15.765 -0.2605 -0.1881  0.2327
 8405W        W28685  12.615  14.255  11.574  0.2139 -0.0921  0.0216
 8406W        W28686   0.088   2.124   0.410  0.3176 -0.0137 -0.0494
 8407W        W28687  17.945   9.161  11.932  0.1795 -0.1370 -0.0566
 8408W        W28688  17.474   8.216  12.905  0.4133  0.0345 -0.2771
 8409W        W28689  14.347   8.564   0.088 -0.1027  0.0354  0.0612
 8410W        W28690   8.444  16.008  13.766  0.0265 -0.1976 -0.1258
 8411W        W28691  17.632  14.927   4.285  0.1340 -0.4257  0.1238
 8412W        W28692  18.299  10.518  14.363 -0.1839  0.0968 -0.0873
 8413W        W28693  13.749   5.847   0.287  0.1248  0.0061 -0.0231
 8414W        W28694   3.198  17.217   0.374  0.0549  0.1812 -0.0564
 8415W        W28695   3.406  16.366   0.844 -0.1815 -0.2486 -0.0718
 8416W        W28696  16.648  17.228   0.772  0.0495 -0.0798 -0.1303
 8417W        W28697  11.274  16.380  12.518  0.1780 -0.0779 -0.2591
 8418W        W28698  10.176   4.390   3.469 -0.0391  0.1404  0.2045
 8419W        W28699   4.939   9.647   3.811  0.0468  0.3301  0.1809
 8420W        W28700  11.262  10.480   2.739  0.0335 -0.1987  0.2607
 8421W        W28701  16.577   8.436  12.915  0.0265  0.1921 -0.0289
 8422W        W28702  10.673   1.426   0.465 -0.0909  0.0217 -0.0764
 8423W        W28703   0.489   5.499  13.023 -0.2082 -0.0726  0.1391
 8424W        W28704  11.576  11.419  15.236 -0.0617 -0.1532 -0.0082
 8425W        W28705   8.095  18.151   2.764  0.0364  0.0433  0.0711
 8426W        W28706  17.762   3.190  12.504  0.1110  0.0080 -0.0936
 8427W        W28707  12.216   0.965  13.552 -0.1120 -0.1301  0.1832
 8428W        W28708   6.099   3.897  13.686 -0.0341  0.3106 -0.0941
 8429W        W28709   3.821   8.170   1.972 -0.0984  0.1524 -0.1418
 8430W        W28710  11.903   1.144  13.865  0.2615  0.3172 -0.1452
 8431W        W28711   7.222  11.014  12.158  0.0305  0.2438  0.1073
 8432W        W28712   9.336  13.607  15.653 -0.1749  0.0662  0.3022
 8433W        W28713   1.343  17.104   1.073  0.0633  0.1844 -0.1355
 8434W        W28714   3.494  15.431   3.203  0.0011  0.0102 -0.1506
 8435W        W28715  17.443  15.759  14.476  0.0558  0.2295  0.0014
 8436W        W28716  16.166   8.924  12.835 -0.0365  0.0404  0.2908
 8437W        W28717   2.410   1.116   2.199  0.0824 -0.3583 -0.1308
 8438W        W28718  12.545   3.429  15.103  0.0330 -0.0138  0.0044
 8439W        W28719  11.798  10.177  13.666  0.1649  0.0138 -0.0116
 8440W        W28720   3.114   8.631   1.325  0.0098  0.1148 -0.3319
 8441W        W28721  14.830   1.595   3.326 -0.1279 -0.0160 -0.0889
 8442W        W28722   2.273  16.660   2.805 -0.3172  0.1678 -0.1453
 8443W        W28723  11.600  12.782  14.849 -0.0104  0.1685  0.0663
 8444W        W28724   7.027  11.734   4.614  0.0157  0.2433 -0.2100
 8445W        W28725  17.253   0.165   3.710 -0.1005 -0.1744  0.1459
 8446W        W28726   1.882   1.609  12.313  0.0155  0.2874  0.0335
 8447W        W28727   6.168   7.607   3.826  0.1455 -0.1813 -0.1308
 8448W        W28728   7.174  17.732   1.569  0.0470  0.0600 -0.2499
 8449W        W28729   6.307   4.727  13.751  0.1745  0.1493  0.1283
 8450W        W28730  14.962  17.533  12.796 -0.0543  0.0022 -0.0612
 8451W        W28731   0.914   4.091  14.480  0.2446 -0.0113 -0.1579
 8452W        W28732  13.293   1.978  15.225 -0.2571  0.0632 -0.0270
 8453W        W28733  13.062   4.475  14.996 -0.0691 -0.3150  0.0299
 8454W        W28734   6.661  12.050  15.931  0.0052  0.0414  0.0278
 8455W        W28735  13.677   5.155  13.564 -0.0474 -0.0116  0.0209
 8456W        W28736   9.743  16.357   4.188 -0.1531  0.1122  0.1530
 8457W        W28737  15.628  15.212  12.024 -0.0167  0.0267 -0.0847
 8458W        W28738  13.037   8.223   2.676  0.3664  0.0815 -0.1117
 8459W        W28739  14.384  14.246  14.698  0.0512 -0.0177  0.1831
 8460W        W28740  12.173   2.213   1.713  0.0234 -0.0200  0.2030
 8461W        W28741  12.369  18.278   4.450 -0.1472  0.0008  0.0256
 8462W        W28742  11.373   4.858   2.028  0.0630  0.3240  0.1579
 8463W        W28743   0.373  15.692  13.961  0.1754  0.3066  0.2072
 8464W        W28744   0.919   1.216  15.601  0.0204 -0.1977 -0.0610
 8465W        W28745   6.538   8.620  12.706 -0.1951  0.2340  0.1234
 8466W        W28746   4.406   9.610   1.790 -0.1104 -0.0033 -0.1180
 8467W        W28747  13.461   0.406   3.337  0.0578  0.0091 -0.0038
 8468W        W28748   1.631  15.696  13.378  0.0762  0.0911  0.0102
 8469W        W28749   4.685   2.052  12.955  0.1982 -0.0934 -0.2239
 8470W        W28750   5.324   5.745   1.368  0.0529  0.2556  0.0781
 8471W        W28751   9.676   0.049   1.157  0.1427 -0.1688  0.1071
 8472W        W28752  12.234  10.244   3.711  0.4522 -0.1974  0.2339
 8473W        W28753   8.857   5.907   5.505 -0.1190  0.3562 -0.1288
 8474W        W28754  10.894   5.748  14.317 -0.0570  0.0585  0.1272
 8475W        W28755   2.045   8.325  13.714 -0.1036 -0.0117 -0.1035
 8476W        W28756   4.102  13.935   3.645  0.1367 -0.0496 -0.0301
 8477W        W28757  18.153   6.020   1.218 -0.1259  0.1380 -0.2171
 8478W        W28758  11.467   3.987   0.519 -0.1096  0.1611  0.1535
 8479W        W28759  12.413   4.306  15.274  0.2650 -0.2146  0.0514
 8480W        W28760  18.278  15.162   2.559  0.0686 -0.2314 -0.0565
 8481W        W28761  17.424  18.174  14.636  0.1332 -0.1162  0.0216
 8482W        W28762   3.099  17.032   2.412  0.3131  0.0784  0.1023
 8483W        W28763  17.021   2.034   4.539 -0.0236 -0.2348  0.0619
 8484W        W28764   5.780   8.388   3.215 -0.2254  0.0503  0.1299
 8485W        W28765   7.188  17.775  14.461  0.0747 -0.2955  0.3501
 8486W        W28766  12.356   0.100   0.495  0.4833 -0.0228 -0.0178
 8487W        W28767   0.144  14.826   2.230 -0.0337 -0.1345 -0.1200
 8488W        W28768  12.685   2.641  13.490 -0.0315  0.0999 -0.1293
 8489W        W28769  14.452  15.184  11.401 -0.0477 -0.0879 -0.1185
 8490W        W28770   8.736   9.657   3.684 -0.0227 -0.0652  0.0085
 8491W        W28771   4.748  12.405  15.290 -0.1971 -0.1807 -0.0214
 8492W        W28772   8.452   4.342   4.060  0.1018 -0.4331  0.1523
 8493W        W28773   5.177   1.410  15.189 -0.2549 -0.0711 -0.0268
 8494W        W28774  10.278  11.717  14.853  0.0074  0.2614  0.1302
 8495W        W28775   9.334  12.838   0.633  0.1022  0.0552 -0.1510
 8496W        W28776   1.061  13.333   1.594 -0.2872  0.1330  0.0250
 8497W        W28777   5.493  11.994  11.946  0.0316  0.1253 -0.0904
 8498W        W28778  14.727   3.309   3.915 -0.1014 -0.0530  0.0670
 8499W        W28779   7.543  11.976   2.817 -0.0274  0.2284 -0.3402
 8500W        W28780   4.533  15.323   2.192  0.1455 -0.0642 -0.0467
 8501W        W28781  13.382   9.812   2.214 -0.1930  0.1063  0.3792
 8502W        W28782  11.794  11.518   3.762 -0.0701  0.0513  0.0207
 8503W        W28783   9.132   3.891  13.202 -0.0632 -0.1160 -0.0903
 8504W        W28784   3.688   6.007   0.347 -0.0081  0.1470 -0.0794
 8505W        W28785   0.809   8.348  15.196 -0.1111  0.2724  0.1622
 8506W        W28786   1.774   8.701  11.718  0.0018  0.1347 -0.3897
 8507W        W28787   1.554   1.263   3.522 -0.2066 -0.1728  0.0321
 8508W        W28788   6.875   7.945  13.111 -0.3198  0.0727 -0.1527
 8509W        W28789   2.017  15.287  12.194  0.0610 -0.2328 -0.1597
 8510W        W28790   8.823   3.346   2.104 -0.0171  0.0941 -0.0231
 8511W        W28791   6.681   3.398  14.644  0.0444  0.0557 -0.0190
 8512W        W28792  11.663   4.110   4.999 -0.0573  0.0443  0.0623
 8513W        W28793   7.194  14.342  13.095  0.0387 -0.2023 -0.2318
 8514W        W28794   6.206   3.188   1.943 -0.0009 -0.0462  0.0329
 8515W        W28795  15.406   1.478  13.771 -0.3895 -0.4142 -0.0734
 8516W        W28796  15.334  10.975  14.856  0.1550  0.1494  0.1106
 8517W        W28797   3.513   3.042   4.030  0.1090 -0.2474 -0.3666
 8518W        W28798  13.066   8.089  15.726  0.0705  0.3755  0.1338
 8519W        W28799  16.944  16.275  15.258 -0.1886  0.1111 -0.0143
 8520W        W28800   8.555   3.070  14.711 -0.0597  0.0833 -0.1249
 8521W        W28801  17.870  11.328   1.001 -0.2266 -0.0920 -0.0126
 8522W        W28802   7.504  16.575   0.160 -0.0613  0.2136 -0.1426
 8523W        W28803  17.048   9.987   3.940 -0.1280 -0.0092 -0.0868
 8524W        W28804   3.002   5.813   3.963  0.3299 -0.4176  0.1518
 8525W        W28805   8.410   7.533  13.212  0.0179 -0.0482 -0.1183
 8526W        W28806   8.701   7.610   2.846  0.2274 -0.0393 -0.2084
 8527W        W28807  15.605   9.460   1.689  0.1589  0.0394  0.3081
 8528W        W28808   0.278   8.862   2.179  0.0060  0.3264 -0.1473
 8529W        W28809   9.152  11.278   3.245  0.2580 -0.0796  0.1544
 8530W        W28810  13.673   3.118  14.536  0.2903 -0.1404 -0.0293
 8531W        W28811  16.447   3.545  14.406  0.0612 -0.1726 -0.0293
 8532W        W28812   8.319   4.331   0.219  0.2728 -0.0638  0.0204
 8533W        W28813   6.331   1.069  13.877 -0.1310  0.1344  0.0787
 8534W        W28814   7.130  16.634  15.697  0.2435  0.1510 -0.1204
 8535W        W28815  11.891   6.067   4.119 -0.0484  0.2248  0.0505
 8536W        W28816  14.063  17.358  13.689  0.0141 -0.1301  0.1812
 8537W        W28817   7.416  15.661  10.914 -0.1024  0.1931  0.4350
 8538W        W28818   5.308  12.968  12.693  0.0333 -0.1274 -0.0073
 8539W        W28819  14.034  16.906   1.816  0.0632 -0.0011  0.2177
 8540W        W28820   6.617   5.168   2.392 -0.0434 -0.0783  0.3921
 8541W        W28821   5.614  10.076  15.319 -0.0903 -0.0537  0.0463
 8542W        W28822   7.906   6.587  12.169  0.1349 -0.2372  0.0102
 8543W        W28823  15.267   1.244  12.131 -0.0662 -0.1107  0.1781
 8544W        W28824  13.219   3.342  14.635  0.0574 -0.2011  0.0746
 8545W        W28825   0.326   8.218  15.247  0.1564  0.0164  0.2164
 8546W        W28826  16.760   5.836   3.213  0.6169 -0.0724 -0.1291
 8547W        W28827   2.788  15.100   1.808 -0.3320 -0.0671 -0.0887
 8548W        W28828   7.303  14.909   3.045 -0.1077  0.0009 -0.2119
 8549W        W28829  11.714  13.851   1.643  0.1908  0.0471  0.1671
 8550W        W28830   7.613   3.733   3.912  0.3291  0.1363  0.0571
 8551W        W28831   7.159  15.853  13.778  0.0665  0.1400 -0.0078
 8552W        W28832   6.576  12.695   5.299  0.0490  0.1895  0.3567
 8553W        W28833  16.206   5.742  14.060 -0.2929 -0.2004 -0.1469
 8554W        W28834  11.997  12.326   1.373  0.0602  0.2711  0.4733
 8555W        W28835   8.679  13.414   5.681 -0.3052  0.1196 -0.1090
 8556W        W28836   6.337  10.700   0.789  0.2303 -0.0036 -0.2382
 8557W        W28837  15.483   6.166  13.959  0.1256 -0.0188 -0.0452
 8558W        W28838  15.336  16.967   3.078 -0.0484 -0.0946  0.0610
 8559W        W28839  10.620  15.887   3.770 -0.2078  0.1140  0.2427
 8560W        W28840   2.742   9.946  15.168  0.2433 -0.0145 -0.0723
 8561W        W28841  13.401  16.659   1.183 -0.0847 -0.1509  0.0029
 8562W        W28842  11.043   1.553  14.622 -0.0343  0.1561 -0.1817
 8563W        W28843   9.940   1.871  14.955 -0.0845 -0.0632 -0.0881
 8564W        W28844   7.320  15.741   0.327  0.0737 -0.0329  0.3280
 8565W        W28845  16.754   6.075   2.221 -0.0448 -0.0092  0.1184
 8566W        W28846  12.591   9.967  13.997  0.1603 -0.0568 -0.0808
 8567W        W28847   4.753   3.668   0.650  0.0377  0.0252  0.1512
 8568W        W28848   4.812   8.244  15.106 -0.0647 -0.1756  0.0217
 8569W        W28849   4.262  15.851  11.872 -0.0159 -0.0496  0.0798
 8570W        W28850   0.605   2.742  14.358 -0.1116 -0.0894  0.0761
 8571W        W28851  13.712  17.821   3.788 -0.0303 -0.2072  0.1318
 8572W        W28852   1.449   0.219   0.279 -0.1125  0.0459 -0.2273
 8573W        W28853   2.266  11.061  11.084  0.1690  0.1586 -0.0169
 8574W        W28854   2.083   3.237  15.386 -0.0022 -0.1995 -0.2812
 8575W        W28855   1.636  12.231   1.903  0.2092  0.0205 -0.2800
 8576W        W28856  14.543   2.878   1.431  0.0248 -0.0405  0.1448
 8577W        W28857  18.321  16.957   2.730  0.2670  0.0848 -0.1285
 8578W        W28858  15.109  13.777   2.537  0.3084 -0.1024  0.0446
 8579W        W28859   4.486   5.462   3.312  0.1375  0.0980 -0.1362
 8580W        W28860  10.419   1.334   3.049 -0.0600  0.0163  0.0864
 8581W        W28861   8.735   3.083  13.498 -0.3806  0.0329  0.0360
 8582W        W28862  16.763   6.292  14.329 -0.2948  0.1237  0.0376
 8583W        W28863  14.569   1.640  12.438 -0.2729  0.0679  0.1915
 8584W        W28864   4.444   2.837   0.046 -0.2708 -0.0358  0.0631
 8585W        W28865  17.028  13.840  13.771  0.1343  0.0156  0.0343
 8586W        W28866   0.014   5.669  12.488  0.3381  0.1873  0.2080
 8587W        W28867  14.703   4.943  12.130  0.2073  0.3196 -0.0783
 8588W        W28868  17.196  13.148   4.544  0.0914  0.1814  0.3310
 8589W        W28869   0.248  17.174   0.158 -0.1767  0.0651  0.0562
 8590W        W28870   1.590  12.636   3.078  0.2254 -0.0002  0.0333
 8591W        W28871   0.288  13.011  11.650  0.0988  0.2131  0.0420
 8592W        W28872  16.551   1.302   4.472 -0.5428 -0.1040 -0.0435
 8593W        W28873  11.914   2.220   3.671  0.0663 -0.0352 -0.1190
 8594W        W28874   5.038   5.826   0.036  0.0652 -0.0357 -0.0241
 8595W        W28875   4.832   7.901   2.072 -0.0060 -0.1539 -0.0651
 8596W        W28876  11.872   2.073  13.560 -0.1755  0.1926  0.0862
 8597W        W28877   6.917   6.487   3.733  0.2334 -0.1194  0.0327
 8598W        W28878   9.161  13.996   2.131  0.2322 -0.2833 -0.2903
 8599W        W28879  14.491   2.973  14.904  0.0959  0.0061  0.2263
 8600W        W28880  11.535  10.322  11.735  0.0835  0.1456 -0.0477
 8601W        W28881   0.373   6.897   3.334 -0.3407 -0.1727  0.1459
 8602W        W28882  13.088  11.261   5.931  0.1399 -0.2716 -0.1613
 8603W        W28883   7.472  11.064   1.982  0.4425 -0.2995  0.0066
 8604W        W28884  12.828  16.051   3.653  0.1718 -0.0349  0.1052
 8605W        W28885   1.857   8.786   0.422  0.2790  0.0347  0.0010
 8606W        W28886   1.141  13.734   3.034  0.2551  0.1673 -0.3526
 8607W        W28887   8.414  16.729  13.011  0.0615 -0.0228 -0.1849
 8608W        W28888  13.714  15.150   0.185 -0.2943 -0.0707 -0.0492
 8609W        W28889  14.820   4.314   2.164  0.2861 -0.0248 -0.1972
 8610W        W28890   0.775  11.532   3.639  0.3833 -0.0600  0.4810
 8611W        W28891   9.071   6.757   0.213 -0.1461  0.2404 -0.1499
 8612W        W28892   1.308  13.865  15.357 -0.3515  0.3333 -0.2341
 8613W        W28893  14.740   4.440   1.652 -0.2934  0.3152  0.0216
 8614W        W28894  17.166   4.830  13.291  0.0334 -0.0413  0.1585
 8615W        W28895  14.223  12.565  12.901  0.1813  0.2890 -0.0967
 8616W        W28896   0.989   8.054   2.774 -0.1450  0.1074  0.0549
 8617W        W28897   4.438  11.768   2.162  0.3530  0.0651  0.1657
 8618W        W28898  17.355  12.403   3.613  0.1771 -0.6543 -0.1701
 8619W        W28899  13.234   7.592  14.969 -0.0651  0.0310  0.0926
 8620W        W28900   9.584   9.919  13.091  0.0302  0.2693 -0.0953
 8621W        W28901  12.941   7.634  12.929 -0.0178  0.0229  0.0170
 8622W        W28902  14.634  11.768   3.066 -0.1741 -0.1920 -0.2592
 8623W        W28903  16.956   4.680   2.614  0.1066 -0.1266 -0.3159
 8624W        W28904   3.572   5.697   1.764  0.4942  0.2169  0.0802
 8625W        W28905  17.367   6.741  15.517  0.1726  0.1371 -0.0309
 8626W        W28906  11.107   5.551   3.945  0.1510 -0.0692 -0.0530
 8627W        W28907  13.300   8.795   5.048 -0.0505  0.0264 -0.0983
 8628W        W28908  12.481   0.760  14.483  0.0126  0.0388  0.0342
 8629W        W28909  16.455   2.764  12.281 -0.0782 -0.1849 -0.1776
 8630W        W28910   3.835   8.655   0.056 -0.1537  0.2319 -0.1631
 8631W        W28911   8.939   2.967   0.217  0.1017 -0.0992  0.2923
 8632W        W28912   5.205  18.124   0.086 -0.0909  0.4321  0.2482
 8633W        W28913  13.259  10.011  14.830 -0.2799 -0.0214  0.1437
 8634W        W28914   1.845  15.831  14.296 -0.2359  0.2595  0.4056
 8635W        W28915   1.595  15.145  12.755 -0.0442  0.2421 -0.2733
 8636W        W28916  14.700   2.198  14.853  0.1458  0.1485 -0.0222
 8637W        W28917  15.995   6.667  15.291  0.0291 -0.2462 -0.1247
 8638W        W28918   1.100  11.539   3.193 -0.1215  0.1773 -0.1258
 8639W        W28919   9.683   4.717   4.104  0.1527  0.1715  0.1532
 8640W        W28920   5.794  15.622  14.845 -0.1396  0.2242  0.3030
 8641W        W28921  12.073   4.659   3.148  0.0464 -0.0981 -0.2120
 8642W        W28922   0.824  18.247  15.697 -0.2237 -0.1402 -0.1562
 8643W        W28923   5.694  10.551  12.720 -0.2474 -0.0099  0.2167
 8644W        W28924   8.920   1.416  14.573  0.2633  0.3718  0.0776
 8645W        W28925   9.733   1.352  14.894 -0.4708  0.0567  0.0178
 8646W        W28926  16.290  11.585   2.816 -0.0173 -0.0933 -0.2403
 8647W        W28927   9.436   0.150   0.618 -0.3594 -0.0276  0.3013
 8648W        W28928  16.228   4.846  14.617  0.1129  0.4259  0.1878
 8649W        W28929   0.230   5.400   1.063  0.0253 -0.1573  0.1670
 8650W        W28930   3.547   6.795   1.101  0.0615 -0.1651  0.1894
 8651W        W28931   3.947   0.456  14.986 -0.3102  0.0671  0.0883
 8652W        W28932  10.896  13.823  12.481  0.0592  0.0223  0.1187
 8653W        W28933  13.051  12.776  11.539  0.1374 -0.3568 -0.2250
 8654W        W28934   1.574   2.191   0.431  0.1649 -0.1578 -0.0654
 8655W        W28935   7.059   3.182  12.684 -0.1675  0.0438 -0.1883
 8656W        W28936   8.744   7.761  13.542 -0.0819 -0.1339  0.0596
 8657W        W28937  14.298   2.061  15.199  0.0584  0.0088 -0.2351
 8658W        W28938  12.960  12.445   2.811  0.3646 -0.0862  0.0003
 8659W        W28939   6.137  16.615   2.762  0.1093  0.1816 -0.0294
 8660W        W28940  10.707  16.542  11.571  0.0429  0.0664 -0.1903
 8661W        W28941   8.874  11.118  13.040 -0.2966  0.0772  0.1478
 8662W        W28942  15.802  13.323   2.444 -0.0049  0.0308  0.1234
 8663W        W28943  16.079  13.116   1.196 -0.1081  0.0843  0.3419
 8664W        W28944  13.971   3.054   1.229 -0.4405  0.1300 -0.0864
 8665W        W28945  14.165   5.387   0.589 -0.2018  0.3317 -0.0458
 8666W        W28946   5.167  18.066  13.959 -0.0415 -0.0189  0.1382
 8667W        W28947   0.993   4.057   2.897  0.2387  0.0644  0.0422
 8668W        W28948   1.471   2.799   2.911 -0.0422 -0.0587 -0.0865
 8669W        W28949   4.827   6.228   3.390 -0.0543  0.1651 -0.0816
 8670W        W28950   3.179  11.988  10.881 -0.2689 -0.1488  0.0806
 8671W        W28951   7.600   7.727  15.618 -0.3966  0.3302 -0.2180
 8672W        W28952   8.477  18.040   4.416 -0.3888 -0.1571  0.4116
 8673W        W28953   6.514  13.462  15.155 -0.2856 -0.1618  0.0543
 8674W        W28954   3.442  11.434   0.056 -0.1997  0.0091  0.2750
 8675W        W28955   2.422   8.742  11.567  0.1730 -0.2193  0.0212
 8676W        W28956  12.638  17.460  13.107 -0.0886  0.2340  0.2831
 8677W        W28957   2.507  16.379  14.569  0.3145  0.0217  0.2522
 8678W        W28958   8.884   6.800  12.752 -0.0313 -0.1985  0.0816
 8679W        W28959   6.997   2.584   1.002  0.0444  0.0770  0.0130
 8680W        W28960   3.909   7.636  12.906  0.1053 -0.0467  0.3196
 8681W        W28961  13.989   3.476  11.490 -0.0952 -0.2728  0.0115
 8682W        W28962  18.046   3.134   1.091  0.0239  0.0327  0.3417
 8683W        W28963   8.701  15.497  14.253  0.1119 -0.1568  0.3794
 8684W        W28964  10.569  13.405  11.605  0.1181 -0.1949 -0.3152
 8685W        W28965   4.300   6.988  15.186  0.0293  0.1659 -0.0412
 8686W        W28966   8.277   0.821  14.549 -0.0247 -0.0296 -0.1351
 8687W        W28967   5.592  15.373  12.362  0.2133  0.0456 -0.0181
 8688W        W28968  10.491  11.992   3.883  0.0247 -0.1231 -0.2107
 8689W        W28969   6.920  10.597  14.962 -0.1255  0.1093 -0.1537
 8690W        W28970   8.433  13.655  13.967  0.2520 -0.3023 -0.0526
 8691W        W28971   2.175  12.958   2.252  0.2412 -0.1644 -0.0843
 8692W        W28972  15.348  17.036  15.178 -0.1870  0.3472  0.0631
 8693W        W28973   8.400  16.041   1.990 -0.1889 -0.0827  0.0456
 8694W        W28974   5.513   2.086   1.506  0.1528 -0.1422 -0.1667
 8695W        W28975   5.998   0.627  11.308 -0.0643  0.2606  0.3144
 8696W        W28976   2.340  17.134  15.773 -0.0180 -0.0689  0.2712
 8697W        W28977  16.687  16.664   2.091 -0.1758 -0.0024 -0.1438
 8698W        W28978   6.437  14.444  11.657  0.0803  0.0373  0.2606
 8699W        W28979   6.215  15.033   0.098  0.2924  0.2997  0.1660
 8700W        W28980  11.195  17.024  13.964  0.1526 -0.1988  0.1765
 8701W        W28981   2.386   8.340  11.252  0.0253 -0.0070 -0.1979
 8702W        W28982  11.382  15.920   1.599  0.1900  0.2074 -0.1660
 8703W        W28983   8.586  11.540   1.189 -0.0821  0.1671 -0.3976
 8704W        W28984   2.659   7.401  15.373 -0.1396  0.2603  0.1673
 8705W        W28985  14.277  11.087   0.158 -0.0117  0.1428  0.1817
 8706W        W28986   6.097   9.169   2.751 -0.2552 -0.1276 -0.1583
 8707W        W28987  10.204  18.075   4.014  0.0257  0.0835 -0.3333
 8708W        W28988   6.231   6.430   3.065  0.1949 -0.3153  0.2492
 8709W        W28989   6.058  15.060   2.164 -0.0954 -0.1953 -0.2447
 8710W        W28990   9.167   7.312   0.882  0.2172  0.2297 -0.2485
 8711W        W28991   9.937   8.019   0.095 -0.0599  0.0748 -0.1359
 8712W        W28992   2.316   7.876   0.544 -0.0527 -0.1669 -0.0442
 8713W        W28993  14.297   2.144   3.974 -0.0741  0.3070  0.0400
 8714W        W28994  10.827  11.518   1.178 -0.0365  0.0045 -0.1279
 8715W        W28995  15.088   6.928  11.900 -0.2712  0.1413  0.0984
 8716W        W28996  11.014   8.561  13.856  0.0254 -0.2635  0.1163
 8717W        W28997  15.478   9.508  13.463  0.3023  0.1182 -0.1301
 8718W        W28998   3.393  15.166   0.642  0.1775 -0.0989  0.3889
 8719W        W28999   9.739   5.685   1.816  0.0238 -0.2161  0.2174
 8720W        W29000   1.832  11.035  13.794 -0.0998  0.0433 -0.0095
 8721W        W29001  17.598  16.821   0.942  0.0240  0.0625  0.3202
 8722W        W29002  14.945   2.858  12.125  0.1057  0.0289  0.2072
 8723W        W29003  12.998   9.089   3.687 -0.0504  0.0194 -0.0128
 8724W        W29004   7.120   3.524   3.932 -0.0042  0.2694 -0.0313
 8725W        W29005   6.220  17.884  13.266  0.2075 -0.2321 -0.1162
 8726W        W29006  13.379  15.094   3.105 -0.1808 -0.0982  0.1295
 8727W        W29007  15.722   1.721  15.421  0.2576 -0.3510  0.0350
 8728W        W29008   5.239   0.170  11.636 -0.0816  0.1061  0.1200
 8729W        W29009   8.845   5.889  15.572 -0.1854 -0.2872 -0.3070
 8730W        W29010   1.429  14.198  15.059 -0.2267 -0.1202  0.0355
 8731W        W29011   4.805  13.708  12.176  0.0112  0.0455  0.0372
 8732W        W29012  15.837  18.305  11.390 -0.1153 -0.2358 -0.0096
 8733W        W29013  15.258   6.388   2.520 -0.1308 -0.0012  0.1028
 8734W        W29014   0.201   3.925   4.140  0.2352  0.1379  0.0360
 8735W        W29015  15.045   5.610   0.116 -0.2700  0.1710 -0.3250
 8736W        W29016   3.604   3.781  11.302 -0.0794  0.1397 -0.1783
 8737W        W29017   5.868   3.265   2.944 -0.1199 -0.0626  0.2708
 8738W        W29018   7.596   9.854   0.310 -0.1575 -0.0442  0.0451
 8739W        W29019   4.660   8.974   4.410 -0.2665 -0.4116 -0.1446
 8740W        W29020   7.577  14.513   2.843 -0.1777 -0.0214  0.1059
 8741W        W29021   5.485  11.216  11.471  0.0022  0.0473 -0.0864
 8742W        W29022   2.080   9.088   0.772  0.0238 -0.1419 -0.2038
 8743W        W29023  13.405  12.744   4.347 -0.1511  0.1282 -0.0147
 8744W        W29024   3.647   3.262  12.663  0.2975 -0.1118  0.0040
 8745W        W29025  11.669   3.202  15.359  0.5191  0.0420  0.0022
 8746W        W29026  10.437   2.770  14.684 -0.2369  0.0772  0.0248
 8747W        W29027   5.564   9.762  11.191 -0.1992  0.2414 -0.0880
 8748W        W29028  15.240  15.558  13.485 -0.1011  0.0449 -0.1666
 8749W        W29029  13.908   0.365  14.251 -0.1607 -0.0228 -0.1062
 8750W        W29030  14.391   8.982   0.977 -0.0642  0.0696 -0.0160
 8751W        W29031   8.583   7.246  13.620 -0.0440 -0.3450 -0.2319
 8752W        W29032  12.207   6.238   1.128 -0.0005 -0.0372  0.1003
 8753W        W29033   2.845  17.817   2.604 -0.3015 -0.0404 -0.1564
 8754W        W29034  13.658  16.696  12.994  0.3351  0.2592 -0.0692
 8755W        W29035  15.153  10.527   1.805  0.2500 -0.1263  0.1564
 8756W        W29036   6.726   2.580   4.648  0.2127  0.0948 -0.1226
 8757W        W29037  13.826   0.839   0.455  0.4032 -0.2848  0.0874
 8758W        W29038   5.407  10.461  14.980 -0.1796 -0.0261 -0.4085
 8759W        W29039   9.730   7.528  12.438  0.0548 -0.0610 -0.0812
 8760W        W29040   2.707   0.386   1.695  0.1379  0.0338  0.1643
 8761W        W29041  11.227  13.030  12.122 -0.5373 -0.2573 -0.2130
 8762W        W29042   5.013   7.998   0.297  0.1407  0.1099  0.1653
 8763W        W29043  10.466   6.120  14.265 -0.0297  0.0990 -0.0835
 8764W        W29044   8.120   9.663   4.277  0.0570 -0.0097  0.1260
 8765W        W29045  10.436   9.178  12.173  0.2345 -0.2482 -0.2776
 8766W        W29046  10.371   6.848   4.432  0.0855  0.0625  0.0313
 8767W        W29047  13.638   0.183  13.762  0.0399  0.2188 -0.0290
 8768W        W29048   9.595  11.682  13.991  0.2411  0.4280 -0.1437
 8769W        W29049  13.321  18.311   4.504  0.1351  0.1592  0.2762
 8770W        W29050   1.389   6.090   1.357 -0.0502  0.0806  0.1485
 8771W        W29051   6.360   0.276   4.490  0.0280 -0.2155  0.2350
 8772W        W29052   4.272  16.895   1.584  0.0493  0.1976  0.0395
 8773W        W29053  10.650  10.407  11.896 -0.0545 -0.0734  0.1741
 8774W        W29054  10.898  15.410   3.750 -0.0213 -0.1362  0.1464
 8775W        W29055  10.677   7.141  11.909 -0.2374 -0.2039 -0.1824
 8776W        W29056  15.996   0.443   1.759 -0.1072  0.1202  0.3393
 8777W        W29057   6.025   6.068   3.984 -0.1050 -0.1430  0.0207
 8778W        W29058  14.335  11.044  12.145 -0.4474  0.0969 -0.1956
 8779W        W29059  14.677   7.889   1.410 -0.3294 -0.0069  0.1237
 8780W        W29060  14.450   1.755  14.677  0.0555  0.1431 -0.0501
 8781W        W29061   1.658   6.268  11.702 -0.0373 -0.1895 -0.2471
 8782W        W29062   5.891   0.735  12.487  0.1439 -0.0235 -0.0829
 8783W        W29063  10.165   3.246  12.275  0.1489 -0.1837  0.1930
 8784W        W29064   2.260  14.082   2.058  0.1523  0.3442 -0.3599
 8785W        W29065   0.115  16.453   1.529  0.0419  0.2556  0.1066
 8786W        W29066   8.087   2.904   3.464 -0.0062 -0.0137  0.0746
 8787W        W29067   0.282  16.270   1.944  0.0936  0.0808  0.1300
 8788W        W29068  12.085  13.298  15.807  0.0365  0.1831 -0.1394
 8789W        W29069   7.489  14.236   4.849  0.2618  0.2589 -0.3036
 8790W        W29070   2.357   2.813  13.546 -0.0832  0.2809 -0.2666
 8791W        W29071   6.037  17.531   0.409  0.0425 -0.1033  0.0781
 8792W        W29072  15.184   4.630  12.117  0.0198 -0.5042  0.0720
 8793W        W29073  14.046   2.594  13.933  0.0393  0.1576  0.0601
 8794W        W29074  15.146  12.883   2.769  0.0841  0.0538 -0.0573
 8795W        W29075   3.423   9.294   1.018 -0.0043 -0.0951 -0.2855
 8796W        W29076   5.154   8.924   3.007  0.2267  0.0369 -0.0074
 8797W        W29077   9.441  11.141   4.323 -0.0156  0.0555 -0.1492
 8798W        W29078  17.428  15.084   0.464  0.0177  0.0889 -0.1808
 8799W        W29079   6.004   7.574  12.103 -0.1406  0.0652 -0.1070
 8800W        W29080  11.261  17.986   1.386 -0.1816  0.3508 -0.1209
 8801W        W29081  15.453   6.107   1.406 -0.1893  0.0728 -0.0339
 8802W        W29082   8.371  16.189   1.125  0.1686  0.2317 -0.1075
 8803W        W29083   3.953   2.625   0.384  0.1461 -0.0934 -0.2046
 8804W        W29084  12.851  11.368   2.316  0.2964  0.2180  0.4266
 8805W        W29085   5.892  10.156  15.751  0.2551  0.2261 -0.1204
 8806W        W29086  10.666   3.991   1.308  0.0227  0.2248 -0.2047
 8807W        W29087  12.869   0.353  11.731 -0.0926 -0.1885  0.0169
 8808W        W29088  17.207   0.338   4.530  0.1754 -0.0359  0.0029
 8809W        W29089   2.454  13.894  12.051 -0.0699 -0.0291 -0.0994
 8810W        W29090  10.529   9.883  15.393  0.0275  0.1483 -0.0207
 8811W        W29091   9.855   8.409  15.232 -0.0446  0.1697  0.0832
 8812W        W29092  15.085   8.600  13.456  0.0322  0.0048 -0.0225
 8813W        W29093   5.595   9.872  13.243 -0.1100  0.2358 -0.0536
 8814W        W29094   2.190  15.671  14.691 -0.0247 -0.3943 -0.1331
 8815W        W29095   9.093   7.848   3.784 -0.2343 -0.0032 -0.2708
 8816W        W29096  17.951  14.467   2.860 -0.1523 -0.1359  0.0504
 8817W        W29097  11.577  16.742   4.515  0.2884  0.1595 -0.1665
 8818W        W29098   4.735   3.897  13.105 -0.2128 -0.3113 -0.0721
 8819W        W29099  14.337  15.841  11.956 -0.2057 -0.1002  0.3263
 8820W        W29100  17.357   2.672  13.936  0.0852 -0.1604  0.0587
 8821W        W29101   6.081   3.149  11.177 -0.2738  0.2330  0.2103
 8822W        W29102   4.710   7.862  13.351  0.0480  0.0720  0.0003
 8823W        W29103   3.396   2.882   3.180 -0.2260  0.1642  0.2106
 8824W        W29104   4.846   3.371   4.315 -0.2594 -0.1067 -0.2924
 8825W        W29105   2.084   2.431  15.714  0.1605 -0.0371  0.0897
 8826W        W29106   9.951   3.750  12.469  0.0580  0.1809 -0.0597
 8827W        W29107   0.284  17.245   2.309  0.0869  0.2733 -0.1845
 8828W        W29108  15.330   0.674  11.990  0.0315  0.1287  0.0623
 8829W        W29109   2.938   7.445  13.846 -0.0012 -0.3426  0.1752
 8830W        W29110   4.019  13.043  14.478  0.1601  0.3326  0.1852
 8831W        W29111   7.018  13.743  13.941 -0.1389  0.0471  0.0097
 8832W        W29112   4.149  16.438   2.401 -0.0724 -0.1886 -0.0306
 8833W        W29113   7.238   2.306  12.645 -0.1480  0.1897 -0.0525
 8834W        W29114   2.813   2.646   0.411  0.1174 -0.1013 -0.0918
 8835W        W29115   1.035   3.813  11.298  0.2872  0.1556  0.3289
 8836W        W29116   8.667  16.836  14.254  0.3969  0.2248 -0.1925
 8837W        W29117   7.916  16.804  11.636 -0.1772  0.1824  0.0175
 8838W        W29118   8.299   1.448  12.004  0.0505 -0.0707  0.2025
 8839W        W29119  12.175  17.638   3.933 -0.0387 -0.1194 -0.2887
 8840W        W29120  13.551  17.523  13.710  0.1492 -0.0275 -0.0895
 8841W        W29121   7.710  13.244  12.828  0.1028 -0.0136 -0.0646
 8842W        W29122   4.210  17.278  13.073  0.1866 -0.0495 -0.0750
 8843W        W29123   2.943  16.041   4.183 -0.0816  0.1024  0.3354
 8844W        W29124   8.549  16.580  15.198  0.1718 -0.0455 -0.0574
 8845W        W29125  15.813   3.293  11.887 -0.2913 -0.0753 -0.0748
 8846W        W29126   4.519  18.018  12.194 -0.2381 -0.2556  0.0118
 8847W        W29127  11.372   0.080  14.838 -0.0540 -0.0729  0.1460
 8848W        W29128  12.532  10.828   4.616 -0.0161  0.0580  0.1481
 8849W        W29129   5.935  15.021   9.662  0.4017  0.1882 -0.0804
 8850W        W29130   8.373  10.206   2.502 -0.0480 -0.1055  0.1095
 8851W        W29131   1.817   8.733  14.627 -0.2964 -0.0244 -0.0918
 8852W        W29132   5.497  11.343   5.725 -0.2965  0.1499  0.0736
 8853W        W29133  13.156  12.523  13.963  0.2295 -0.0246  0.0174
 8854W        W29134  11.995   5.103   1.837 -0.2553 -0.0849  0.1368
 8855W        W29135   2.133   6.349   3.052  0.0966  0.0081  0.1772
 8856W        W29136   3.587  13.343   1.046 -0.0483 -0.1874 -0.2688
 8857W        W29137  16.104  10.490   2.883  0.2809  0.0836  0.0071
 8858W        W29138   9.079  10.907   2.849  0.0735 -0.1070 -0.0607
 8859W        W29139  16.179   7.883  15.256 -0.2688 -0.0660  0.1370
 8860W        W29140   5.789   0.150  10.446 -0.1083 -0.2371 -0.0853
 8861W        W29141   9.072   6.951  10.784  0.0997 -0.1573 -0.0485
 8862W        W29142   1.945  17.937  15.087 -0.1616  0.2917  0.0723
 8863W        W29143  17.151   7.354  12.552 -0.0666 -0.3403 -0.2432
 8864W        W29144   7.699  16.873  12.048  0.0866  0.0644 -0.1452
 8865W        W29145  11.007  14.083   0.003  0.4708  0.1288 -0.2745
 8866W        W29146   9.325  15.346   2.952  0.2429  0.3094  0.0669
 8867W        W29147  15.769   1.926  11.439  0.1514  0.0534 -0.0869
 8868W        W29148   0.819   9.671   1.814 -0.1005  0.3136 -0.0899
 8869W        W29149   3.428   0.965   4.080 -0.2505 -0.0506  0.0978
 8870W        W29150   6.501   7.629   1.961 -0.1574  0.1541  0.3591
 8871W        W29151   6.127   3.526  15.812 -0.0463 -0.1712  0.0489
 8872W        W29152   5.805  15.770   2.288  0.1192  0.0639 -0.1307
 8873W        W29153   2.842   2.784  11.859  0.1938 -0.2163 -0.3394
 8874W        W29154  11.105   8.145  13.579  0.0782  0.0249  0.0269
 8875W        W29155  16.228   4.133   3.331  0.1668  0.1300  0.0983
 8876W        W29156   5.986   5.907   0.374 -0.1079 -0.3035 -0.1469
 8877W        W29157  14.442   6.438  11.546  0.0033 -0.1330 -0.1259
 8878W        W29158  14.245  12.255  11.558 -0.1642  0.0636  0.3130
 8879W        W29159  11.621  17.662  12.465  0.2308  0.1851  0.0330
 8880W        W29160  11.601   9.130  12.694  0.2472 -0.2148  0.0833
 8881W        W29161  14.718   1.841   4.284  0.0638 -0.1057 -0.0073
 8882W        W29162   8.674  16.196  14.268  0.3244 -0.3184  0.0945
 8883W        W29163   1.134  15.686   2.581  0.0018 -0.0711  0.1660
 8884W        W29164  16.033   1.355  15.257 -0.0092  0.1640  0.2646
 8885W        W29165   9.619   6.582   1.670 -0.1494 -0.0366  0.0915
 8886W        W29166   4.388   9.631   2.959 -0.0098 -0.0580  0.1210
 8887W        W29167   8.386  12.634   0.371 -0.1664  0.0838 -0.0073
 8888W        W29168  14.765   6.327  13.415  0.1662  0.3611 -0.0656
 8889W        W29169  13.457   6.696  15.808  0.2646  0.3084 -0.1151
 8890W        W29170   8.574   7.612   4.362 -0.1536 -0.0221  0.0459
 8891W        W29171   6.479   9.550  12.792 -0.0574 -0.1791 -0.0905
 8892W        W29172  16.967   7.849   0.064  0.1842 -0.0966 -0.2476
 8893W        W29173   1.821  16.803   2.940  0.1229 -0.1231  0.1603
 8894W        W29174  11.013   6.638   0.669  0.0504 -0.1062  0.1253
 8895W        W29175   8.623   1.205   0.747  0.0089 -0.2355  0.0972
 8896W        W29176   1.858   5.421  13.903  0.0987 -0.0349 -0.0464
 8897W        W29177  15.733  14.649   2.474  0.1547  0.1329  0.4645
 8898W        W29178   5.053   2.019   2.882 -0.0512  0.0976 -0.1261
 8899W        W29179  18.317   3.768   4.570  0.5960  0.2551  0.1485
 8900W        W29180  11.327  10.249   1.705 -0.0756 -0.1001  0.0552
 8901W        W29181  16.892   2.720  10.389 -0.0210 -0.0741 -0.1102
 8902W        W29182   2.421  10.680   2.293  0.0144  0.2319 -0.0209
 8903W        W29183  16.253   2.965   1.779  0.0712  0.0933 -0.2932
 8904W        W29184   8.533   0.250  10.961 -0.1725  0.0064  0.0165
 8905W        W29185   1.973  14.720   4.232  0.0119  0.1438 -0.2410
 8906W        W29186  11.470   4.234   2.748  0.1223  0.1367 -0.3134
 8907W        W29187  12.788  17.877   1.627  0.2298 -0.0991  0.0373
 8908W        W29188   2.413  17.749   0.601  0.0075  0.0378  0.0678
 8909W        W29189  16.742   6.060  15.223  0.2857  0.1300 -0.0321
 8910W        W29190   7.073   4.034  15.723  0.3538 -0.0421 -0.0158
 8911W        W29191   3.345   4.756  12.728 -0.1081  0.0433  0.4100
 8912W        W29192  10.456  16.863  14.141  0.0164 -0.0410  0.0873
 8913W        W29193   2.289   7.103  13.214  0.0443  0.0472  0.1131
 8914W        W29194  16.404  13.867   3.797 -0.1533 -0.1005 -0.1449
 8915W        W29195  13.724   7.864  15.781 -0.0559  0.1495 -0.0362
 8916W        W29196  17.573   4.256   2.790 -0.3634  0.1862  0.1574
 8917W        W29197  11.466   6.990  13.288 -0.0752 -0.0435  0.1342
 8918W        W29198   6.241   6.367   4.343  0.1522 -0.1100  0.0122
 8919W        W29199   6.493   2.429  11.546  0.2964  0.1221 -0.0574
 8920W        W29200   3.461   0.205  14.998  0.0239 -0.0324  0.0614
 8921W        W29201  18.027   2.244   3.217  0.1410  0.2582  0.1598
 8922W        W29202   6.684   0.311  14.602 -0.1577 -0.3077  0.0476
 8923W        W29203   8.700   0.169   4.186 -0.2361  0.3118 -0.0465
 8924W        W29204   2.136   1.727   4.543 -0.3215  0.0465  0.0739
 8925W        W29205  17.083   4.659   4.507 -0.2881 -0.0329 -0.2481
 8926W        W29206  14.031   2.286  15.888 -0.0290  0.0876  0.1897
 8927W        W29207   9.940   5.719  15.718  0.0253  0.1318 -0.0981
 8928W        W29208   6.306   4.304   2.839 -0.0413 -0.1006  0.2621
 8929W        W29209   3.232   1.656   0.271 -0.0005 -0.0123  0.0749
 8930W        W29210  17.973   9.495   3.816  0.0393 -0.2705  0.0454
 8931W        W29211  14.972   9.348  15.337 -0.2154  0.1673 -0.0101
 8932W        W29212   1.324  16.086  15.459 -0.0856  0.0446  0.1182
 8933W        W29213   6.573  10.707   3.089 -0.2722 -0.1692  0.3001
 8934W        W29214  15.181   1.077   3.881 -0.1626  0.0790 -0.1109
 8935W        W29215   8.226  14.092  13.838 -0.0354  0.0008 -0.0564
 8936W        W29216   6.543  16.222   0.986 -0.1025 -0.0849 -0.1512
 8937W        W29217  11.255  15.797  13.024  0.1160  0.2010 -0.1598
 8938W        W29218  13.379  17.350  11.941  0.1080 -0.2098  0.0810
 8939W        W29219  15.292  17.974   3.255 -0.1953  0.0040 -0.2149
 8940W        W29220   8.615  14.163  12.789  0.1032  0.3018 -0.2457
 8941W        W29221   6.642   0.546   2.931 -0.4165 -0.1439 -0.2363
 8942W        W29222   2.042   2.338   0.626 -0.1233  0.0380 -0.0148
 8943W        W29223  14.887   2.191  15.412  0.0552 -0.0858  0.2177
 8944W        W29224  16.924   5.283  13.440  0.0114 -0.1571  0.1120
 8945W        W29225  11.924  12.512   0.912  0.0442 -0.1533  0.1653
 8946W        W29226  18.122  17.748   4.565 -0.2841 -0.2047  0.3023
 8947W        W29227   0.979   3.496   2.197  0.1436 -0.0309 -0.0365
 8948W        W29228   3.345   2.120  15.265  0.2352 -0.0120 -0.1379
 8949W        W29229  16.659  18.046  13.586 -0.1066 -0.1436 -0.1717
 8950W        W29230   6.859   2.403   4.176  0.0809  0.1529  0.2505
 8951W        W29231   2.850   5.473   2.359 -0.0166 -0.1460  0.2578
 8952W        W29232  13.949   7.855  13.069 -0.0709  0.3497  0.1042
 8953W        W29233  10.209   0.882  14.506 -0.2875  0.1966  0.0985
 8954W        W29234  17.267   5.102   1.484  0.3712  0.1234 -0.2300
 8955W        W29235  18.046   6.658   0.792 -0.0794  0.1183  0.1104
 8956W        W29236  10.361   6.792  12.054  0.2747 -0.2074  0.2522
 8957W        W29237  14.274  12.294  13.891 -0.2207  0.1284 -0.2279
 8958W        W29238   2.549   5.774  12.483 -0.0668  0.1437 -0.0303
 8959W        W29239   7.466  17.105  14.121  0.0648  0.1238  0.0582
 8960W        W29240  13.652  15.145  11.435  0.0600 -0.2605  0.2548
 8961W        W29241  17.574   8.782   4.253 -0.0157  0.0521 -0.2323
 8962W        W29242  13.599  10.220   4.984  0.0824 -0.1890  0.1005
 8963W        W29243   6.259  15.064  15.167  0.1106  0.2676  0.1180
 8964W        W29244   5.650   9.876  13.847  0.0059 -0.0451  0.1925
 8965W        W29245  10.266  12.759   3.367  0.3101 -0.1619  0.0094
 8966W        W29246   4.454   2.453   0.302  0.2179  0.2681 -0.3582
 8967W        W29247   2.138  12.672   1.798 -0.3812  0.1145 -0.1066
 8968W        W29248  14.335   8.297   0.550  0.1355 -0.1352  0.0969
 8969W        W29249   7.304   5.973   2.765  0.4098 -0.0935 -0.2388
 8970W        W29250   9.212  16.720  12.401 -0.1204  0.0391 -0.2055
 8971W        W29251   5.168   9.697   4.595  0.1299 -0.4000 -0.3493
 8972W        W29252  11.930   1.222  14.335  0.2272  0.2175  0.0669
 8973W        W29253   9.561  15.399   3.860 -0.2329  0.1288  0.3418
 8974W        W29254  11.521   4.096  15.577  0.2801  0.2179 -0.1705
 8975W        W29255   5.185   6.763  14.315  0.2073 -0.1278 -0.0766
 8976W        W29256   4.015   3.151   2.375  0.0740  0.0367 -0.0518
 8977W        W29257   7.153   9.689  10.831 -0.1356  0.1775 -0.1072
 8978W        W29258  18.242  13.210  13.128  0.2015 -0.0648  0.0846
 8979W        W29259   6.816  17.433  14.150 -0.3238  0.1819  0.0204
 8980W        W29260   0.805  12.909  12.448  0.2037 -0.3803  0.1228
 8981W        W29261  10.851   2.213  12.741  0.0174 -0.0806  0.1798
 8982W        W29262  17.893   8.008  13.492 -0.2546 -0.2420  0.3117
 8983W        W29263   1.600   8.418   3.854  0.2056  0.0935  0.2256
 8984W        W29264  10.555  16.748  13.174 -0.1604 -0.1928 -0.0767
 8985W        W29265  12.699   2.727  14.391  0.1028  0.5686 -0.0562
 8986W        W29266   2.071  14.895  13.522  0.0782  0.0722 -0.1919
 8987W        W29267   9.528   3.018  14.372  0.4763 -0.0233  0.1197
 8988W        W29268   2.878  15.312  14.420  0.1644  0.2301  0.1548
 8989W        W29269  14.728  16.912  14.116  0.1265 -0.1586  0.1829
 8990W        W29270  16.241   1.633  14.819 -0.0937 -0.0798  0.3591
 8991W        W29271   0.526   0.602  13.369 -0.0748  0.2006  0.1149
 8992W        W29272   4.267   1.100   0.844  0.0734  0.0078 -0.1338
 8993W        W29273   2.512  16.261  11.724 -0.4251 -0.2430 -0.3270
 8994W        W29274  13.623   9.042   3.831  0.0079  0.1866 -0.2452
 8995W        W29275  12.168   6.163  14.582  0.2412  0.2136 -0.1460
 8996W        W29276   6.593  15.659   2.727  0.1189  0.2166 -0.1085
 8997W        W29277  17.757  15.734  13.970  0.2861  0.0927  0.2358
 8998W        W29278  15.459  17.695   4.567  0.0289 -0.2872  0.0279
 8999W        W29279  16.431  17.991  13.093  0.0436  0.1158  0.1140
 9000W        W29280  11.739  13.584  14.299  0.2370  0.3927  0.0117
 9001W        W29281  17.134   1.201  14.446 -0.1307  0.0072  0.1537
 9002W        W29282   1.000  17.980   3.158 -0.0740 -0.1820  0.0527
 9003W        W29283   3.728   4.825   0.138 -0.0035  0.0854  0.2001
 9004W        W29284   6.251   3.045  14.543 -0.3018  0.1024 -0.1047
 9005W        W29285   6.949   0.067  15.508 -0.0349  0.0302 -0.0625
 9006W        W29286   1.890   9.523  15.798 -0.0529 -0.2911  0.0303
 9007W        W29287   3.004   2.906   1.983 -0.2069 -0.1477  0.0946
 9008W        W29288  10.551  17.701  12.903 -0.1519  0.0292 -0.0365
 9009W        W29289  14.378   2.011   1.119  0.0973  0.2800  0.2800
 9010W        W29290   1.872   2.627   1.581  0.0883 -0.1189  0.0516
 9011W        W29291  10.925   5.451  12.942 -0.0068 -0.0141  0.1440
 9012W        W29292  14.927   3.692   3.715 -0.2086 -0.0793  0.1153
 9013W        W29293   3.321  17.477   2.439 -0.2126  0.0035  0.3859
 9014W        W29294  11.859  12.905   0.581  0.1061 -0.2919  0.3502
 9015W        W29295   3.446   2.695   0.661  0.2591  0.0294  0.2729
 9016W        W29296  15.051   6.636   2.113 -0.1411  0.1142  0.1410
 9017W        W29297  16.572  11.512  13.235  0.1978  0.1105 -0.0163
 9018W        W29298   0.850   7.461  15.809 -0.4036 -0.1384 -0.3054
 9019W        W29299   5.610  11.741   1.298  0.0947  0.2529 -0.2456
 9020W        W29300   8.190   7.604   1.308  0.3257  0.1343 -0.0667
 9021W        W29301   4.048  11.097   2.087  0.3276  0.0040 -0.1140
 9022W        W29302  14.732  13.043   3.206 -0.2055 -0.0715 -0.0960
 9023W        W29303   4.270  12.664   3.084  0.1258 -0.1140  0.2308
 9024W        W29304  12.131   5.725   1.212  0.1733  0.3069  0.0122
 9025W        W29305  16.163   2.471   0.011 -0.0160 -0.1504  0.0151
 9026W        W29306   4.934  16.753   2.639 -0.0008  0.0452  0.3358
 9027W        W29307   3.324   3.384   3.084 -0.0248  0.1122  0.0677
 9028W        W29308  14.870  16.995   1.099  0.0666  0.1642  0.0328
 9029W        W29309   3.043  12.848   2.005  0.2736 -0.1095 -0.1795
 9030W        W29310  17.803  15.916  14.811 -0.0144  0.0457 -0.0240
 9031W        W29311   4.454   5.036   2.396 -0.0023 -0.3194 -0.1170
 9032W        W29312   9.487  11.914  12.266 -0.1537  0.0369 -0.3360
 9033W        W29313   7.785   2.835  15.307  0.1165 -0.0819 -0.2737
 9034W        W29314  13.012   1.735  12.994 -0.2463 -0.1057  0.2414
 9035W        W29315   1.630  10.371  14.425 -0.0708 -0.0428  0.2115
 9036W        W29316   9.613  15.487  13.761 -0.1936  0.3322  0.2263
 9037W        W29317   0.202   5.226   0.143  0.3224 -0.1254  0.0226
 9038W        W29318  16.911   1.900  13.925 -0.3058 -0.0935  0.0624
 9039W        W29319  13.252  14.854  14.685  0.0523 -0.3910 -0.0985
 9040W        W29320   4.048   0.415   1.922 -0.0861  0.2520  0.1761
 9041W        W29321   2.267  17.564   2.094  0.0986  0.0884  0.0891
 9042W        W29322   5.275   4.301   1.004 -0.1972  0.3414  0.0037
 9043W        W29323   8.975  12.150   4.718 -0.1244 -0.1191  0.0985
 9044W        W29324  10.091   0.908  13.581 -0.0087  0.1609 -0.0175
 9045W        W29325   0.269  10.696   4.550 -0.0385  0.0019 -0.3308
 9046W        W29326  12.601  12.175  14.705  0.1704  0.2801 -0.0253
 9047W        W29327  18.319  13.908  12.881 -0.1661  0.0524 -0.0665
 9048W        W29328  15.683  12.759  12.153  0.1046  0.2319  0.0613
 9049W        W29329  15.003   5.965   2.467  0.0068 -0.0935 -0.1825
 9050W        W29330  13.302  10.975   0.520 -0.3384 -0.0179 -0.1135
 9051W        W29331   1.627   4.818   0.013 -0.0546 -0.1153  0.0836
 9052W        W29332   9.603  17.534   2.404 -0.2666 -0.0711 -0.1089
 9053W        W29333   9.745   9.819   3.788  0.1306  0.2913  0.0523
 9054W        W29334  13.716   2.519   4.317  0.2267 -0.0640  0.1676
 9055W        W29335  12.048   2.022   1.283 -0.3882  0.0268  0.3454
 9056W        W29336   7.887   4.368  15.800 -0.1622  0.0007 -0.1695
 9057W        W29337   8.790   0.112  13.024 -0.0819 -0.0150 -0.1787
 9058W        W29338  18.156  11.604  15.166 -0.0697  0.0686  0.0333
 9059W        W29339  10.481   6.479   2.004 -0.0308 -0.0554  0.0253
 9060W        W29340   6.146   5.412   0.953  0.3114 -0.1854  0.0395
 9061W        W29341  18.154   3.974  11.356 -0.2234 -0.1452  0.0156
 9062W        W29342  11.942   2.793   3.974  0.0577  0.0905 -0.0004
 9063W        W29343   5.779   9.011  13.270  0.3462 -0.0224 -0.0129
 9064W        W29344  10.260  10.265  12.635  0.3317  0.0634 -0.2910
 9065W        W29345   4.399   4.979   0.165 -0.1122 -0.1036  0.1838
 9066W        W29346  12.358   5.380  14.028  0.1545  0.3319  0.1117
 9067W        W29347   7.343   0.135  12.713 -0.2967  0.0819 -0.0855
 9068W        W29348   4.494   3.114  12.797 -0.0254  0.2012 -0.1084
 9069W        W29349   2.634  16.497  15.025 -0.0135 -0.0913  0.2923
 9070W        W29350   0.812   3.072  11.944  0.1868 -0.0332 -0.0063
 9071W        W29351   7.468  11.676   1.195  0.2483  0.3327 -0.3268
 9072W        W29352  17.549   3.399  13.885  0.2199  0.0708 -0.0079
 9073W        W29353  13.448  14.053  11.917 -0.1421 -0.0520  0.0484
 9074W        W29354   6.989  15.267   1.755 -0.0974  0.0602  0.1830
 9075W        W29355   4.448  15.821   2.332  0.0598  0.0266  0.0279
 9076W        W29356  11.948   5.850   2.614 -0.2402  0.0836  0.0558
 9077W        W29357   4.705  10.048   0.712 -0.2879 -0.4409  0.2057
 9078W        W29358   7.920   0.355  15.268 -0.0169  0.0794  0.2127
 9079W        W29359   1.277  12.730   4.014  0.0567  0.1629  0.2085
 9080W        W29360  14.470  11.762  14.222  0.1409 -0.1400 -0.0868
 9081W        W29361   5.247   2.608   0.428  0.2994  0.0074 -0.2517
 9082W        W29362   5.794  12.729   4.046 -0.0651 -0.2041 -0.2098
 9083W        W29363  10.049   4.930  11.226  0.3491 -0.0365 -0.0824
 9084W        W29364   3.123   7.987  14.338  0.1278 -0.2245  0.1438
 9085W        W29365  12.784   9.643  14.328  0.0194  0.1230  0.1382
 9086W        W29366   0.021   2.796   0.879  0.0117 -0.3322  0.1783
 9087W        W29367   7.223  15.687  12.775 -0.2277 -0.0011 -0.0436
 9088W        W29368  16.910   6.551  15.416  0.1121 -0.1449 -0.1077
 9089W        W29369   3.337  11.140   3.761 -0.0139  0.1380 -0.4423
 9090W        W29370   0.553  18.173  11.825 -0.3369  0.0900  0.0682
 9091W        W29371   7.146   6.294  12.752  0.0932  0.2178  0.3262
 9092W        W29372   0.962  15.233  12.387  0.1685 -0.0509 -0.3095
 9093W        W29373   5.048   8.636  13.015  0.4353  0.1018  0.0278
 9094W        W29374  16.890  13.168   4.003 -0.0864  0.1842 -0.5531
 9095W        W29375   7.512  17.760  12.979  0.0348  0.1469  0.2946
 9096W        W29376   5.018  13.636   1.398  0.1154 -0.3273 -0.0770
 9097W        W29377  16.044  12.399   0.890  0.1376  0.2189  0.2421
 9098W        W29378   6.279   2.190  14.840  0.1685  0.2800  0.0122
 9099W        W29379  14.109   9.919   4.116  0.1881  0.0728  0.2622
 9100W        W29380   8.858  10.003  12.652  0.3171 -0.2175  0.3370
 9101W        W29381   1.652  14.058  13.637  0.2108 -0.0859  0.0716
 9102W        W29382   9.598  16.143   2.319  0.1902 -0.0069 -0.0047
 9103W        W29383  16.056  10.406   5.000 -0.0248 -0.1354  0.1460
 9104W        W29384   4.827   1.837  10.377 -0.1129  0.1396  0.0437
 9105W        W29385  12.280  14.449   4.794  0.0697  0.1112 -0.1283
 9106W        W29386   8.622  16.307  12.895  0.0430  0.2168  0.2518
 9107W        W29387  11.696  11.838  14.936  0.1553  0.1225  0.2331
 9108W        W29388   0.980  11.419   2.725  0.3607 -0.1561  0.1415
 9109W        W29389   6.760  15.494   2.272  0.1793 -0.2983 -0.1804
 9110W        W29390  11.979   9.318  13.773 -0.0498 -0.2276  0.0840
 9111W        W29391  12.701   2.731   1.023 -0.1399  0.3274  0.0637
 9112W        W29392  11.704  14.129  14.166  0.2996  0.1711  0.2123
 9113W        W29393  12.419  10.603  15.377  0.3320 -0.0913  0.3578
 9114W        W29394  10.418   4.784   1.015  0.0007  0.0755  0.2661
 9115W        W29395   0.408   6.626   0.300  0.0353  0.1384  0.0250
 9116W        W29396  14.510   3.955   0.585  0.1200  0.1447 -0.1236
 9117W        W29397   8.151  17.157   2.465  0.0168  0.2896 -0.4720
 9118W        W29398   0.775  14.485   0.523  0.2804  0.0943 -0.2606
 9119W        W29399   6.626  13.577   1.722 -0.0099 -0.0441  0.0568
 9120W        W29400  16.243   9.520  14.483 -0.0076 -0.0135  0.1321
 9121W        W29401  13.290  12.620  15.346  0.3174  0.1853 -0.0090
 9122W        W29402  17.444   0.339  15.576  0.0896 -0.0470  0.0680
 9123W        W29403   2.679  14.310   0.608 -0.0750 -0.0375  0.0265
 9124W        W29404   1.287  15.364   4.547 -0.0022  0.0998  0.4305
 9125W        W29405   3.171  12.418   1.750 -0.1715  0.1913  0.1465
 9126W        W29406   9.229  10.263  12.923  0.2416 -0.0718  0.0675
 9127W        W29407  12.723  12.057  15.205  0.3433 -0.0157 -0.0379
 9128W        W29408  10.140   7.714  12.899 -0.0303 -0.0463  0.2240
 9129W        W29409   4.323  10.974  13.825 -0.2454  0.1689  0.4079
 9130W        W29410   5.418   3.228  11.978  0.2414  0.1137  0.2211
 9131W        W29411   8.897   5.033   0.776  0.0570 -0.0742 -0.1420
 9132W        W29412   8.995  16.844  15.045  0.2346  0.0669  0.0285
 9133W        W29413  14.227   4.257  12.256  0.0029 -0.1010  0.2836
 9134W        W29414  11.815   5.119   3.032 -0.1277  0.0335 -0.3983
 9135W        W29415   2.326   3.548  14.462 -0.0109 -0.3078 -0.0960
 9136W        W29416  13.732   7.332  13.127 -0.2568  0.0090  0.0583
 9137W        W29417  15.200   7.258  12.778  0.0578 -0.2239 -0.1307
 9138W        W29418  10.032   4.817   3.713 -0.2080 -0.1776  0.0997
 9139W        W29419  10.057  16.596  14.102 -0.0734 -0.0950 -0.0093
 9140W        W29420   4.277   5.938  12.415  0.0307 -0.1868 -0.3186
 9141W        W29421  11.420  11.298  13.820 -0.0165  0.0553 -0.1153
 9142W        W29422   2.980   1.673  12.785  0.0499  0.0226 -0.0748
 9143W        W29423  12.905  12.804  12.774  0.1469 -0.1341 -0.3056
 9144W        W29424  10.996   3.123   0.044  0.3681  0.1882 -0.0988
 9145W        W29425  14.172   8.660  14.564  0.0902  0.2175 -0.1138
 9146W        W29426  17.674   6.096   2.512 -0.2012  0.0882  0.0560
 9147W        W29427  11.869   0.590  13.807 -0.4570 -0.2057 -0.1796
 9148W        W29428   1.661   4.003  11.669 -0.0073  0.3432  0.1063
 9149W        W29429   3.364  16.819  11.393  0.3919  0.3068  0.1224
 9150W        W29430   9.475   6.964   1.073 -0.0365  0.1442  0.2415
 9151W        W29431  10.354  12.557  14.652 -0.2327 -0.2533 -0.0062
 9152W        W29432   4.497  17.707  15.766  0.1317 -0.1389  0.0981
 9153W        W29433   8.871  10.755   3.681  0.0535 -0.5442  0.1240
 9154W        W29434   5.665   4.808   2.179  0.2153  0.2584  0.1752
 9155W        W29435   9.245  17.521   1.161  0.0794 -0.0579  0.0484
 9156W        W29436  16.226   9.588   4.351 -0.1072  0.0959  0.0990
 9157W        W29437  10.358   6.012   1.780 -0.3842 -0.0406 -0.1627
 9158W        W29438  17.119   3.966  11.493  0.0116 -0.2304  0.2457
 9159W        W29439  15.660   5.629  14.803  0.0210 -0.2339  0.1014
 9160W        W29440   0.961   2.484   3.925 -0.3096  0.2346  0.2453
 9161W        W29441   5.071  15.275  13.206  0.0082 -0.0141 -0.4148
 9162W        W29442   7.287  15.545  14.668  0.1961 -0.2468  0.0779
 9163W        W29443  14.138  16.633   4.247 -0.1144  0.0079  0.2660
 9164W        W29444   3.848   3.213   1.901  0.0341 -0.2029  0.0521
 9165W        W29445  11.317  17.250  12.922 -0.2781  0.0630 -0.1412
 9166W        W29446  11.266   5.786   0.686 -0.1231 -0.2620 -0.0813
 9167W        W29447  16.501  13.945  12.462 -0.2960  0.1813 -0.1320
 9168W        W29448  12.905   8.590  15.033  0.0886  0.1449 -0.0781
 9169W        W29449  11.534   0.632   0.148  0.0773  0.0717  0.3038
 9170W        W29450  17.358  10.956   2.418  0.1772  0.0221 -0.0726
 9171W        W29451   6.856   8.762   0.579 -0.0478  0.0506 -0.1609
 9172W        W29452  10.333   8.325   2.212  0.2343 -0.0329  0.0709
 9173W        W29453   1.494   3.610  12.377  0.2152 -0.3410  0.1719
 9174W        W29454   9.374   5.338  13.947 -0.0965 -0.0314 -0.0236
 9175W        W29455  17.296  12.018  14.398  0.2611  0.0829  0.2836
 9176W        W29456  10.830   3.467  15.290 -0.2867 -0.2512 -0.0810
 9177W        W29457  14.411   6.723  13.534  0.1108  0.2642 -0.2622
 9178W        W29458  12.910  15.984   2.819  0.0319 -0.1990  0.0723
 9179W        W29459   1.423   7.288   2.496 -0.1137 -0.1259  0.0144
 9180W        W29460  15.350  14.648   1.163 -0.3810  0.0819 -0.0988
 9181W        W29461   2.684   3.173  14.659 -0.0644 -0.1724 -0.2896
 9182W        W29462   7.952   4.187   3.261 -0.1127  0.0459 -0.1858
 9183W        W29463  18.070   3.206   5.133  0.0613  0.1528  0.0137
 9184W        W29464   4.076   6.932  15.602  0.0145  0.2132  0.0775
 9185W        W29465  12.510  14.135   3.216  0.0587  0.1186 -0.1271
 9186W        W29466   9.174   8.978   1.727 -0.0270 -0.1356 -0.1067
 9187W        W29467   1.104  16.025  11.645  0.2937 -0.3923  0.0636
 9188W        W29468  15.552  13.542  15.192 -0.0057  0.2332  0.1846
 9189W        W29469   7.298  18.052  15.450  0.2682 -0.1065  0.4053
 9190W        W29470   8.560   3.736  11.111 -0.1646 -0.3802 -0.1132
 9191W        W29471   1.716   7.007  13.362  0.0327 -0.0715 -0.2230
 9192W        W29472  10.278  10.700  11.712 -0.0600  0.0519 -0.0219
 9193W        W29473  12.927   4.039  12.200 -0.0211 -0.0668 -0.0384
 9194W        W29474  13.080  16.706  15.654  0.0508 -0.0350 -0.1542
 9195W        W29475   7.434  10.162  15.644  0.1425  0.0423 -0.3066
 9196W        W29476  14.963  10.044   2.860  0.2116  0.1971  0.0912
 9197W        W29477   8.273  18.131  15.410 -0.0064  0.0191 -0.1884
 9198W        W29478  13.648  14.325   4.441 -0.0424  0.0320 -0.2716
 9199W        W29479   8.069   4.478  11.235 -0.1477 -0.0169  0.3366
 9200W        W29480  10.368   4.505   4.521  0.2905 -0.1921 -0.0691
 9201W        W29481   5.337   0.172  14.122 -0.0708  0.2338 -0.0666
 9202W        W29482   0.935   3.577   3.013 -0.0892  0.0277 -0.3690
 9203W        W29483  10.534  14.614   5.335  0.2468  0.0007 -0.1404
 9204W        W29484  10.670  16.003  11.738  0.0934 -0.2804 -0.1321
 9205W        W29485   6.449  10.075   2.459  0.3765  0.0453  0.0233
 9206W        W29486   1.017  17.132   4.448  0.3381 -0.0163  0.0904
 9207W        W29487   9.352  10.941   1.167  0.2647 -0.2939  0.0567
 9208W        W29488  10.946   1.453  12.506 -0.0360 -0.1086  0.2297
 9209W        W29489  11.099  15.243  12.526  0.1535 -0.2870 -0.2018
 9210W        W29490   6.674   7.535   3.854 -0.0252  0.1130  0.0516
 9211W        W29491   8.281   1.520   3.577  0.0271 -0.2668  0.1981
 9212W        W29492   0.325   5.994  12.276  0.3093 -0.0375  0.0605
 9213W        W29493  10.206   0.570   1.423 -0.0686 -0.4001 -0.1825
 9214W        W29494  10.325  17.197  12.108 -0.1423  0.3199  0.1152
 9215W        W29495   8.673   9.423  14.665 -0.1827  0.1848 -0.2447
 9216W        W29496   6.148   1.962  13.917 -0.0895  0.2801  0.0269
 9217W        W29497   3.726   1.531  15.916  0.0738  0.1141  0.2511
 9218W        W29498  16.172  13.374   1.781  0.0983 -0.3290  0.2186
 9219W        W29499  12.878   4.901   3.019 -0.0378 -0.0772  0.2265
 9220W        W29500  16.058   6.449  12.193 -0.1916  0.1988 -0.1940
 9221W        W29501  15.001  15.003  13.371  0.2972 -0.1317 -0.0648
 9222W        W29502  10.432   5.486  13.684 -0.1019  0.1237 -0.2453
 9223W        W29503   6.816   0.008   3.285 -0.1568 -0.3270  0.3294
 9224W        W29504   7.330  10.920  15.661 -0.2036 -0.3207 -0.0982
 9225W        W29505  13.114  10.093   4.593 -0.3963  0.0278 -0.0035
 9226W        W29506  17.677  14.746   0.249  0.0967 -0.0758 -0.0776
 9227W        W29507  15.189   8.638   4.096  0.1089  0.4660  0.1973
 9228W        W29508   5.836  16.722  12.370 -0.0493  0.3020  0.0491
 9229W        W29509   2.303   1.446  11.019  0.0616  0.0393  0.0112
 9230W        W29510  11.999  16.387  15.005  0.0601  0.0003  0.0360
 9231W        W29511   7.460  10.585   0.009 -0.1145 -0.1332 -0.2183
 9232W        W29512   7.267   2.840  11.732 -0.1350  0.1737  0.0334
 9233W        W29513   2.145   8.016  13.301 -0.2030 -0.4466  0.3184
 9234W        W29514   9.682   9.879   2.231  0.1898 -0.3519 -0.3212
 9235W        W29515   4.712  17.574  14.787 -0.0692 -0.0387  0.2483
 9236W        W29516  15.282   3.788  12.953  0.0712  0.0452 -0.3273
 9237W        W29517  10.820   8.915  12.800 -0.2413 -0.1199 -0.2353
 9238W        W29518   9.153   8.692  13.894  0.0955  0.2423 -0.1916
 9239W        W29519   4.694  12.660  15.795  0.0651  0.0032  0.2367
 9240W        W29520  11.482  16.714  13.761  0.0163  0.0946 -0.0373
 9241W        W29521   2.449   7.635  13.699 -0.0370 -0.1053 -0.2239
 9242W        W29522   0.940   2.870   2.939 -0.2218 -0.2069 -0.1507
 9243W        W29523   4.228   0.707  14.370  0.1240 -0.0852  0.0201
 9244W        W29524   2.870  10.535   2.638 -0.0047 -0.2050  0.1105
 9245W        W29525   0.668  16.687   3.525  0.2648 -0.1328  0.1678
 9246W        W29526   0.946   4.654   1.633 -0.1223  0.0612 -0.0385
 9247W        W29527  16.543   2.414  12.713  0.0941  0.0700 -0.1672
 9248W        W29528  14.524   5.936   1.456  0.2740  0.0885  0.1961
 9249W        W29529  16.094   8.843  15.490 -0.2491  0.0853  0.0309
 9250W        W29530  18.108  10.847  11.808  0.1412 -0.0106  0.1027
 9251W        W29531   9.030  18.082  13.859  0.3972 -0.1410 -0.2340
 9252W        W29532   6.117   6.828  15.107 -0.1063  0.1245  0.1224
 9253W        W29533  13.006  13.769   3.840  0.0493 -0.2151 -0.1404
 9254W        W29534   5.298  15.298  15.795 -0.1135  0.3837  0.2571
 9255W        W29535  15.529   1.368   0.533  0.1340 -0.0530  0.3921
 9256W        W29536  13.132  12.152  15.508  0.0153  0.2190  0.0257
 9257W        W29537  11.487   7.383   0.803  0.0505  0.2714 -0.0229
 9258W        W29538  18.090   8.215   3.104  0.0772 -0.0544 -0.2459
 9259W        W29539  11.039  10.325  11.580 -0.0939  0.0041  0.0167
 9260W        W29540   4.635   0.752  14.053  0.0862  0.3388 -0.1694
 9261W        W29541  16.026  11.324   3.143  0.0096 -0.0225 -0.2265
 9262W        W29542  10.200  15.863  11.898 -0.4120 -0.3211 -0.1310
 9263W        W29543   2.027   2.016   0.241  0.2332  0.1330 -0.0497
 9264W        W29544   0.483  13.842  12.110 -0.3086  0.3750 -0.3551
 9265W        W29545  15.082  16.680   3.504  0.1722 -0.0092 -0.1149
 9266W        W29546  13.507  14.594  13.576  0.0107 -0.1329 -0.0229
 9267W        W29547   9.097   0.547   4.596 -0.0431 -0.0131 -0.0296
 9268W        W29548   2.167   4.729  11.460 -0.2329  0.1861 -0.2262
 9269W        W29549  15.906  12.589  15.097 -0.0775 -0.1769 -0.1218
 9270W        W29550   8.171  17.858   0.472 -0.2075 -0.1731  0.4206
 9271W        W29551  13.384   3.778  13.856 -0.0765  0.1263 -0.0197
 9272W        W29552  16.312   6.570   3.331 -0.0939  0.4149  0.2451
 9273W        W29553  14.600   5.062  13.356  0.3441 -0.1013  0.3471
 9274W        W29554   6.264   7.465  14.920 -0.0663 -0.1972  0.0937
 9275W        W29555   9.619   1.414  11.539  0.0374  0.1102  0.0663
 9276W        W29556   8.052   7.064  10.384 -0.2833 -0.1957  0.1730
 9277W        W29557   9.835  12.894   0.859 -0.3477 -0.1343 -0.1273
 9278W        W29558  13.748   3.318   3.030 -0.1116 -0.1992 -0.2404
 9279W        W29559   0.090   9.229   2.527 -0.1990 -0.1943  0.0407
 9280W        W29560  16.689   0.785   3.750  0.0502 -0.2284 -0.1980
 9281W        W29561   0.877  10.118   1.980  0.0997  0.1048 -0.2336
 9282W        W29562   4.090   4.503  14.045 -0.1462  0.0362  0.0739
 9283W        W29563   6.995   8.400   1.794 -0.2517 -0.2285 -0.2078
 9284W        W29564  11.308   2.639  11.378 -0.0268  0.0751 -0.0924
 9285W        W29565  12.345  16.075  14.834 -0.2082  0.1181 -0.2297
 9286W        W29566  17.551   0.099  12.405 -0.0024 -0.0821  0.0388
 9287W        W29567   0.736  12.018  10.868 -0.0698  0.2690 -0.0521
 9288W        W29568  10.128  14.593   2.290 -0.1852  0.3080 -0.0895
 9289W        W29569   3.629  13.136  10.572  0.0997 -0.0323  0.1524
 9290W        W29570   8.296  13.946  12.086  0.1968  0.2225 -0.0756
 9291W        W29571  12.476   8.172   2.142 -0.0270  0.4726  0.2303
 9292W        W29572  18.023   3.391   4.306 -0.0440  0.0242 -0.0276
 9293W        W29573   1.340  12.672  14.730  0.1032  0.2225 -0.0061
 9294W        W29574  12.340  13.068   4.506 -0.0036  0.2359 -0.0785
 9295W        W29575   2.466  12.130  11.617 -0.0566  0.0042  0.0278
 9296W        W29576   6.743   5.157   3.008 -0.2625 -0.1099  0.0540
 9297W        W29577  12.054   7.435  10.585 -0.1633 -0.0748  0.2464
 9298W        W29578  11.307   1.819  15.798 -0.0610  0.0078 -0.1188
 9299W        W29579  12.174  10.466   1.302 -0.0749 -0.1576  0.0730
 9300W        W29580   2.373   8.936   2.996  0.0867  0.0785  0.0967
 9301W        W29581  11.301  14.265   3.265 -0.1466  0.0767 -0.4034
 9302W        W29582  12.837  12.800  13.270  0.1538  0.1358 -0.2323
 9303W        W29583  17.476  13.434   3.355  0.0492  0.0652 -0.0802
 9304W        W29584  12.677  17.453  13.668 -0.0888 -0.0724 -0.1779
 9305W        W29585   5.451   2.882   1.748 -0.1728 -0.0254 -0.0731
 9306W        W29586   0.073  17.905  15.536 -0.0308 -0.3182  0.2551
 9307W        W29587   3.276   4.114   4.102  0.1825  0.1402 -0.0791
 9308W        W29588  16.674   0.802  14.992  0.2123 -0.0962  0.0663
 9309W        W29589  12.678  14.106   4.637 -0.3055 -0.0540  0.0608
 9310W        W29590   2.681  12.782  14.865  0.0019 -0.0860 -0.1158
 9311W        W29591  11.951  14.966   3.315 -0.5378 -0.0366  0.0785
 9312W        W29592   2.061   2.235   3.299  0.0999  0.0736 -0.2311
 9313W        W29593   8.222  16.645  14.470  0.0086  0.3960  0.0231
 9314W        W29594   8.284  16.967  13.987  0.1540 -0.2000 -0.0767
 9315W        W29595   0.361   9.262  13.639  0.0107  0.0327 -0.0569
 9316W        W29596   4.365   2.288   2.413 -0.0116 -0.1690 -0.2428
 9317W        W29597   1.406  15.670  14.904 -0.3025  0.0828  0.2927
 9318W        W29598   7.867   7.117  12.301  0.1239 -0.0372 -0.3049
 9319W        W29599  14.802   1.193   3.547 -0.1229  0.0525 -0.0473
 9320W        W29600   7.556   0.727  13.442 -0.1755 -0.1848 -0.1643
 9321W        W29601   2.358   4.242  12.775  0.2660 -0.2701  0.0079
 9322W        W29602   6.518   6.799  12.421 -0.0366 -0.0400  0.0876
 9323W        W29603  14.531  12.132  11.980  0.1579 -0.0086  0.0707
 9324W        W29604  17.437  15.973  13.110 -0.2962  0.1412 -0.2796
 9325W        W29605   8.957  13.350  15.290 -0.0237 -0.1988  0.3285
 9326W        W29606   6.090   2.947  14.018  0.0840 -0.2031 -0.1538
 9327W        W29607   7.253  17.086   3.281 -0.1819 -0.1985  0.2418
 9328W        W29608   4.626   4.346   4.393  0.0288  0.0306 -0.2465
 9329W        W29609   6.233  11.539   2.682 -0.1107  0.2135  0.0628
 9330W        W29610  15.710   8.726   0.434  0.2860 -0.0384 -0.1468
 9331W        W29611  15.527  14.077   1.552  0.0315  0.0015  0.0466
 9332W        W29612  11.246   5.286   2.384 -0.0928  0.3898 -0.0903
 9333W        W29613  13.897   4.611   2.758  0.2689  0.1757 -0.2235
 9334W        W29614   2.574   9.991  15.932 -0.3073 -0.2092 -0.1128
 9335W        W29615  17.517  14.221  14.921  0.1273  0.1093 -0.0086
 9336W        W29616   9.818   3.670  14.084 -0.1811  0.3024  0.0390
 9337W        W29617  14.627   6.904   2.905  0.0782  0.2020 -0.1276
 9338W        W29618  13.149  11.845   4.165  0.2798 -0.1249  0.2893
 9339W        W29619   8.459  15.562   1.804 -0.1989  0.1649 -0.0662
 9340W        W29620   3.720  10.734   3.485 -0.3105  0.2326 -0.1261
 9341W        W29621  12.968   4.697  12.835  0.3465  0.4202 -0.1488
 9342W        W29622  11.167  10.037   2.830  0.0303 -0.2399 -0.1748
 9343W        W29623   4.504  10.720   1.353 -0.0736  0.2345  0.0716
 9344W        W29624  15.170  10.416   0.061  0.1900  0.2120 -0.1995
 9345W        W29625  13.623   4.476  15.268  0.0457 -0.1172 -0.1179
 9346W        W29626   3.184   3.985   0.106  0.0510 -0.2420 -0.3156
 9347W        W29627  10.114  17.142  12.528  0.0904 -0.2781  0.1676
 9348W        W29628   2.882   8.822  15.258  0.0413 -0.1448  0.3333
 9349W        W29629  12.692  16.860  12.012 -0.1209 -0.1861  0.0457
 9350W        W29630  13.572   3.081   3.487 -0.0879 -0.0532 -0.1491
 9351W        W29631  10.959   5.256   2.796 -0.2727  0.0994 -0.0962
 9352W        W29632   7.808  16.781   2.288  0.0287 -0.2075  0.1927
 9353W        W29633   3.359  12.060  11.388 -0.3230 -0.0600  0.1221
 9354W        W29634  11.471   0.095  15.844  0.0418 -0.1214 -0.1873
 9355W        W29635  11.108  13.969   3.701 -0.0252 -0.4844  0.1312
 9356W        W29636  10.566  11.316   0.414 -0.0175 -0.0204 -0.0271
 9357W        W29637  14.873  10.667   5.267 -0.0335  0.2831 -0.1241
 9358W        W29638   6.525  15.132   3.063  0.1651 -0.2608 -0.4888
 9359W        W29639  14.859   6.012   0.471 -0.1470  0.1520  0.0377
 9360W        W29640  17.185  13.857  12.026  0.3065  0.1900 -0.1435
 9361W        W29641   1.816   0.899   1.743 -0.1601 -0.3629  0.0685
 9362W        W29642  18.015   5.708   3.844 -0.0497  0.1169  0.0856
 9363W        W29643   2.031  17.488  11.304  0.0466 -0.1645  0.0691
 9364W        W29644  13.168   4.134   1.042 -0.3212  0.4926 -0.0160
 9365W        W29645  17.371   3.476  14.511  0.1852  0.0725 -0.1486
 9366W        W29646  13.358   0.355   2.423  0.1679 -0.2644 -0.0539
 9367W        W29647   0.550  17.898  14.200  0.4463  0.0178  0.1169
 9368W        W29648   0.456  15.021  14.679  0.2298 -0.3099  0.1484
 9369W        W29649  15.469  14.130  13.793 -0.0986 -0.3045 -0.1880
 9370W        W29650   7.694  16.147  14.068  0.3474  0.0307  0.1126
 9371W        W29651  15.092  12.760  15.705  0.0461  0.2920  0.2234
 9372W        W29652   4.093  10.669  14.212  0.0639  0.2339 -0.0271
 9373W        W29653   6.368   8.421   0.005  0.0233 -0.5309  0.0198
 9374W        W29654  15.029   8.551  14.802  0.2851 -0.1890 -0.2612
 9375W        W29655  16.960  12.708   0.020  0.0340 -0.0769 -0.4264
 9376W        W29656   9.407   4.988  11.719 -0.2373  0.1229  0.0640
 9377W        W29657  10.144   8.670   1.151  0.0386  0.1180  0.3236
 9378W        W29658  10.551  17.674   2.718  0.0116  0.3250  0.1646
 9379W        W29659  16.177   2.370  13.410 -0.3286 -0.1491  0.0561
 9380W        W29660   7.735  11.819  13.403 -0.0380  0.0383 -0.1196
 9381W        W29661   2.024   4.475   1.366 -0.1244  0.0474  0.0170
 9382W        W29662   2.958  15.385  12.443  0.1069  0.0784  0.0455
 9383W        W29663   0.688   2.711  13.024 -0.2693  0.0928  0.0834
 9384W        W29664   6.956   5.962  15.914  0.1116  0.0646  0.1076
 9385W        W29665   9.354   3.283  13.473 -0.0667  0.1835  0.0649
 9386W        W29666   4.494   9.152  13.541 -0.0682 -0.0975  0.1439
 9387W        W29667   6.283  13.723   3.305  0.1625  0.2007 -0.1725
 9388W        W29668   6.936   7.868   4.165  0.1421 -0.2235 -0.3137
 9389W        W29669   9.760   2.785   4.293 -0.0176 -0.0248  0.2002
 9390W        W29670  10.231  15.683  12.756  0.1004 -0.0881 -0.0722
 9391W        W29671  12.100   5.739   3.823  0.1776 -0.0374  0.2039
 9392W        W29672  12.427  17.286   4.213 -0.1677 -0.1135  0.2500
 9393W        W29673   6.743   3.467   3.017 -0.0766  0.2959 -0.0754
 9394W        W29674   2.225   7.207  15.064 -0.0746  0.2383 -0.2030
 9395W        W29675  11.354  13.879  11.663 -0.2759  0.1284 -0.1641
 9396W        W29676   4.158   4.562   0.224  0.3043  0.0226  0.2079
 9397W        W29677  13.086  10.945   4.643  0.0650 -0.2712  0.0223
 9398W        W29678  15.766   1.853  12.377  0.1736 -0.0835  0.0136
 9399W        W29679  11.306   9.945  13.746  0.0840  0.0816 -0.1234
 9400W        W29680   3.179   0.406  15.343  0.0598 -0.2118  0.0523
 9401W        W29681  16.537  12.884  11.333  0.0244 -0.0611  0.0266
 9402W        W29682   6.975   3.762   0.258 -0.2998 -0.1100  0.1719
 9403W        W29683   8.393  13.738  12.617 -0.0867 -0.2656  0.0831
 9404W        W29684   3.272   0.832   2.201 -0.0539  0.1969 -0.1465
 9405W        W29685   8.810   6.732   4.957 -0.0902 -0.1393 -0.2334
 9406W        W29686  13.131   9.954   1.704 -0.0662  0.2075  0.0184
 9407W        W29687   9.572  10.644  14.996  0.1734  0.1287  0.2583
 9408W        W29688   4.793   0.770   2.731 -0.0927 -0.1260  0.2830
 9409W        W29689   9.995   9.085   0.017  0.0076 -0.2410 -0.0959
 9410W        W29690   5.565   1.117  12.525 -0.2597  0.1959  0.0828
 9411W        W29691   9.726  15.462   0.778  0.2483 -0.1341 -0.1564
 9412W        W29692  12.328  11.891  12.698 -0.2301  0.1307 -0.3367
 9413W        W29693   0.259   2.342  10.368  0.1278  0.2763  0.2066
 9414W        W29694  11.455   3.274   4.834 -0.1011 -0.1877 -0.1605
 9415W        W29695  13.029   2.344   1.046 -0.1954  0.0786  0.0271
 9416W        W29696   4.226   7.279   2.150 -0.3039 -0.4444 -0.0275
 9417W        W29697   9.167   2.255   4.037 -0.1489 -0.1621  0.3090
 9418W        W29698  13.174  12.430   1.537 -0.1262 -0.1655 -0.0439
 9419W        W29699   2.095   2.265  14.573  0.2790 -0.0857  0.0488
 9420W        W29700  18.318   6.580  12.698 -0.1454  0.0944 -0.0924
 9421W        W29701   6.370   2.468  13.903 -0.0055 -0.1162 -0.1513
 9422W        W29702   6.726  17.798   1.181  0.0555 -0.0355 -0.0695
 9423W        W29703   9.541   3.219  11.606  0.0978  0.0909 -0.3202
 9424W        W29704   9.948  15.351  12.939 -0.1303  0.1722  0.0473
 9425W        W29705   6.911   1.293  15.674  0.1072 -0.0736  0.0880
 9426W        W29706   4.163   5.388  14.189 -0.0443  0.0980 -0.0869
 9427W        W29707   0.770   7.406  14.836  0.2392  0.1587 -0.1123
 9428W        W29708   3.138   7.127   2.015 -0.1500 -0.2971 -0.0315
 9429W        W29709  13.938   6.850  14.258 -0.4352  0.3030 -0.1071
 9430W        W29710  13.649   8.431  12.174  0.2318 -0.5484 -0.0551
 9431W        W29711   8.994  13.860  15.320  0.1320  0.0558 -0.1263
 9432W        W29712  11.986  10.491   4.728 -0.1519  0.0637 -0.2293
 9433W        W29713   9.791   6.855  11.958  0.3261 -0.0336  0.4744
 9434W        W29714   5.662  14.406  12.194 -0.3330  0.2617  0.1446
 9435W        W29715   4.864  15.129  14.039  0.1832 -0.0047 -0.1197
 9436W        W29716   5.938   0.496  12.949 -0.1353 -0.3060  0.0644
 9437W        W29717   0.553   8.632   1.791 -0.5354  0.1647 -0.0674
 9438W        W29718   1.282  15.067   0.854  0.2059 -0.0793 -0.0945
 9439W        W29719   7.582   8.986   1.341 -0.1350 -0.1332  0.2845
 9440W        W29720   4.171   4.567  12.779 -0.0399 -0.3720  0.1036
 9441W        W29721   5.364   5.154   0.224  0.2347 -0.2016  0.1810
 9442W        W29722  17.300   1.641   0.207  0.0923 -0.0884 -0.1417
 9443W        W29723   4.121   6.432  15.341  0.0299  0.0855 -0.0879
 9444W        W29724   6.809  14.216   2.034 -0.1961 -0.1429  0.1062
 9445W        W29725  11.316  18.138  15.500 -0.3479  0.3241  0.2110
 9446W        W29726   1.331   8.726   0.498  0.0512 -0.3955  0.0347
 9447W        W29727  14.485  15.675   4.571 -0.3165  0.0492  0.3100
 9448W        W29728  13.594   0.060  12.170  0.0909 -0.0834 -0.1739
 9449W        W29729  12.829  17.263   0.687  0.1998  0.2179 -0.1475
 9450W        W29730   9.925  11.360   2.307  0.1861 -0.1239  0.2631
 9451W        W29731   6.708   9.970   2.937  0.0223  0.1227 -0.1726
 9452W        W29732   5.414  11.685   2.893  0.0469 -0.0267 -0.0915
 9453W        W29733  14.418  16.706   0.931  0.3007  0.0498  0.3279
 9454W        W29734   9.633   7.100   1.673  0.0593 -0.1624  0.1749
 9455W        W29735   2.984   2.082  13.075  0.0683  0.2629  0.3380
 9456W        W29736   2.758   5.555  14.440  0.1128  0.0968  0.2996
 9457W        W29737  16.183   2.325   4.281 -0.3442  0.2452  0.0939
 9458W        W29738   9.033   4.442  14.116  0.0369 -0.0309 -0.0769
 9459W        W29739  11.291   3.412   2.660 -0.0576  0.0534 -0.0429
 9460W        W29740  12.147   1.549  14.706 -0.0729 -0.2002  0.1672
 9461W        W29741   8.010  11.955  10.984 -0.2389 -0.3521 -0.1788
 9462W        W29742   9.962  10.401   0.383 -0.5554 -0.2303 -0.0792
 9463W        W29743   2.901  10.276  12.041 -0.0247  0.1908  0.2110
 9464W        W29744   4.064  10.536  11.166  0.2579  0.2769  0.2380
 9465W        W29745  11.539  14.936   1.430 -0.0878 -0.0674  0.0889
 9466W        W29746   3.861  16.934  12.781 -0.0991  0.3639  0.1619
 9467W        W29747  11.838  14.578   0.571 -0.0552  0.3438 -0.2497
 9468W        W29748  12.109  13.380  11.773 -0.2571  0.1715  0.0402
 9469W        W29749  11.184  16.522  13.407  0.1316  0.1987  0.1142
 9470W        W29750   2.548   2.074  12.669 -0.0043  0.1279 -0.0067
 9471W        W29751  12.594   5.315  15.907  0.0083  0.2295 -0.1352
 9472W        W29752  11.659  12.564  11.827 -0.2241  0.2269 -0.0260
 9473W        W29753  14.388   8.823  11.844 -0.1087  0.1814 -0.3595
 9474W        W29754   2.432  10.444  12.237 -0.0936 -0.0905 -0.0115
 9475W        W29755   6.543   5.453  12.468  0.0786 -0.0490  0.1592
 9476W        W29756   8.855   0.614  12.836 -0.2047 -0.0659 -0.1913
 9477W        W29757   9.610   9.681  11.820  0.0593 -0.0293  0.2190
 9478W        W29758  14.153  14.150   2.507  0.0065  0.0153 -0.1150
 9479W        W29759  17.310  11.453  13.350  0.2037  0.2685  0.0464
 9480W        W29760   9.382  10.772  15.511 -0.1230  0.1537 -0.1239
 9481W        W29761  10.153  17.997   0.897 -0.2376 -0.2894  0.1002
 9482W        W29762   9.912   2.339   4.459  0.2262 -0.2880  0.0832
 9483W        W29763   2.702  15.385   2.578  0.0277 -0.2777 -0.1712
 9484W        W29764   4.309   1.767  14.726 -0.0020 -0.0909  0.1338
 9485W        W29765   0.023  13.658   0.543 -0.2278 -0.2306  0.2216
 9486W        W29766  14.838   0.732   0.254 -0.0141 -0.0362 -0.1902
 9487W        W29767  13.742  15.325   1.830  0.0539  0.0928 -0.0155
 9488W        W29768  11.576  12.091  12.105  0.0093 -0.2432  0.2394
 9489W        W29769  15.688  10.374   2.670 -0.0604  0.0194  0.2357
 9490W        W29770   6.349  12.963  15.654 -0.1051  0.1133  0.1026
 9491W        W29771   2.568   7.195   1.156  0.0269 -0.1173 -0.1629
 9492W        W29772  15.444  10.160   3.084  0.1146 -0.2631 -0.1355
 9493W        W29773  14.590   7.321  11.937 -0.1657  0.0482 -0.1303
 9494W        W29774  16.484  15.421   3.907  0.2015 -0.0721  0.0086
 9495W        W29775   5.598   8.352   4.084 -0.2087 -0.0610 -0.1772
 9496W        W29776   3.747   7.977   3.761 -0.0562 -0.1341 -0.2212
 9497W        W29777  12.108  15.021   4.208 -0.1759 -0.0351 -0.4742
 9498W        W29778   6.611  16.595  12.590  0.0207 -0.0154  0.0559
 9499W        W29779  14.001  10.406  14.390  0.0257 -0.1687 -0.0533
 9500W        W29780  11.390   8.235   4.441 -0.0476 -0.1772 -0.0509
 9501W        W29781   6.614   3.750  13.853 -0.1188 -0.1231  0.1076
 9502W        W29782  14.876  17.495  15.162  0.3213 -0.2264 -0.1142
 9503W        W29783   5.617  12.549   1.791  0.0513 -0.0086 -0.1650
 9504W        W29784   6.862   6.598   0.628 -0.2137  0.1255 -0.1089
 9505W        W29785  15.963  13.451   0.195  0.0506  0.0485  0.0606
 9506W        W29786  16.874  15.084  12.902 -0.0799 -0.0090 -0.1923
 9507W        W29787  18.227   8.789   1.642  0.0907  0.0345 -0.2571
 9508W        W29788   2.190   6.123  12.396  0.1174  0.0126 -0.0697
 9509W        W29789   5.209   5.193   1.521 -0.0957 -0.1241 -0.1816
 9510W        W29790   3.597   6.987  13.397  0.0337 -0.1443  0.0356
 9511W        W29791  14.381  12.690   0.304 -0.2268  0.3715  0.1480
 9512W        W29792  14.035   9.453   4.279  0.1290  0.1216  0.2665
 9513W        W29793  14.353  15.247  13.965  0.2744 -0.1449 -0.2327
 9514W        W29794   5.967   7.101  12.176  0.1781  0.0165  0.0589
 9515W        W29795   2.582  10.919   1.551  0.0097  0.2041  0.0255
 9516W        W29796   0.637   7.271  13.230  0.0910  0.0479  0.2911
 9517W        W29797  12.036   7.963   2.456 -0.0507 -0.0310  0.0672
 9518W        W29798   3.703   5.092   4.316  0.0901  0.1001 -0.1306
 9519W        W29799  15.501  17.349   3.299  0.0178 -0.0785 -0.2297
 9520W        W29800   0.931  13.910  12.719 -0.0690  0.1064 -0.0461
 9521W        W29801   7.917  10.777  12.662  0.1370 -0.1300 -0.1326
 9522W        W29802  14.188  10.531  14.883 -0.2274  0.1424 -0.0854
 9523W        W29803   4.788  15.519   3.246 -0.4121  0.0951 -0.0942
 9524W        W29804  18.183  11.818  13.913 -0.1055 -0.2334  0.0191
 9525W        W29805   8.223  13.029   3.173 -0.1915  0.0475 -0.0219
 9526W        W29806   2.946  18.070   3.539  0.1206  0.1670 -0.1295
 9527W        W29807   7.298   7.561  12.744 -0.1106 -0.0118  0.0530
 9528W        W29808  10.579   7.431   4.507  0.0432  0.0781 -0.0424
 9529W        W29809  16.984  16.515   4.144 -0.1413  0.0936 -0.1827
 9530W        W29810   8.143  14.393  12.936 -0.0139  0.2177  0.1533
 9531W        W29811  12.982   5.379   3.209 -0.1211 -0.0782 -0.0480
 9532W        W29812  17.205   6.238  15.695  0.1808  0.0011 -0.0153
 9533W        W29813  10.265   3.503   1.757  0.0319 -0.1496  0.0458
 9534W        W29814   8.043  17.661  14.556  0.1167 -0.1179  0.3532
 9535W        W29815  16.783  18.046   0.666 -0.1154 -0.0562  0.0400
 9536W        W29816   7.648  11.900  11.444  0.3948 -0.0341 -0.0017
 9537W        W29817   8.574   1.276   2.047 -0.0491 -0.2459  0.1152
 9538W        W29818   3.870   0.717  11.446  0.0421  0.0319 -0.0468
 9539W        W29819  17.973   7.368   5.667  0.2246 -0.2111  0.1650
 9540W        W29820   1.991   4.131  13.309 -0.1350  0.0086 -0.4243
 9541W        W29821   0.823  11.071   3.408 -0.0866  0.2299  0.0736
 9542W        W29822  15.807  16.480   1.810  0.0065  0.1103 -0.2418
 9543W        W29823   7.600   8.524   1.540 -0.2420  0.0238  0.2646
 9544W        W29824   8.801  13.129  12.043  0.4248  0.2289  0.1362
 9545W        W29825   9.167  15.427  13.949  0.0060 -0.0100  0.0214
 9546W        W29826  17.590   2.545   1.131  0.0413 -0.0762 -0.1049
 9547W        W29827   5.340   1.506  14.068 -0.2312  0.2483  0.0351
 9548W        W29828  10.376  17.224   2.542 -0.1078  0.0036 -0.1311
 9549W        W29829   2.151   8.200   4.587 -0.0344 -0.3723 -0.2893
 9550W        W29830  14.508   5.403  15.117 -0.1855 -0.0425 -0.0172
 9551W        W29831  12.230   3.368  13.045 -0.1002 -0.1512 -0.2367
 9552W        W29832  17.765   3.628   2.955  0.1797  0.0450  0.0042
 9553W        W29833  14.698  10.641  15.540  0.0015  0.1842  0.0327
 9554W        W29834   0.835   2.438  11.566  0.2541  0.0342 -0.0668
 9555W        W29835  15.040  16.832   2.023 -0.0346  0.1710  0.1322
 9556W        W29836  10.716  10.801   4.650 -0.2062 -0.1383  0.0300
 9557W        W29837   0.144  15.102  11.963 -0.0944  0.1363 -0.2322
 9558W        W29838   4.755   9.588  14.747 -0.1388  0.2788 -0.1446
 9559W        W29839   8.666  12.825   5.054  0.1478 -0.2528  0.2878
 9560W        W29840  10.661  14.478  14.042  0.1846  0.1154  0.1408
 9561W        W29841   9.001   0.919  15.511  0.2494  0.1052 -0.1730
 9562W        W29842   7.555  16.894   3.851  0.2236 -0.4507  0.0459
 9563W        W29843   8.153   6.595  13.001  0.2468  0.1840 -0.0136
 9564W        W29844  10.965   4.491  15.122  0.2777 -0.0283  0.1771
 9565W        W29845   7.283  11.628  13.442  0.2461 -0.0717 -0.0544
 9566W        W29846   3.860  15.036  11.432  0.1308 -0.2425  0.0743
 9567W        W29847   5.531   5.865   3.405  0.2105 -0.0209  0.3525
 9568W        W29848  11.690   3.401  14.810  0.2805  0.3509  0.0765
 9569W        W29849   2.192  14.380   0.961  0.1134 -0.1246  0.3916
 9570W        W29850   9.665  16.872  12.467  0.0705  0.1110 -0.1833
 9571W        W29851  12.069  10.961   4.540 -0.2167 -0.0682 -0.1405
 9572W        W29852   4.127  10.207   4.514 -0.0675  0.1977 -0.3638
 9573W        W29853  10.893  10.125   1.983  0.0429 -0.0300 -0.2318
 9574W        W29854   3.160  10.556  14.886  0.0515 -0.3715 -0.1387
 9575W        W29855  12.269   0.015  13.765  0.0702  0.1283 -0.0469
 9576W        W29856   3.277  16.204   0.280 -0.0306 -0.1711  0.1948
 9577W        W29857   8.283   5.646  13.174  0.1204 -0.0808  0.0580
 9578W        W29858   6.736  10.438   2.710 -0.2010 -0.0980  0.3279
 9579W        W29859   1.525   4.151   1.619  0.0080  0.1938 -0.0662
 9580W        W29860   2.147  13.307   0.008  0.0870  0.1968 -0.0199
 9581W        W29861   6.830  14.317   0.046 -0.1115 -0.2939 -0.1814
 9582W        W29862   7.044  16.902  13.992 -0.0211  0.0531  0.1626
 9583W        W29863   5.371  16.724  15.544 -0.1971 -0.2212 -0.1080
 9584W        W29864  14.321   5.362   3.206 -0.2359  0.2927 -0.0263
 9585W        W29865  11.364   3.141  14.506 -0.0890 -0.1455  0.2921
 9586W        W29866   4.392   7.731   2.194 -0.2585 -0.0995  0.4722
 9587W        W29867  12.442   2.561  12.995 -0.1736 -0.0630 -0.3278
 9588W        W29868   2.041  13.314   0.537  0.0696 -0.1022 -0.4073
 9589W        W29869   1.375   6.688   3.824  0.0525  0.0495 -0.1885
 9590W        W29870   9.983   8.678  12.386 -0.1123  0.1960  0.2081
 9591W        W29871  12.126  15.473  13.912 -0.1413 -0.1996  0.0310
 9592W        W29872   7.974   1.152   4.625  0.0893 -0.0841 -0.2076
 9593W        W29873   5.245  11.950   3.777 -0.3625  0.0425  0.2095
 9594W        W29874   5.557  13.359  13.059  0.0104 -0.2105 -0.0735
 9595W        W29875  12.438  13.226   0.746  0.2519 -0.0323 -0.0910
 9596W        W29876   8.907  12.803  13.355  0.2402  0.1043 -0.0353
 9597W        W29877   5.312   8.060  13.923  0.0735  0.2837  0.5054
 9598W        W29878  12.685   4.292  13.523 -0.1620 -0.2105 -0.1105
 9599W        W29879   4.119   1.904  15.902 -0.0868  0.0837 -0.1773
 9600W        W29880   1.258  18.311  13.645 -0.0800  0.0068 -0.0030
 9601W        W29881   7.294   9.674  15.820  0.4280 -0.1158  0.3153
 9602W        W29882  17.710  16.385  13.237  0.1818  0.1099  0.1147
 9603W        W29883  16.499  13.607  13.123  0.0485  0.1755 -0.2727
 9604W        W29884   0.042  17.067   0.863  0.0414 -0.0003  0.0080
 9605W        W29885  14.510   9.756   0.245 -0.2079  0.0649  0.0871
 9606W        W29886  15.133   7.717   1.316 -0.0209  0.0961 -0.1563
 9607W        W29887   5.861  13.789  12.108  0.2994  0.0378  0.0085
 9608W        W29888  15.721  16.414   0.351  0.0892 -0.1568  0.1682
 9609W        W29889   1.316   9.993  14.583 -0.1001  0.1864  0.0665
 9610W        W29890   3.821  14.567   1.449 -0.1493 -0.2578  0.1265
 9611W        W29891   6.544   7.673   3.397  0.0730 -0.0964 -0.2448
 9612W        W29892  11.486   4.737   0.245 -0.0314 -0.3543 -0.0311
 9613W        W29893   3.879  16.964  13.307  0.1825 -0.0338  0.0688
 9614W        W29894  14.797   1.712   1.869 -0.0411 -0.0014 -0.0718
 9615W        W29895   4.541   4.514   1.517 -0.1866  0.2361  0.0157
 9616W        W29896  18.242  16.146  13.018  0.1005 -0.2344 -0.0079
 9617W        W29897   3.271  11.017   3.239 -0.1500 -0.0738 -0.1280
 9618W        W29898  13.701  15.614  14.451  0.1599  0.1520  0.1503
 9619W        W29899   9.781   6.868  14.942 -0.2571 -0.2615 -0.0328
 9620W        W29900  16.953  11.224   4.782 -0.2506  0.1031 -0.5558
 9621W        W29901   0.470  12.595   3.824 -0.3696 -0.1332 -0.4946
 9622W        W29902  12.189  13.890   2.923 -0.2466 -0.1277  0.0799
 9623W        W29903   6.905  13.655   0.717 -0.0391  0.1041  0.0687
 9624W        W29904  18.086   7.803   0.368 -0.1495 -0.1701  0.1448
 9625W        W29905  14.538  14.323   2.896 -0.0333  0.0525  0.2149
 9626W        W29906   9.338  15.886  14.885 -0.0063 -0.2094 -0.2768
 9627W        W29907   3.065  16.068  11.032 -0.2188 -0.1620 -0.0434
 9628W        W29908   5.847   9.621   2.373 -0.1461 -0.0727  0.0548
 9629W        W29909  12.921   5.389  13.310 -0.6137 -0.2616  0.0365
 9630W        W29910   8.804  15.826  14.682 -0.1572 -0.1088  0.2475
 9631W        W29911  12.330   0.446   4.643 -0.0248 -0.2376 -0.2024
 9632W        W29912   4.325  17.873   0.705  0.0882  0.0557 -0.0721
 9633W        W29913   2.682   7.102   2.943 -0.0514 -0.1450  0.1047
 9634W        W29914   1.934   3.731  15.729 -0.0459  0.0636 -0.1644
 9635W        W29915   8.178  14.370   3.682 -0.0875 -0.4269  0.3545
 9636W        W29916   9.397   1.756  14.824 -0.1987  0.0327 -0.2953
 9637W        W29917   6.581   2.157  12.002  0.1469  0.0976 -0.0795
 9638W        W29918   7.771  16.937   0.968  0.0252  0.0940  0.0449
 9639W        W29919   9.642  11.076  15.229 -0.0078 -0.1150 -0.2062
 9640W        W29920  11.855   7.188   1.989 -0.0454  0.1421  0.0923
 9641W        W29921  14.213  10.679  15.431 -0.1689  0.0400  0.1937
 9642W        W29922  15.012   3.292   3.442 -0.0155  0.0129 -0.1752
 9643W        W29923  17.510   7.001  12.576 -0.0461 -0.1056  0.3693
 9644W        W29924  11.796   4.153   5.663  0.0654 -0.1551  0.0183
 9645W        W29925   3.930  15.624  13.754  0.0629 -0.1471 -0.2524
 9646W        W29926  16.068   5.259  14.881  0.4165 -0.1111 -0.3399
 9647W        W29927   1.589   7.489   4.331  0.0286 -0.0716 -0.0450
 9648W        W29928   5.947  12.560  15.369 -0.2570  0.1266 -0.2523
 9649W        W29929  15.540   7.833   3.635 -0.0084 -0.1651  0.3214
 9650W        W29930   3.670  11.551  14.725  0.1056 -0.1218 -0.2251
 9651W        W29931   5.448  10.610  14.483 -0.0425  0.1567 -0.1010
 9652W        W29932   5.693   3.631  14.748 -0.0095  0.2086  0.0628
 9653W        W29933   9.609   5.343   2.415 -0.1487  0.0053  0.1156
 9654W        W29934   8.983  13.163   4.604 -0.4846  0.2644  0.1871
 9655W        W29935   1.496   0.418  15.360 -0.0671 -0.1490  0.0030
 9656W        W29936  12.094  18.052  14.903 -0.1377 -0.0084  0.2225
 9657W        W29937  15.101   5.203   1.736 -0.1062 -0.1902 -0.0615
 9658W        W29938  12.226  10.176  15.507  0.3786  0.0872 -0.0727
 9659W        W29939   9.476   6.923  15.432 -0.0154  0.1715  0.1646
 9660W        W29940   8.173   9.755   1.032 -0.1610  0.2074  0.1183
 9661W        W29941  15.828   7.484  15.325  0.1097 -0.3900 -0.2257
 9662W        W29942   2.755   3.544   4.210  0.0604 -0.1627 -0.0414
 9663W        W29943   2.508   8.054   3.068 -0.3781  0.1629  0.1735
 9664W        W29944   1.754  15.732  15.547 -0.0133  0.1667  0.2421
 9665W        W29945  12.632  12.355   3.818  0.1055 -0.0606 -0.2681
 9666W        W29946  17.264  16.029   1.530 -0.2376 -0.2100 -0.1913
 9667W        W29947   2.119   9.129  11.658  0.0421 -0.1504  0.2796
 9668W        W29948  10.794  10.042  11.105  0.2852 -0.3344  0.0358
 9669W        W29949   8.871  15.816  13.938  0.2648 -0.1857  0.1978
 9670W        W29950   0.201  13.625   2.092 -0.1200  0.3303 -0.1460
 9671W        W29951  11.125   5.438   3.246 -0.0324 -0.0466 -0.2594
 9672W        W29952  11.144  12.322   1.052 -0.2361 -0.0608 -0.3134
 9673W        W29953   4.334  16.099  15.119 -0.1808 -0.0782 -0.2202
 9674W        W29954   9.381   7.983   2.149 -0.1036  0.3788 -0.1960
 9675W        W29955  12.390   4.680  13.852  0.2700  0.3696 -0.0070
 9676W        W29956   8.404   7.924   1.010  0.1889 -0.1366  0.1311
 9677W        W29957   1.328  17.619   3.462 -0.1843  0.0900  0.0190
 9678W        W29958  11.073   9.212  13.356 -0.1063 -0.1928 -0.2226
 9679W        W29959  14.986  10.180  15.506  0.1118  0.3080 -0.1467
 9680W        W29960   3.912   0.494   3.069  0.0209 -0.0460 -0.1372
 9681W        W29961  12.223   2.758   0.140 -0.0663  0.0285 -0.1752
 9682W        W29962  14.093   1.121   1.414  0.1842 -0.1720  0.1696
 9683W        W29963   4.235  12.490  12.158 -0.0678 -0.2943  0.2469
 9684W        W29964   6.524  17.260  11.681 -0.0605 -0.1645 -0.2059
 9685W        W29965   3.195  16.458  15.258  0.3376  0.0047 -0.0849
 9686W        W29966  16.718   8.157   2.534  0.1869  0.2265  0.0652
 9687W        W29967  18.260  10.136   2.565  0.0945 -0.0591 -0.3956
 9688W        W29968  13.121  18.211   0.075 -0.2073 -0.1652  0.0469
 9689W        W29969  14.844  13.553   1.994 -0.1262 -0.0250  0.0234
 9690W        W29970   4.356  11.904   5.440 -0.0844  0.1375 -0.0303
 9691W        W29971   3.574   1.815   0.952 -0.0615 -0.1662  0.3133
 9692W        W29972  13.083  17.905  12.621  0.3967 -0.4173  0.0060
 9693W        W29973  12.377  13.284   4.101  0.0335 -0.0587  0.1148
 9694W        W29974   8.968  11.579  14.709  0.0530 -0.1382  0.1785
 9695W        W29975   6.020  17.140   3.660 -0.1396  0.0271  0.0200
 9696W        W29976   2.621  14.441  14.512 -0.4009  0.1682  0.0275
 9697W        W29977  17.686   3.672   2.028  0.0584  0.2248  0.1826
 9698W        W29978   2.502   8.822  15.672  0.1483 -0.1419 -0.0452
 9699W        W29979   1.838   2.239  15.080 -0.1376 -0.0649 -0.2430
 9700W        W29980   2.478  10.131  12.657 -0.3891 -0.0555 -0.1978
 9701W        W29981   5.588  16.301   0.583 -0.0255 -0.0834 -0.1338
 9702W        W29982   5.535   6.724   1.039 -0.0488 -0.0468  0.2927
 9703W        W29983   3.550  17.858  13.209 -0.1140 -0.0518  0.0098
 9704W        W29984   0.580   0.194  12.494 -0.0264 -0.0869 -0.0224
 9705W        W29985  15.521   6.272   4.035  0.0723  0.1079  0.0166
 9706W        W29986  17.620   2.507   3.431 -0.2127  0.0229 -0.1487
 9707W        W29987   7.642  14.505   5.721  0.0666 -0.0016 -0.1283
 9708W        W29988   1.376  12.164   4.015 -0.1720  0.1315 -0.2379
 9709W        W29989   2.435   1.145   0.719 -0.0477 -0.1831  0.0739
 9710W        W29990  13.036  16.959   2.572 -0.2917  0.0393  0.2383
 9711W        W29991   0.220   1.015   1.276 -0.1501  0.2316  0.2417
 9712W        W29992   0.631   7.687   3.039  0.3568 -0.2987 -0.0942
 9713W        W29993  17.553  13.380   4.844  0.0094  0.3489  0.3135
 9714W        W29994   7.538   1.649   4.453 -0.1577  0.0683 -0.0505
 9715W        W29995  15.608  10.755   3.703 -0.0534 -0.1915 -0.1220
 9716W        W29996   0.075   1.991   3.469 -0.0296  0.1029 -0.2248
 9717W        W29997   3.518  13.828   2.681  0.3176 -0.1579  0.1454
 9718W        W29998   2.342   2.181   2.443 -0.0120  0.0618 -0.0156
 9719W        W29999  13.884   1.938  11.747 -0.2879  0.1388  0.0264
 9720W        W30000   8.548  17.715  15.272  0.0571  0.2734  0.1756
 9721W        W30001   4.674   7.707   0.543 -0.1165  0.1465 -0.0901
 9722W        W30002   9.225   0.280   2.551  0.0359 -0.0522 -0.0285
 9723W        W30003  11.295  14.328  11.434 -0.1632  0.0454  0.1507
 9724W        W30004   4.504   6.859   4.003 -0.0690  0.0436  0.2245
 9725W        W30005  17.310  16.991  12.747  0.0750 -0.0660 -0.0527
 9726W        W30006   2.844  14.807   3.450  0.2185  0.0705  0.0171
 9727W        W30007   7.514   0.004   0.572  0.1070 -0.1507  0.2719
 9728W        W30008   0.096  10.162   1.646  0.1114  0.0353 -0.1196
 9729W        W30009  10.829  15.439   2.329  0.2446  0.0300  0.0448
 9730W        W30010  17.552   8.405  15.912 -0.0063  0.0106  0.0451
 9731W        W30011   2.137   7.316   2.190  0.0735 -0.2003  0.1508
 9732W        W30012  14.612  15.203   3.242 -0.0468  0.0306 -0.3830
 9733W        W30013  14.532   3.426  12.318  0.3459 -0.0048  0.1181
 9734W        W30014  12.058   4.377  14.356 -0.0463 -0.0122 -0.3367
 9735W        W30015  10.185  10.711   3.693  0.0633  0.2352  0.1142
 9736W        W30016   7.784  12.535  15.662 -0.2330  0.3926 -0.0951
 9737W        W30017   0.542   4.210  13.587 -0.0471 -0.3584 -0.3847
 9738W        W30018   5.994  16.315   3.629  0.2391 -0.0097 -0.1883
 9739W        W30019   5.370  13.585   2.791  0.1454  0.0654  0.1266
 9740W        W30020  10.570  12.671  15.699  0.1398  0.0901  0.3611
 9741W        W30021  16.095   7.389   2.063  0.0864  0.0526 -0.0691
 9742W        W30022   4.134  15.240  11.857  0.0516 -0.0689 -0.1354
 9743W        W30023   5.413   1.411  11.404 -0.1438 -0.0656 -0.1128
 9744W        W30024   4.522   8.186  13.830 -0.0854 -0.1344  0.4597
 9745W        W30025  13.501  10.148   0.058  0.0916  0.0027  0.0403
 9746W        W30026   1.836  13.189   1.290 -0.0105 -0.2109 -0.1537
 9747W        W30027   3.343   6.309  15.467 -0.1546 -0.1201 -0.1254
 9748W        W30028   0.182  11.675   4.380  0.1882 -0.2899 -0.0139
 9749W        W30029  17.279  14.792   1.818  0.1317 -0.0538  0.1957
 9750W        W30030   7.634   9.742   4.370  0.0037  0.0378 -0.0375
 9751W        W30031   1.612   1.334   4.018  0.1116  0.0823  0.1621
 9752W        W30032   5.584  12.182   3.247  0.0439  0.0357 -0.0568
 9753W        W30033   9.006   7.364  11.795 -0.2262  0.0584 -0.0868
 9754W        W30034   7.193   6.382   1.745 -0.0834  0.0143  0.2037
 9755W        W30035  10.788  16.713   0.889  0.2570  0.0978  0.4428
 9756W        W30036  11.608  15.054   3.883 -0.0128 -0.1488  0.0877
 9757W        W30037   1.969   8.736   4.548  0.2267 -0.1319 -0.3517
 9758W        W30038   1.607   4.346  10.998  0.1996  0.1116 -0.0924
 9759W        W30039   7.558  12.891   4.365 -0.0037  0.1213  0.0079
 9760W        W30040  12.468   2.213  13.416  0.1541  0.1480 -0.0784
 9761W        W30041  13.314  17.510  15.466  0.1084 -0.0369  0.0065
 9762W        W30042   6.372   2.106  15.367  0.0878  0.1153 -0.0773
 9763W        W30043   8.967  13.442   2.795  0.0303 -0.0185 -0.0524
 9764W        W30044   9.279  14.845   1.784 -0.0165 -0.0440 -0.2919
 9765W        W30045  11.226   7.711  14.429  0.3005 -0.1166  0.2768
 9766W        W30046   1.643   1.461   0.954 -0.0287 -0.1131  0.0321
 9767W        W30047   0.519   6.407  13.192 -0.4220  0.2289  0.0895
 9768W        W30048  11.464   1.902   1.017  0.0986 -0.1210  0.2080
 9769W        W30049  12.642   4.292   1.765  0.0871 -0.0033 -0.0227
 9770W        W30050  13.918  14.280   0.920  0.2046  0.0114 -0.1212
 9771W        W30051  14.506   2.563  14.555  0.0445  0.2067  0.0352
 9772W        W30052   1.531  13.622  12.394 -0.0581  0.2843 -0.1290
 9773W        W30053  15.048   7.673   2.774  0.1601 -0.2003  0.0303
 9774W        W30054   3.013  17.149  14.328 -0.1060  0.0461  0.0609
 9775W        W30055   7.173  11.883  15.286 -0.3539  0.1413 -0.2884
 9776W        W30056  10.882   5.020   1.000 -0.1319 -0.2362 -0.2489
 9777W        W30057   4.816   5.185   3.058 -0.1757  0.0337  0.0962
 9778W        W30058   4.589   0.817  13.108 -0.1145 -0.3736 -0.0295
 9779W        W30059   9.110   4.158  15.579  0.4507 -0.1637 -0.1247
 9780W        W30060   4.177   4.352  11.873 -0.2431 -0.0674 -0.0378
 9781W        W30061  10.536  15.987  12.296  0.1313 -0.0212 -0.1325
 9782W        W30062  11.935  11.852   4.137  0.1593 -0.2475 -0.1378
 9783W        W30063   1.081   4.980   0.738  0.1068  0.0258  0.1495
 9784W        W30064  14.022   4.528   0.969 -0.3187 -0.2654  0.2088
 9785W        W30065  15.417  10.543  13.300  0.0210 -0.0300 -0.1703
 9786W        W30066   1.781  13.766  15.044 -0.0068 -0.0745 -0.1531
 9787W        W30067  14.522   9.814   4.339  0.2674 -0.1411 -0.2982
 9788W        W30068   0.263  17.006   1.567 -0.2234  0.1390  0.1258
 9789W        W30069  10.545   4.148   4.250 -0.1617 -0.0329 -0.1526
 9790W        W30070   6.877  17.225  11.244  0.0796  0.0753  0.0822
 9791W        W30071   3.245   9.283   0.141  0.1115  0.2131 -0.0640
 9792W        W30072  13.375   1.313  11.782 -0.1136 -0.0866  0.0971
 9793W        W30073  14.401   8.942   2.392 -0.0188  0.0357 -0.1965
 9794W        W30074  17.964   4.731  14.621 -0.2230  0.0916 -0.0509
 9795W        W30075  14.085   3.805  13.055  0.1786 -0.1996  0.0264
 9796W        W30076  15.346  10.557  12.291  0.0086  0.0913 -0.3515
 9797W        W30077  10.398  15.279  13.098 -0.0076  0.2026  0.0674
 9798W        W30078  13.930  17.353   3.715 -0.0494 -0.0368  0.0342
 9799W        W30079  11.808   2.373  14.668 -0.1413  0.0797  0.4174
 9800W        W30080   3.002   5.471   1.601  0.1133  0.3786 -0.1609
 9801W        W30081  17.357   2.183  13.912  0.1104 -0.2175 -0.0817
 9802W        W30082  13.748   8.815  14.830  0.2418  0.0961 -0.0156
 9803W        W30083  15.325  10.605  14.219  0.4098  0.3213 -0.0083
 9804W        W30084   3.277  13.990  15.620 -0.0962 -0.0616 -0.0183
 9805W        W30085   8.373   8.853   4.766 -0.1242  0.2957 -0.1112
 9806W        W30086  16.295   5.035  11.650 -0.3285  0.1431  0.0605
 9807W        W30087  14.223  12.277   3.851  0.1523  0.0731  0.0425
 9808W        W30088  15.714  10.870  12.095 -0.0286  0.0588 -0.2671
 9809W        W30089  14.886   6.603   4.664  0.0902 -0.2279  0.0946
 9810W        W30090  17.497  14.509  13.548 -0.1800 -0.1081 -0.2781
 9811W        W30091   3.659  18.186  15.288 -0.0637 -0.3208  0.1431
 9812W        W30092  14.386  11.720  15.203 -0.2826  0.0598  0.0086
 9813W        W30093   1.186  12.189  14.010 -0.1768  0.0481 -0.1795
 9814W        W30094   1.395   1.897   0.855 -0.1748 -0.0041  0.0090
 9815W        W30095   4.848   5.598  11.789 -0.1290  0.1686 -0.2909
 9816W        W30096  10.792   6.720   1.102 -0.0330  0.2825  0.1954
 9817W        W30097  17.959  13.150   2.279  0.2453  0.0146 -0.2777
 9818W        W30098   3.181   5.276  11.897 -0.2060  0.2500 -0.0112
 9819W        W30099  11.001  15.982   3.103  0.0272 -0.2607  0.0756
 9820W        W30100   0.753  17.620   4.513 -0.2196  0.1607  0.1082
 9821W        W30101   1.999  16.143   4.134 -0.1713  0.0225  0.0556
 9822W        W30102  11.773  11.845   1.310  0.0122  0.0651 -0.0006
 9823W        W30103  14.760   6.503  12.689  0.0865 -0.2152  0.1207
 9824W        W30104  17.340  17.705   2.890  0.0805 -0.1116 -0.0991
 9825W        W30105   1.142   3.728   1.761 -0.3012 -0.1085  0.1472
 9826W        W30106   2.974  16.406   3.202  0.0751  0.4604  0.1188
 9827W        W30107   4.628  10.516   1.944  0.0655  0.2245  0.0382
 9828W        W30108   7.220  13.062   2.230 -0.0784 -0.2264  0.3162
 9829W        W30109  15.028   9.825   0.176 -0.1681 -0.1074  0.1575
 9830W        W30110   2.548   3.325   3.369  0.0167 -0.0512  0.2079
 9831W        W30111  13.519  10.238   1.815 -0.2596 -0.0766  0.2333
 9832W        W30112  16.629   0.442   1.893 -0.0609  0.0289 -0.1598
 9833W        W30113  12.570  14.695  14.150  0.3588 -0.1407 -0.2824
 9834W        W30114   3.982  17.839   3.102 -0.2013  0.2176  0.0705
 9835W        W30115  14.093  15.029  13.037 -0.1784  0.1663  0.0876
 9836W        W30116  18.261   7.076  12.861  0.1428  0.1773 -0.1695
 9837W        W30117   3.580  12.316   3.763  0.0767  0.0882 -0.1986
 9838W        W30118   7.630  12.002   3.685 -0.1711 -0.1579  0.0140
 9839W        W30119   6.459   1.741  14.908  0.0691 -0.0221 -0.3557
 9840W        W30120  15.065   8.790  14.000  0.0709  0.0314 -0.1129
 9841W        W30121  14.216   3.737   1.492 -0.0421  0.2598  0.1386
 9842W        W30122  11.773   7.946   4.423  0.0704  0.0617 -0.4356
 9843W        W30123  14.633  13.675   0.680 -0.2411 -0.2259  0.0186
 9844W        W30124   9.160  14.519  11.558 -0.0072  0.0315 -0.5365
 9845W        W30125  16.060  16.850   2.827 -0.1908  0.0829  0.2401
 9846W        W30126  13.561  11.037   2.833  0.0125 -0.1330 -0.0532
 9847W        W30127  15.623   2.349   2.839 -0.1436 -0.2788  0.0498
 9848W        W30128   4.293   5.271  12.562 -0.0645  0.0330  0.0522
 9849W        W30129   6.031  16.095   0.515  0.2082  0.0955 -0.0400
 9850W        W30130   9.892   2.095  14.056  0.2720  0.0007  0.3149
 9851W        W30131   4.162   0.266   3.858  0.2190  0.3353  0.1677
 9852W        W30132   8.830  12.862   4.180 -0.1765  0.0843  0.3047
 9853W        W30133   0.118  14.659  11.688  0.0554  0.0882 -0.1078
 9854W        W30134  15.223   4.260   1.741 -0.2889 -0.3320  0.1714
 9855W        W30135   5.950  10.793  14.276 -0.1961  0.0033  0.1505
 9856W        W30136   5.572   1.365  14.854 -0.3969 -0.0860 -0.2454
 9857W        W30137  13.849   1.963  13.029 -0.1669  0.3152  0.3303
 9858W        W30138   6.890   4.287   2.852 -0.0696 -0.1508 -0.0970
 9859W        W30139   6.467   2.446  13.417 -0.3096  0.4840 -0.0086
 9860W        W30140   3.511  12.398  13.843  0.1112  0.1121  0.2336
 9861W        W30141  15.910   3.196   5.127  0.0335 -0.1104  0.0845
 9862W        W30142   6.366   4.270   1.921 -0.1766  0.0008 -0.3811
 9863W        W30143  13.830   4.841  12.103  0.1525 -0.3857  0.0206
 9864W        W30144  14.474   3.248   3.487 -0.0221 -0.1106 -0.2059
 9865W        W30145   1.587  16.376  15.095  0.1436 -0.0835 -0.2136
 9866W        W30146   3.950   2.210   3.462 -0.1209  0.0556  0.3107
 9867W        W30147   1.740   7.061   1.435  0.1562  0.1669 -0.2481
 9868W        W30148   7.800   6.894  13.282  0.0868  0.2146 -0.1084
 9869W        W30149  11.472  17.770   3.416 -0.2159  0.1441 -0.2157
 9870W        W30150   7.855  17.216  13.828 -0.0275 -0.0335 -0.1319
 9871W        W30151  14.881   2.066  13.858  0.2272 -0.0708 -0.1148
 9872W        W30152  18.244   7.277  14.305 -0.1067  0.2176  0.1958
 9873W        W30153  11.459   4.857   3.955 -0.0531  0.0940 -0.2410
 9874W        W30154  18.156  14.337   1.834 -0.0686  0.3311 -0.0298
 9875W        W30155   2.838   3.341  11.887 -0.1561  0.3449 -0.1362
 9876W        W30156   7.302   3.640  13.395 -0.0619  0.3620  0.1690
 9877W        W30157   4.357   9.477  13.161  0.1306 -0.1340 -0.1027
 9878W        W30158  10.780   4.395   0.927  0.0716 -0.0940 -0.0807
 9879W        W30159   9.769  16.504  13.091 -0.0378  0.1109 -0.1567
 9880W        W30160  13.349   0.963   2.839  0.2166 -0.2238  0.2935
 9881W        W30161   2.103  13.422   4.499  0.0061  0.2159  0.2607
 9882W        W30162   6.880   2.163   1.331  0.0624  0.1294 -0.2697
 9883W        W30163   6.990  11.020   2.992 -0.0560 -0.0358 -0.2998
 9884W        W30164   2.993  16.866   3.413 -0.3207  0.0387 -0.1314
 9885W        W30165   9.385   2.658  14.747  0.0073 -0.0042  0.0835
 9886W        W30166   8.805  17.435  14.315  0.2588 -0.1877 -0.1167
 9887W        W30167   4.621   9.709   3.438  0.1066 -0.1375 -0.0717
 9888W        W30168   7.381  10.161  12.409 -0.2052  0.1345 -0.2212
 9889W        W30169  17.184  16.495  15.635 -0.0968 -0.0867 -0.1900
 9890W        W30170   5.913  12.630   1.251  0.0336  0.0312  0.1419
 9891W        W30171   2.149  14.634   2.394  0.2605 -0.3150 -0.0483
 9892W        W30172  16.776   9.414   3.629  0.0071  0.2312  0.0942
 9893W        W30173   0.520  11.935   1.411  0.3445  0.1824  0.2549
 9894W        W30174  15.566   5.322   4.627 -0.0001 -0.2084 -0.1602
 9895W        W30175  10.774   9.946   0.897 -0.1789  0.1309  0.3250
 9896W        W30176  14.538  10.758   3.968 -0.1623 -0.0609  0.2842
 9897W        W30177   4.834   0.387   3.732  0.2590  0.0392 -0.0360
 9898W        W30178   4.528   7.769  11.962  0.0618 -0.0066  0.0960
 9899W        W30179  11.466   4.599   2.466  0.4048 -0.0189  0.2308
 9900W        W30180   2.363  15.568  11.399 -0.1333 -0.2158 -0.0523
 9901W        W30181   9.613   7.492   1.380  0.3103 -0.0105 -0.2533
 9902W        W30182  16.862  10.045  15.574  0.0968 -0.1611 -0.2471
 9903W        W30183   8.875   7.948   1.506 -0.2250  0.2360  0.1373
 9904W        W30184   6.711   8.026   4.624 -0.1566  0.0307 -0.0462
 9905W        W30185   2.484  13.814   3.428 -0.0815  0.0479 -0.1851
 9906W        W30186   1.066   6.355  13.314  0.2678  0.1122 -0.0700
 9907W        W30187  17.366   6.174   1.466 -0.1933  0.0810 -0.1203
 9908W        W30188   6.224   7.565  14.304  0.0233  0.0793 -0.0473
 9909W        W30189   1.804   0.697   0.579 -0.2513  0.5752  0.0365
 9910W        W30190  17.222  17.587  15.409 -0.2735  0.0994  0.1575
 9911W        W30191   0.816  10.262  13.270  0.0977  0.2561 -0.2049
 9912W        W30192  12.792   1.485  13.997 -0.1835 -0.1272 -0.1027
 9913W        W30193  17.425   0.483  12.701  0.0944 -0.0739 -0.0079
 9914W        W30194  11.712  16.702  15.924 -0.2011  0.3896  0.0310
 9915W        W30195   7.647   3.343  15.775  0.3852  0.0348 -0.0998
 9916W        W30196  12.264   6.243  14.061 -0.0565 -0.0087 -0.0642
 9917W        W30197   5.607  12.787  12.274  0.2591  0.0831 -0.1239
 9918W        W30198  12.722   2.823   2.887 -0.0157  0.2157 -0.1374
 9919W        W30199  10.419   0.219   3.685 -0.1037 -0.0532  0.4698
 9920W        W30200  13.183   7.677   6.190 -0.2142 -0.1351 -0.1964
 9921W        W30201   7.949   4.339  14.258  0.0557 -0.3731  0.0935
 9922W        W30202   3.501   5.684  12.060 -0.0088 -0.1199  0.0844
 9923W        W30203  11.768  13.710  12.958 -0.0036 -0.1293  0.0374
 9924W        W30204  10.534   8.675  14.773 -0.0822 -0.1240  0.2379
 9925W        W30205   7.315   3.647  11.960  0.2807 -0.1091  0.0425
 9926W        W30206  12.882   1.085   0.551  0.0183 -0.1322  0.0701
 9927W        W30207   7.832   4.243   0.611 -0.1170  0.0312 -0.2477
 9928W        W30208  14.035  15.334  13.554  0.0252 -0.3176  0.1354
 9929W        W30209  18.177   3.544  12.652 -0.2874 -0.2478 -0.2518
 9930W        W30210  15.964  14.023   3.468  0.3978  0.0585 -0.1082
 9931W        W30211   3.356  12.610   0.444 -0.0806  0.0588 -0.0369
 9932W        W30212   4.588  16.852   3.881 -0.1183  0.0578 -0.2029
 9933W        W30213  14.816   5.883  11.757  0.3529  0.3360  0.3174
 9934W        W30214   1.371   7.609   2.067  0.1481 -0.0404  0.1646
 9935W        W30215  15.668   3.136  15.797 -0.0757 -0.0511 -0.2117
 9936W        W30216   4.128  14.913   0.169  0.0907  0.2016  0.1241
 9937W        W30217  14.697   3.414   0.829 -0.0223  0.0829 -0.1272
 9938W        W30218   6.476   5.778   3.802  0.1265  0.0490  0.0506
 9939W        W30219  16.360   9.274  15.713  0.0973  0.1393  0.0648
 9940W        W30220   7.320  11.994   4.108  0.4352 -0.3446 -0.0666
 9941W        W30221   5.872  16.751   1.542 -0.0554 -0.1826 -0.1079
 9942W        W30222  14.073  11.844   2.427  0.0282 -0.2892 -0.0452
 9943W        W30223  11.259   2.498  11.904 -0.0278 -0.1299 -0.1277
 9944W        W30224  17.814  12.249   2.358  0.0299  0.2161 -0.4802
 9945W        W30225   3.252   6.081  12.221 -0.0655  0.0408 -0.0528
 9946W        W30226  14.488   8.692  13.281 -0.1267  0.1399 -0.1185
 9947W        W30227  13.561   4.348   1.229 -0.1098  0.1056  0.1028
 9948W        W30228  15.345   2.715  13.898 -0.0079 -0.0760  0.1191
 9949W        W30229   6.052   2.702  13.176 -0.0893 -0.2011 -0.0881
 9950W        W30230  17.235  16.683  12.299 -0.2087  0.0587 -0.1097
 9951W        W30231  15.799   5.250  12.562 -0.1510  0.1071  0.1903
 9952W        W30232   7.383   9.222   4.365 -0.0183  0.1783 -0.2962
 9953W        W30233   9.780   1.140   4.470 -0.1546 -0.1858  0.0120
 9954W        W30234   0.713   8.777   4.434  0.1000 -0.1125  0.0682
 9955W        W30235   2.884   9.843  12.429 -0.2385 -0.0133 -0.0953
 9956W        W30236  17.676  14.068  12.103 -0.0479  0.1049  0.0312
 9957W        W30237  17.904  18.313  15.493  0.1768  0.0223 -0.1390
 9958W        W30238   7.100  12.098   0.368 -0.1600 -0.0497  0.0527
 9959W        W30239  17.584   9.223  11.495  0.0232  0.0615 -0.1923
 9960W        W30240  15.860  16.190   4.743 -0.0573  0.1328 -0.0612
 9961W        W30241   3.687   8.510   0.604  0.1889 -0.1150 -0.1874
 9962W        W30242   5.659  17.042  15.795 -0.0195  0.0274  0.0425
 9963W        W30243   2.332  11.090   3.339 -0.1183 -0.2284  0.1494
 9964W        W30244   8.700  12.441  14.859 -0.0142 -0.0945  0.0600
 9965W        W30245   4.138  11.506   1.261  0.0784 -0.0846  0.0778
 9966W        W30246  10.740  14.879   3.772 -0.0622 -0.2131 -0.2949
 9967W        W30247   7.458  16.103  14.569  0.1185 -0.1326  0.1245
 9968W        W30248  14.226   8.263  14.208  0.0323  0.2210  0.3430
 9969W        W30249   7.409   9.178   2.592  0.1037  0.2395 -0.3302
 9970W        W30250  11.286   5.413  15.107  0.1687  0.0687  0.0434
 9971W        W30251   8.084   6.650  13.586  0.4143 -0.0575 -0.3139
 9972W        W30252  17.043   2.423   0.559 -0.1165 -0.1178 -0.2219
 9973W        W30253   6.567   0.342   1.317 -0.2469  0.0427  0.1334
 9974W        W30254  14.759   0.850  12.716  0.2094 -0.3967 -0.0697
 9975W        W30255  17.872   8.198  14.052  0.3967  0.1345 -0.0498
 9976W        W30256   3.444   0.823   2.690  0.0536  0.0366  0.0327
 9977W        W30257  10.747   7.450  11.432 -0.2634 -0.1964 -0.1804
 9978W        W30258   5.312   8.198   4.433  0.0616 -0.0793  0.0296
 9979W        W30259   4.566   5.410   2.725 -0.0924 -0.2031 -0.0632
 9980W        W30260   7.916   2.423   1.127  0.2310  0.0873 -0.0816
 9981W        W30261   3.960   0.709   2.433  0.3914 -0.1291  0.1540
 9982W        W30262   5.101  13.803  10.837  0.0196  0.2035 -0.1710
 9983W        W30263   9.277   7.701  12.010 -0.2798  0.0447  0.0460
 9984W        W30264   7.525   1.617  15.558 -0.2366 -0.2272 -0.0871
 9985W        W30265  13.248   2.471   0.105 -0.1596 -0.0036  0.1071
 9986W        W30266   6.516  10.834   1.696  0.3590 -0.0302 -0.0445
 9987W        W30267   5.097  14.063  12.519 -0.3720 -0.0790 -0.1201
 9988W        W30268  11.695   8.162  12.829 -0.1394 -0.0469  0.2808
 9989W        W30269   5.442   9.870  11.691  0.1404 -0.0261  0.3196
 9990W        W30270   6.508  11.729   0.521 -0.2781 -0.1903  0.2471
 9991W        W30271   3.105   4.439  11.427 -0.1642  0.0432  0.0259
 9992W        W30272  13.761  11.499   2.872  0.1996  0.0172  0.0389
 9993W        W30273   5.422  17.707  11.308  0.1523 -0.1384  0.3627
 9994W        W30274   8.965  17.960   4.706 -0.2306 -0.3218  0.0847
 9995W        W30275   4.915   4.886  15.914 -0.1798  0.1227  0.0416
 9996W        W30276   5.029   9.580  11.762 -0.2003  0.2022 -0.1439
 9997W        W30277   2.382   1.166  14.548 -0.2246  0.1056  0.0231
 9998W        W30278  10.313  12.497  11.910  0.2901 -0.0322 -0.2109
 9999W        W30279  11.765  14.651   1.796 -0.0194  0.0150 -0.1893
10000W        W30280  15.240  16.723  11.756 -0.0026  0.0774  0.2675
10001W        W30281  13.519   8.763   0.479  0.1744  0.0061  0.0346
10002W        W30282   7.528   7.246   2.513  0.0944  0.2246  0.1643
10003W        W30283   6.387  15.912  15.144 -0.0462  0.1340  0.0471
10004W        W30284  17.820   1.557  12.060 -0.0036 -0.1055  0.0284
10005W        W30285  15.787   0.469  15.163  0.1938 -0.0159  0.0283
10006W        W30286   2.759   3.912   2.850  0.2735  0.0559 -0.3865
10007W        W30287  13.752  17.222   2.184 -0.1279  0.0047  0.3243
10008W        W30288   8.908  17.967   3.198 -0.1302  0.0494 -0.0494
10009W        W30289   6.416   7.519  12.476  0.1764  0.1598 -0.1030
10010W        W30290  13.599   9.575  13.200  0.0180  0.0191  0.1464
10011W        W30291   3.348  17.147   0.850 -0.1387  0.0269  0.2878
10012W        W30292  12.688   2.847  11.570 -0.3599  0.0845 -0.2125
10013W        W30293  13.564   2.049  14.769  0.2398 -0.0561 -0.0312
10014W        W30294   5.839   4.605   3.637 -0.0056  0.2932  0.0970
10015W        W30295  12.955   1.733  15.615  0.0173  0.0517  0.5361
10016W        W30296  14.587   1.114  11.885 -0.1182  0.1396  0.1582
10017W        W30297   6.755   1.706   3.412  0.2873 -0.0100 -0.2969
10018W        W30298  10.724   9.086   3.818 -0.0109  0.0378 -0.0050
10019W        W30299  14.829   0.387   3.141 -0.1407  0.0932 -0.1321
10020W        W30300  11.298  10.666   0.320  0.0782 -0.0108 -0.1712
10021W        W30301  11.148  18.032   0.040 -0.0660 -0.0027 -0.0265
10022W        W30302  14.351   2.463   3.567  0.0630  0.2963  0.0063
10023W        W30303   1.033   8.110   3.285 -0.2374  0.3093  0.0623
10024W        W30304  16.935   7.864   4.536 -0.0499  0.1784 -0.1179
10025W        W30305  13.312  10.789   1.531  0.2560  0.0172  0.2189
10026W        W30306   4.965  14.700   2.649 -0.3684  0.0294 -0.3124
10027W        W30307   7.175   0.486   2.630 -0.0471 -0.1335  0.1543
10028W        W30308   4.541   9.582   0.910 -0.1356  0.2079 -0.0168
10029W        W30309   2.577   6.261   0.266  0.3603 -0.1869 -0.0957
10030W        W30310  15.019   9.078   3.901 -0.2763  0.2029 -0.2475
10031W        W30311   0.609   7.462   2.599 -0.3166  0.0789  0.1005
10032W        W30312   9.173   9.493   1.780  0.3401 -0.1344 -0.3438
10033W        W30313   4.409   6.783  12.095 -0.0488 -0.0674  0.2213
10034W        W30314  14.809  14.991  14.899  0.2906 -0.2187 -0.2484
10035W        W30315   6.581   7.936   0.602 -0.2274 -0.0749  0.0138
10036W        W30316   4.383  17.130  14.744  0.1493  0.1750 -0.0733
10037W        W30317   7.149   4.559   2.321  0.2461 -0.0135 -0.1363
10038W        W30318  12.422  17.603   2.620  0.0284 -0.0526  0.2119
10039W        W30319   9.883   9.355  11.640  0.1597 -0.1009  0.0220
10040W        W30320  12.741   0.700   4.373 -0.1598  0.0832  0.1809
10041W        W30321  17.472  12.513   2.156 -0.2126  0.2084  0.1367
10042W        W30322  11.087   0.748   2.714  0.0311 -0.0742 -0.1555
10043W        W30323  17.289  10.898  12.327  0.1445 -0.0091  0.0919
10044W        W30324   8.235   7.078  11.958 -0.0339 -0.0647  0.2028
10045W        W30325  13.858  10.433  11.455 -0.0889  0.1251  0.1302
10046W        W30326  18.154   1.935   1.139 -0.1751 -0.3646 -0.0936
10047W        W30327   3.286   4.432   1.970 -0.2113 -0.0864 -0.0086
10048W        W30328   9.561   9.290   2.701  0.0810 -0.3146 -0.0280
10049W        W30329   1.565   0.237  12.556  0.2186  0.3075 -0.1370
10050W        W30330  17.689   6.223  15.441  0.1209  0.3556 -0.1128
10051W        W30331   0.259   9.460   0.596  0.0153 -0.0213 -0.2612
10052W        W30332   3.049  11.698   0.411  0.0869  0.0962 -0.1618
10053W        W30333  12.207   7.170  12.102  0.0007  0.0666  0.4626
10054W        W30334   8.902   9.658   1.290  0.0305 -0.2052  0.0052
10055W        W30335   5.480   1.354   2.571  0.0740  0.1797 -0.0924
10056W        W30336  17.475  15.514  14.927 -0.2588  0.2407  0.0737
10057W        W30337   2.607  13.883   1.536  0.0485 -0.4012 -0.0593
10058W        W30338  14.581   0.399  12.892 -0.0592  0.1802  0.3635
10059W        W30339   3.417  15.219  15.292 -0.0623  0.1505 -0.0635
10060W        W30340   7.019  10.278   1.195 -0.0532 -0.1660  0.0457
10061W        W30341  12.016  17.483   2.259 -0.1655 -0.0076  0.1967
10062W        W30342  10.680  18.277   0.954 -0.3914  0.2651 -0.0016
10063W        W30343   4.226   8.008   0.639  0.0351 -0.0329  0.1486
10064W        W30344  11.106  17.545   4.056 -0.1324  0.2211 -0.5254
10065W        W30345  15.491   2.929   4.275  0.0689  0.2769  0.0573
10066W        W30346  10.791  10.393  14.682 -0.2820  0.0704 -0.0943
10067W        W30347  17.804   4.160   5.543 -0.3290 -0.1208  0.2035
10068W        W30348  14.791   4.581  11.722 -0.1893 -0.1959  0.3008
10069W        W30349  12.567  16.141  13.410  0.0155 -0.0970 -0.1091
10070W        W30350   2.927   3.349   3.800 -0.1069  0.1554  0.4107
10071W        W30351  15.143  15.800  11.337 -0.0415 -0.0357 -0.1624
10072W        W30352   3.451  15.905   4.012  0.0976  0.0659  0.2592
10073W        W30353  10.833   6.934   2.416  0.1907  0.0696 -0.1094
10074W        W30354   6.191   3.475  11.761 -0.0046 -0.3775 -0.0078
10075W        W30355   0.069   1.062  11.001  0.0412  0.0516  0.2671
10076W        W30356  13.091   5.697  12.835 -0.0827 -0.2004 -0.0005
10077W        W30357   8.354   9.227  13.094  0.0695  0.0822 -0.1968
10078W        W30358   9.964   6.636   5.430 -0.3463  0.2363 -0.1829
10079W        W30359   7.594  15.254   1.857 -0.0957  0.0397  0.1029
10080W        W30360   2.413  18.141   2.674 -0.1385  0.3056  0.2904
10081W        W30361  11.618  14.041   3.614 -0.1452 -0.0464  0.0582
10082W        W30362  10.529   6.706   3.798 -0.1398 -0.0438  0.0581
10083W        W30363  10.083   8.862  14.505 -0.0284 -0.0167 -0.1561
10084W        W30364  10.729   1.832   3.083  0.2700  0.1134  0.0211
10085W        W30365  11.129   0.614   1.469 -0.0878  0.0989 -0.0804
10086W        W30366   8.177  15.164   1.103 -0.0487  0.2021 -0.0304
10087W        W30367   9.485  15.156  14.862 -0.3110  0.2001 -0.2159
10088W        W30368  11.945  12.360   2.662  0.0012 -0.0670 -0.3458
10089W        W30369   3.690  10.382  14.145 -0.2968 -0.0172  0.0033
10090W        W30370   6.080   1.022   1.878 -0.3288 -0.2687 -0.2155
10091W        W30371  11.149   8.175   3.555 -0.1643 -0.0292 -0.0435
10092W        W30372   4.859  14.603  15.882 -0.1396 -0.1502  0.1657
10093W        W30373  11.483  13.118   2.798 -0.0082  0.1846 -0.1498
10094W        W30374  16.014   1.418  13.784  0.1876  0.0436  0.0711
10095W        W30375   4.600   2.702   3.449 -0.0444  0.0003 -0.1231
10096W        W30376   4.600   1.493  13.284 -0.2225  0.2157 -0.0042
10097W        W30377  13.426   4.894   1.590  0.0654  0.0122 -0.2570
10098W        W30378  11.358   3.688  14.663  0.1316  0.1176  0.3165
10099W        W30379  15.073  11.253   4.819  0.0210 -0.2653  0.1124
10100W        W30380   7.475  13.952   0.624 -0.4756 -0.2324 -0.0411
10101W        W30381  10.427   7.061  14.079 -0.0769 -0.3134 -0.2408
10102W        W30382   3.647   0.306  15.531  0.2088 -0.1935  0.0730
10103W        W30383   8.070   0.725  11.556  0.2873 -0.1390 -0.2234
10104W        W30384   5.117   6.446  13.165  0.2898  0.1090  0.1120
10105W        W30385   0.891  13.984  11.874  0.0353 -0.1726 -0.0707
10106W        W30386  15.499   4.364  14.728 -0.2754 -0.0966  0.0011
10107W        W30387   3.350  10.442  11.763  0.1222  0.4260  0.0990
10108W        W30388   4.530   3.137   2.541 -0.0067 -0.2394 -0.2403
10109W        W30389  14.667  12.757  12.042  0.0383 -0.0279  0.1774
10110W        W30390  13.553   8.996   2.481 -0.3052 -0.0780  0.0342
10111W        W30391   8.887  11.757  12.193  0.0408 -0.0843  0.0755
10112W        W30392  16.578   6.910  15.269 -0.0407 -0.0655  0.0808
10113W        W30393   6.207   0.754   0.125 -0.0254  0.3229 -0.0817
10114W        W30394  13.461  15.453  10.578 -0.1101  0.0066 -0.1228
10115W        W30395   4.098  10.480   3.273  0.0307  0.2123 -0.1715
10116W        W30396  14.414  13.472  12.633 -0.0122  0.1687 -0.1147
10117W        W30397  16.913  11.095   0.678  0.0055  0.1035  0.0069
10118W        W30398   6.884  12.716  15.578  0.2156 -0.0089 -0.1297
10119W        W30399   0.375  12.544  13.458  0.0871  0.1166  0.3141
10120W        W30400  12.218  16.148   1.744  0.0058 -0.2471 -0.2992
10121W        W30401   7.487  16.308   0.693  0.0032 -0.1343 -0.1248
10122W        W30402   3.664   7.387   4.118  0.0402  0.0529 -0.0786
10123W        W30403   6.822  12.041   0.850  0.2495  0.2991  0.1129
10124W        W30404  13.042   4.402   2.998 -0.0957  0.1678 -0.2070
10125W        W30405  15.112   9.589   1.661 -0.3656 -0.0102 -0.3382
10126W        W30406   0.951   9.173   2.615 -0.0226  0.0956 -0.1468
10127W        W30407  14.169  15.851  14.731 -0.0444  0.0827 -0.2960
10128W        W30408   0.836  11.883   0.072 -0.3564  0.2369  0.1175
10129W        W30409  15.870  11.493  14.025 -0.1359  0.1975  0.3461
10130W        W30410  18.145   0.807   0.011  0.0476 -0.3078 -0.1338
10131W        W30411   7.631   0.267  14.860  0.2163 -0.0120  0.1548
10132W        W30412  17.692  12.522   0.810 -0.0167  0.1045  0.1403
10133W        W30413  10.694   1.120   3.474 -0.1876 -0.0225 -0.0704
10134W        W30414  15.397  11.651  13.703 -0.0360 -0.0693 -0.0283
10135W        W30415  15.337   2.169   1.077 -0.0042  0.1215  0.1968
10136W        W30416   1.852   7.632   1.262  0.0988  0.0386 -0.0718
10137W        W30417  12.841   5.842  15.852 -0.3805  0.1063  0.1543
10138W        W30418  10.700   9.452  15.938 -0.2615 -0.0640  0.0246
10139W        W30419   1.706  12.958  14.493 -0.2555  0.2959 -0.0397
10140W        W30420   4.320   6.166  14.250  0.1724 -0.0169 -0.0338
10141W        W30421   0.267   7.276  12.079 -0.1374 -0.0029  0.0816
10142W        W30422  15.128  14.829   4.392 -0.0423  0.1225  0.0331
10143W        W30423  11.666  10.306   1.312 -0.2522  0.3899  0.1442
10144W        W30424  12.754   7.508   1.382 -0.3123  0.0342  0.1927
10145W        W30425  15.095  11.290  12.940  0.0015 -0.1024 -0.2176
10146W        W30426   4.938   8.990  13.956  0.2733 -0.0040  0.1017
10147W        W30427   5.388   4.499  13.851  0.2947  0.0134 -0.1156
10148W        W30428   7.716  12.026   0.490 -0.1028 -0.1567  0.1815
10149W        W30429   8.818   3.603   3.228  0.1251 -0.3041 -0.0835
10150W        W30430  14.500  15.131  15.762 -0.0216  0.1141 -0.0378
10151W        W30431  15.396   9.942  14.935  0.0527  0.2412 -0.0052
10152W        W30432   5.085   9.970  13.156  0.1558 -0.0287  0.1923
10153W        W30433  16.018   6.314  13.916  0.0121  0.0081 -0.1259
10154W        W30434  17.270   5.974   4.273  0.1624 -0.0614 -0.0434
10155W        W30435   8.808  10.354  14.264  0.1415 -0.2982 -0.2291
10156W        W30436   8.622  15.578   0.214  0.0174 -0.1684  0.0186
10157W        W30437   0.927  15.123   0.465 -0.0199  0.0030 -0.1317
10158W        W30438   5.442   6.002   4.733  0.1665  0.2265  0.0596
10159W        W30439   7.630  15.742  13.588  0.1147  0.0472 -0.2277
10160W        W30440  12.705   1.618   2.318 -0.2110 -0.0726  0.1778
10161W        W30441  13.441  10.495  11.683 -0.0511 -0.0891  0.0187
10162W        W30442  10.218  14.473  13.243 -0.0989  0.0673  0.0192
10163W        W30443   2.079   8.918   4.053  0.1004 -0.0176  0.2123
10164W        W30444   1.259   2.681  14.464  0.2658  0.3553  0.1036
10165W        W30445  17.769  12.647  14.870 -0.3679  0.0634  0.1610
10166W        W30446  13.368   7.703   2.092 -0.1162 -0.1336  0.1475
10167W        W30447  12.016   2.878  13.013  0.1891  0.0780 -0.0557
10168W        W30448  15.587   6.562   0.375  0.1195  0.1070  0.1143
10169W        W30449   7.879   9.562  10.894 -0.1554 -0.1120 -0.0279
10170W        W30450  10.592   0.779  14.158  0.2063 -0.1788 -0.5280
10171W        W30451   3.419  12.869  12.742  0.0330 -0.1868  0.0872
10172W        W30452  16.140  16.561  13.335 -0.0613 -0.0241  0.0630
10173W        W30453   9.502   3.170   1.156 -0.1201 -0.2633  0.2423
10174W        W30454  11.477  16.744  12.835 -0.1548 -0.1403  0.2045
10175W        W30455  15.927   9.880  14.362  0.0218  0.0153 -0.0173
10176W        W30456   8.036  11.321   1.874 -0.1188  0.1354  0.2395
10177W        W30457   5.754  13.631  13.455  0.0238  0.0458 -0.0855
10178W        W30458   1.175  13.800   3.611  0.1173  0.0344 -0.2733
10179W        W30459  13.147   6.037  12.075 -0.0218 -0.0525  0.2191
10180W        W30460   1.377  11.772  12.707 -0.2402 -0.1077 -0.1496
10181W        W30461  15.625   0.350  14.672  0.3088  0.3211  0.1244
10182W        W30462   9.977   8.703   2.278  0.1871  0.1811 -0.1183
10183W        W30463  14.429   4.922  11.627  0.1639 -0.2002 -0.0906
10184W        W30464  11.667  13.621  12.426  0.2276  0.2842 -0.0149
10185W        W30465  13.103   1.139   1.145 -0.2441 -0.1266 -0.2963
10186W        W30466  13.127  10.161   2.684  0.0568 -0.0279 -0.2103
10187W        W30467   8.805   3.445  14.329 -0.1245 -0.0666  0.1933
10188W        W30468   6.550   5.135   1.390  0.0042  0.2803  0.0151
10189W        W30469   4.206   1.507   2.756 -0.0117 -0.1352  0.2909
10190W        W30470   6.018   1.826  13.105 -0.0611 -0.0552  0.1701
10191W        W30471  13.582  15.136  12.879 -0.0016 -0.2079 -0.0607
10192W        W30472  14.284   5.311  15.557 -0.1083 -0.0508  0.0551
10193W        W30473   9.807   5.616   4.658 -0.0362 -0.4084 -0.1437
10194W        W30474  15.553  17.437  15.396 -0.1189 -0.2379  0.0593
10195W        W30475  13.434   6.934  12.847 -0.1748 -0.1845  0.0745
10196W        W30476   9.408   4.621   2.872  0.0930 -0.2975  0.0340
10197W        W30477   7.950  17.288  11.920 -0.1267  0.3529  0.0576
10198W        W30478   1.880   9.351   2.465 -0.0852  0.3116  0.1598
10199W        W30479   7.857  10.816   3.598 -0.1619 -0.2238 -0.2370
10200W        W30480   1.133   8.379   4.154  0.3731 -0.2581 -0.3005
10201W        W30481   0.028  15.709  14.740 -0.3126 -0.0972  0.0341
10202W        W30482   0.698  11.174  15.665 -0.1172  0.2049  0.3790
10203W        W30483   8.104  15.222   2.116  0.0270 -0.1449 -0.2044
10204W        W30484   9.050   9.965  15.230 -0.0937 -0.0995 -0.1239
10205W        W30485  12.297  15.177  11.411  0.0840 -0.0181  0.1726
10206W        W30486   5.938   5.728   3.623  0.1369  0.1371  0.0700
10207W        W30487  18.051   8.222   2.629  0.1769  0.0513 -0.0335
10208W        W30488  16.745   1.467  14.292 -0.1690 -0.0310 -0.0265
10209W        W30489  11.470  12.863   1.737 -0.0633 -0.1926 -0.0686
10210W        W30490   4.908   8.456  13.940 -0.0612 -0.0413  0.0976
10211W        W30491   9.669  10.214  13.937 -0.2328  0.0438 -0.3109
10212W        W30492  10.751  17.281  15.215 -0.2641  0.1686 -0.1206
10213W        W30493   2.501  14.655  12.595 -0.0042 -0.0532 -0.1292
10214W        W30494   1.485   0.513  14.534  0.2030 -0.4212  0.0351
10215W        W30495   3.735   2.474   5.368  0.0442 -0.0971  0.0674
10216W        W30496  13.714  17.640   4.262 -0.4243 -0.0559  0.2652
10217W        W30497  10.356   2.363  15.748  0.1572  0.3022 -0.3434
10218W        W30498  12.421  10.223  13.612 -0.2424 -0.2581 -0.1346
10219W        W30499  14.830  16.130   3.231  0.0481 -0.1886 -0.1236
10220W        W30500  13.848  15.965   3.173 -0.4200 -0.1573 -0.0700
10221W        W30501   8.827  15.957   1.124 -0.0328  0.1137 -0.0800
10222W        W30502   3.940  16.947  12.262  0.1444  0.1439  0.0098
10223W        W30503   2.153   4.917  13.787 -0.2072  0.3506  0.0788
10224W        W30504   5.839  11.465  14.994  0.0789  0.0989 -0.2571
10225W        W30505  17.066  11.459   1.054  0.1444  0.0956  0.1783
10226W        W30506   1.772   1.105  10.458 -0.1209  0.0109 -0.1501
10227W        W30507   3.194  13.114   2.513  0.1503  0.1862  0.0953
10228W        W30508  10.811   9.017   0.133 -0.0226 -0.1005 -0.1085
10229W        W30509  14.470  12.150   0.927 -0.0165  0.0203 -0.0573
10230W        W30510   2.203  12.047  13.912  0.1485 -0.1642 -0.1566
10231W        W30511  15.108  15.870   5.755  0.1792 -0.1368  0.3325
10232W        W30512   2.922   9.910  14.246  0.0120 -0.0254 -0.2534
10233W        W30513   4.711   1.902  13.542  0.2771  0.1330  0.0198
10234W        W30514  15.626   7.524   0.500  0.3215  0.1186  0.0523
10235W        W30515   9.843   2.950  13.020 -0.0668  0.2627 -0.2529
10236W        W30516   8.496   0.579   4.414  0.0399  0.1204 -0.0453
10237W        W30517   2.476  13.732   2.450  0.2125 -0.0203  0.0126
10238W        W30518   7.746   8.809   2.816 -0.0416 -0.0693 -0.1618
10239W        W30519   4.978  11.685  15.390  0.1261 -0.3234  0.2692
10240W        W30520   1.383   8.435   1.390 -0.3059 -0.0526  0.3166
10241W        W30521  17.648  11.093   4.263 -0.1139  0.5032  0.1358
10242W        W30522   5.438  10.732  13.958  0.2773 -0.2049  0.0294
10243W        W30523   8.116   4.663   3.262 -0.6672 -0.2879 -0.0225
10244W        W30524  13.601   2.178   3.543  0.1186  0.2376  0.2792
10245W        W30525  10.622   0.516   1.753  0.1320  0.0896  0.0326
10246W        W30526   4.946   8.444   2.140 -0.3033  0.0191  0.3320
10247W        W30527   6.767   8.877   1.085 -0.0083 -0.3439 -0.0750
10248W        W30528  17.069   3.662   4.623 -0.4699  0.0469 -0.3029
10249W        W30529  17.950  14.447  14.917 -0.0567  0.1995 -0.2362
10250W        W30530   1.931   0.400   2.055 -0.1402  0.2119  0.3246
10251W        W30531  13.948   4.626   1.590 -0.1012  0.3556 -0.1997
10252W        W30532   0.633  15.726   2.778 -0.1672 -0.0811  0.3791
10253W        W30533   8.269   0.806   2.729 -0.0992  0.0305 -0.1114
10254W        W30534   8.249  17.707   2.370  0.0027  0.1720  0.0524
10255W        W30535  14.294   9.953  12.980 -0.1347  0.0548  0.2640
10256W        W30536  16.200   7.924  11.769 -0.0572  0.1333  0.0505
10257W        W30537   2.884  14.864   2.568 -0.2009  0.1109 -0.1861
10258W        W30538  10.296  16.363   3.410  0.1455 -0.0406  0.2490
10259W        W30539  16.554  17.600   0.329 -0.3099 -0.1620  0.2290
10260W        W30540   9.286  13.828   1.631 -0.1486  0.1429 -0.2790
10261W        W30541  11.997   2.952   1.587  0.0831 -0.1540  0.0321
10262W        W30542   0.877   1.877  14.274  0.1614 -0.1433  0.0474
10263W        W30543   1.229  10.802   1.477  0.2987 -0.0799  0.1622
10264W        W30544  16.871  11.153  13.503  0.3719  0.1582  0.0055
10265W        W30545   8.421   1.660  15.328  0.0450 -0.0621  0.1488
10266W        W30546   5.344   3.386   4.023  0.0979 -0.2953  0.1288
10267W        W30547   5.311   0.709   4.058  0.2487 -0.0709 -0.3932
10268W        W30548   7.403   8.871   0.384 -0.1091 -0.2649  0.0135
10269W        W30549   0.128   0.043   3.570  0.0405 -0.1992 -0.0655
10270W        W30550  17.932   5.801  14.673  0.0591  0.0143 -0.0711
10271W        W30551  10.589   6.477  11.211 -0.2545  0.4263  0.0449
10272W        W30552  14.765   8.334  15.133  0.0679  0.0239  0.1173
10273W        W30553  17.363  10.392   1.725 -0.0157 -0.0941 -0.0308
10274W        W30554   7.172  12.154   1.169  0.0803 -0.0091 -0.3224
10275W        W30555  14.661   2.966   2.051 -0.0042  0.2324  0.1374
10276W        W30556  15.237  12.783  11.993 -0.1960 -0.1171  0.2596
10277W        W30557   9.981   7.851  14.550 -0.0961 -0.2513 -0.0313
10278W        W30558   2.950   3.975  11.383 -0.1826  0.0042 -0.2261
10279W        W30559   1.261  14.615   0.511  0.0759 -0.2368  0.0288
10280W        W30560   7.107   5.631   3.067  0.2150  0.3285 -0.0208
10281W        W30561  16.285  10.157  12.608  0.2224 -0.1079  0.0232
10282W        W30562   4.307  17.902  13.623 -0.0084 -0.0666  0.0259
10283W        W30563  13.016   9.245  14.549 -0.0148 -0.3017 -0.0973
10284W        W30564  11.573  16.033   1.123  0.1617 -0.3156 -0.0897
10285W        W30565  11.323  13.490  12.022  0.1686 -0.2287  0.0907
10286W        W30566  13.863   7.308  13.939  0.1243 -0.1301 -0.0251
10287W        W30567   0.182  11.608   1.585 -0.0666  0.2852  0.4253
10288W        W30568  13.783   1.766  12.532  0.0645 -0.2492 -0.2585
10289W        W30569  17.703  12.915   1.162 -0.0860  0.0124  0.1310
10290W        W30570   8.265   8.632   5.267  0.1241  0.0196 -0.1795
10291W        W30571  14.619   3.031  12.954  0.2056  0.0779 -0.0093
10292W        W30572   9.889  13.164   3.713 -0.4830 -0.0642  0.0574
10293W        W30573   3.529  15.256   2.191 -0.1918 -0.4482 -0.0657
10294W        W30574   5.799   4.039  14.480 -0.1860 -0.0170 -0.1745
10295W        W30575   1.491  12.365   3.525 -0.0192  0.6250 -0.2580
10296W        W30576   3.270   3.946   2.092 -0.1887 -0.0074  0.3100
10297W        W30577  13.382  17.617   3.455  0.0470  0.0628  0.1059
10298W        W30578   2.838   4.744  11.114  0.0903  0.2232 -0.2471
10299W        W30579   7.707   6.624   1.766  0.0182 -0.1108 -0.1993
10300W        W30580  15.662   0.478  13.766 -0.0340  0.2045  0.1374
10301W        W30581   2.006  15.845  12.953 -0.1891  0.0678  0.0724
10302W        W30582   2.491  11.083   0.676  0.0397  0.0853  0.0549
10303W        W30583  11.516   3.894  11.899  0.1236 -0.1243 -0.0348
10304W        W30584  16.639   1.297   3.538  0.0356  0.2530 -0.2403
10305W        W30585   0.719   1.426  11.392  0.0458  0.1290 -0.0359
10306W        W30586   3.494   7.717   1.157 -0.1867 -0.0196 -0.0040
10307W        W30587   3.103   6.680  11.390 -0.0338  0.1871  0.1740
10308W        W30588   0.051   9.651  13.716  0.0137  0.0715 -0.0840
10309W        W30589   6.471   4.191  13.502 -0.2948  0.1068 -0.0058
10310W        W30590  17.217   6.014  11.994  0.3678 -0.1214  0.1272
10311W        W30591   3.928  17.231   0.865  0.2958  0.0110  0.0163
10312W        W30592  16.795   7.424   1.260 -0.0479 -0.0512  0.0880
10313W        W30593   5.902   0.482  10.803  0.1096 -0.0213 -0.0857
10314W        W30594   3.132  16.451  12.392  0.0399  0.1155  0.2625
10315W        W30595   9.901   2.495   3.111 -0.0463  0.3347  0.1527
10316W        W30596   9.937   4.452  13.748 -0.2302  0.3666  0.0307
10317W        W30597   1.877   0.563   4.559  0.1489  0.0723  0.1294
10318W        W30598   7.898  10.340   3.761  0.0002 -0.0669 -0.4373
10319W        W30599  17.122  16.554  14.017  0.0269  0.1021  0.0373
10320W        W30600  13.354   4.100   2.796 -0.0779 -0.0655  0.2387
10321W        W30601  13.790  16.366   3.516 -0.0250  0.0723  0.0740
10322W        W30602   8.632  10.828   4.265  0.3033 -0.0189  0.0854
10323W        W30603  12.934  15.279  14.521 -0.1600 -0.0624 -0.2173
10324W        W30604  10.737  13.195  13.939  0.0590  0.0558  0.0056
10325W        W30605   7.081   3.157  14.824  0.0432 -0.2598  0.0178
10326W        W30606   5.094  18.092   3.875  0.1886 -0.0380 -0.0749
10327W        W30607  13.536  16.301  11.700 -0.2364 -0.0499  0.1178
10328W        W30608   9.879   9.301  14.926  0.1534 -0.0548  0.0747
10329W        W30609   4.624  14.997   0.145  0.0941 -0.3568 -0.1077
10330W        W30610  16.024  12.072   0.220  0.0677 -0.0801 -0.0620
10331W        W30611  10.480  15.564   0.235 -0.3315  0.0083 -0.1220
10332W        W30612   0.257   4.730  12.181 -0.0667  0.2558  0.1170
10333W        W30613  14.722  18.281   0.376  0.0012  0.0913 -0.2075
10334W        W30614   2.761  10.171   3.100  0.0302 -0.1187 -0.2811
10335W        W30615  15.038  14.892   1.451  0.2116 -0.1142 -0.0391
10336W        W30616  15.838   1.547   3.808 -0.0234 -0.2145  0.0969
10337W        W30617   3.834  15.024   2.479 -0.0858 -0.1598  0.4698
10338W        W30618   5.657  13.572   1.967  0.1378 -0.3051 -0.4179
10339W        W30619   8.232   0.241  11.399 -0.2057  0.1389  0.4043
10340W        W30620  12.786  13.053   1.679  0.2731 -0.0500  0.0992
10341W        W30621   4.359  15.903   0.029 -0.1088  0.1944  0.2199
10342W        W30622  14.075   1.969   3.574 -0.0400 -0.1493 -0.1216
10343W        W30623   9.605   9.072  14.556 -0.3586 -0.0145  0.0351
10344W        W30624  14.938  15.097  14.376  0.3585 -0.2777 -0.2100
10345W        W30625  17.540   0.747   1.780  0.1338 -0.0516 -0.2939
10346W        W30626   3.362  17.153   3.309 -0.1459  0.1590 -0.0542
10347W        W30627   6.381  18.011  12.387  0.0277  0.2648 -0.1284
10348W        W30628   8.585  14.587   1.890  0.2011  0.0198 -0.1132
10349W        W30629  14.517  16.327  11.909  0.1123  0.1301 -0.0675
10350W        W30630   7.945   1.585  11.550 -0.1264 -0.2944 -0.1132
10351W        W30631   8.879   4.323   2.019 -0.1607  0.1450 -0.2824
10352W        W30632  10.957  12.145   4.027 -0.1492 -0.1095  0.0881
10353W        W30633   9.919  15.671   2.710 -0.1218  0.1269  0.0589
10354W        W30634  11.168  13.301   1.110 -0.1140  0.3258  0.1541
10355W        W30635   7.656  14.139   3.578  0.0969  0.0624  0.2998
10356W        W30636  17.493   3.069   4.001  0.1031  0.1324 -0.0275
10357W        W30637  13.731  16.622  14.678  0.2984 -0.0871 -0.0195
10358W        W30638   8.897  17.082   0.519 -0.2391  0.1561  0.1821
10359W        W30639   9.911  13.779  12.360 -0.0388 -0.2474 -0.2178
10360W        W30640   3.981   2.046  11.864 -0.0868 -0.1039 -0.1031
10361W        W30641  17.232   4.923   2.217  0.0731  0.1179 -0.0058
10362W        W30642   3.824   5.879   2.474 -0.2007  0.0936 -0.0976
10363W        W30643   7.913  10.739   0.097  0.0907  0.1540 -0.1059
10364W        W30644  14.911   5.440  14.876  0.0456  0.0124 -0.3742
10365W        W30645  10.619   7.027   1.930 -0.2236 -0.0933 -0.1229
10366W        W30646   3.443   1.939   1.415 -0.1957  0.3006 -0.0636
10367W        W30647  12.775  10.315  14.837 -0.0798 -0.0603 -0.0124
10368W        W30648   1.378  15.518   1.655 -0.0866  0.0840 -0.0760
10369W        W30649  11.941   3.106   2.100 -0.0491  0.2570  0.0127
10370W        W30650  11.545  15.635   3.116 -0.1829 -0.1489  0.4571
10371W        W30651   3.170   1.295  12.313  0.0569  0.1158  0.2550
10372W        W30652  10.061  12.279   2.604 -0.0530 -0.2173  0.3316
10373W        W30653   6.287  15.758  11.900  0.0691  0.2349 -0.1037
10374W        W30654  16.253  16.533   0.443 -0.3346  0.0705  0.0825
10375W        W30655  17.914   0.373  14.862 -0.5489 -0.1372  0.0898
10376W        W30656  17.581  11.408   2.522  0.1636 -0.1628 -0.2436
10377W        W30657  12.772  17.017  13.380 -0.0738  0.0003  0.0960
10378W        W30658   6.427  15.080  12.584 -0.2350 -0.1150  0.1618
10379W        W30659   1.980   9.466   1.149 -0.1438 -0.4766  0.1298
10380W        W30660  15.274  10.214  11.711 -0.0193  0.1714 -0.0038
10381W        W30661  14.438   2.719  13.345  0.3176 -0.1182 -0.4210
10382W        W30662  15.001   6.320  13.999  0.3637 -0.3025 -0.0190
10383W        W30663   8.573   0.688   3.823  0.0078  0.1609 -0.0641
10384W        W30664   4.318  14.142  11.432  0.2107 -0.1102  0.3093
10385W        W30665   8.408  10.444   2.045  0.1082 -0.1198 -0.0663
10386W        W30666  12.517  15.714   4.528 -0.0729 -0.0890  0.1812
10387W        W30667   6.237  11.934   2.429 -0.1907 -0.1826 -0.0931
10388W        W30668  17.904  16.481  14.833 -0.1372  0.3543 -0.4019
10389W        W30669   1.660  15.625   1.241 -0.1287  0.2354  0.0259
10390W        W30670  12.336  11.682   0.735 -0.0352 -0.0593 -0.0590
10391W        W30671   8.784   3.689  14.810  0.1906 -0.3747 -0.2504
10392W        W30672   4.977  17.414   0.572  0.0450 -0.0412  0.6011
10393W        W30673   6.674  13.782  14.767  0.1748 -0.3555 -0.2752
10394W        W30674  10.215  15.916   4.204  0.1036 -0.2070  0.0501
10395W        W30675  17.183   1.436  15.644  0.1157 -0.0777 -0.2142
10396W        W30676  11.499  16.329  13.077 -0.2421 -0.0546 -0.0607
10397W        W30677   2.435  15.309  13.430 -0.0340  0.3570 -0.2441
10398W        W30678   7.800   5.467  12.409  0.1876  0.0938  0.1499
10399W        W30679   6.782   7.312  11.692 -0.0164  0.3007 -0.1350
10400W        W30680  12.049  16.982  15.668 -0.3657  0.0551 -0.0126
10401W        W30681   6.512  11.102   3.627  0.0916  0.1136 -0.1093
10402W        W30682  16.296  16.423  11.593 -0.1659 -0.1702 -0.0099
10403W        W30683  14.315  16.720   0.091 -0.0356 -0.1270 -0.0731
10404W        W30684  11.926   8.484  13.415  0.1464  0.2397  0.0224
10405W        W30685  18.244  11.578  14.350  0.1898  0.0894  0.2565
10406W        W30686   8.703  10.303  15.441 -0.1600 -0.0534  0.1997
10407W        W30687  11.847   9.585   0.081 -0.0741 -0.0894  0.3247
10408W        W30688  10.379  14.984   3.111 -0.0784  0.0560 -0.0466
10409W        W30689  11.884   6.891  12.424 -0.2810 -0.1412 -0.1866
10410W        W30690  13.558   6.700   4.555  0.0288 -0.0336 -0.1774
10411W        W30691  13.787   2.872   0.778  0.2369 -0.2482  0.1293
10412W        W30692  15.542   8.143  14.591  0.3587 -0.0419 -0.0425
10413W        W30693  11.521   0.636  15.013 -0.0535 -0.0194 -0.1600
10414W        W30694   3.658   0.872  13.556  0.1308  0.0844 -0.1288
10415W        W30695   6.290   7.938  15.205  0.0821  0.0646  0.0806
10416W        W30696   0.440  12.389   4.283  0.0556  0.2261 -0.0411
10417W        W30697  10.725   7.699  11.866 -0.1322  0.1547  0.0784
10418W        W30698   4.385  11.073  14.881 -0.2156  0.0861  0.3994
10419W        W30699   7.634  16.369  15.636  0.1229  0.2063  0.0363
10420W        W30700   3.285  14.396  15.915 -0.2066 -0.3066  0.0100
10421W        W30701   2.024  14.272   0.470  0.0156  0.1136 -0.1456
10422W        W30702  15.645  17.510   1.305 -0.0917  0.1105 -0.3408
10423W        W30703   5.760   1.432  14.303  0.0573 -0.1472 -0.0462
10424W        W30704  18.335  13.835  15.166  0.0150  0.0375 -0.0565
10425W        W30705   6.017   8.958   4.145 -0.0017 -0.0768  0.0769
10426W        W30706   8.451   2.554   2.179 -0.0041  0.2818  0.0734
10427W        W30707  17.758   5.826   4.310  0.1218  0.2455  0.0925
10428W        W30708   8.102  17.958   3.637 -0.2879  0.0828 -0.0360
10429W        W30709  11.829  17.286  14.572  0.0605  0.1441 -0.2858
10430W        W30710  16.343  10.065   2.393  0.0314  0.0624  0.1597
10431W        W30711  11.950   4.211   1.867  0.5359 -0.1737 -0.0961
10432W        W30712   6.752  14.712   2.907 -0.0057 -0.1839 -0.0134
10433W        W30713  12.001  16.868  13.715 -0.1897  0.3722  0.2427
10434W        W30714   5.008   5.117  13.802  0.0951 -0.0090  0.0056
10435W        W30715  12.384   7.442  12.952  0.1991  0.1285  0.1049
10436W        W30716   2.569  10.183   2.180  0.0702  0.0393 -0.1436
10437W        W30717   1.780   4.178  14.198  0.3694 -0.2252  0.2296
10438W        W30718   3.709  13.146  15.767  0.1628 -0.0016  0.2409
10439W        W30719   5.999   1.248   0.336  0.1367  0.0544 -0.0100
10440W        W30720   3.234   4.579   4.298  0.2059  0.0633  0.1107
10441W        W30721  17.077  13.447  14.556  0.1332 -0.2648  0.3068
10442W        W30722   6.110  18.308  13.033  0.1410  0.0091 -0.0838
10443W        W30723  17.888   9.433  12.891  0.0475 -0.0226 -0.1070
10444W        W30724   4.093  11.349  13.118  0.0173 -0.0037 -0.3149
10445W        W30725   1.627   8.252  15.477 -0.0981 -0.2370 -0.0779
10446W        W30726  13.149  10.834  12.565 -0.0371  0.6846 -0.1014
10447W        W30727  16.516  14.890  14.418  0.3600  0.0197  0.0960
10448W        W30728   7.890  10.461   3.224  0.1992  0.2833  0.5436
10449W        W30729  17.997   1.163  10.695  0.2528 -0.2823 -0.0945
10450W        W30730  13.019  13.950  11.652 -0.2689 -0.1861  0.1344
10451W        W30731   9.339  15.878  13.588  0.1338  0.1136  0.2302
10452W        W30732  14.968  15.748   0.989 -0.0775 -0.3086  0.2037
10453W        W30733  15.488   3.825   0.409  0.0154  0.0246 -0.0220
10454W        W30734  10.299  13.730  14.849  0.0698  0.1765 -0.0193
10455W        W30735  11.073  16.466   3.038  0.3481  0.0153  0.0835
10456W        W30736   9.764  13.380  15.826  0.2528  0.0021 -0.0456
10457W        W30737  11.542   2.817   1.792  0.0745 -0.0979 -0.1578
10458W        W30738   5.788   5.179   2.811 -0.3482  0.1970 -0.1567
10459W        W30739  18.318   2.803  13.195  0.0978 -0.2065 -0.3508
10460W        W30740  14.054  14.898  15.770 -0.2002 -0.1285 -0.2479
10461W        W30741  11.377   0.846   0.941  0.2384  0.1484  0.0917
10462W        W30742   5.937  11.370  13.434 -0.0979 -0.0860 -0.0036
10463W        W30743   4.200  16.668  11.872 -0.2721  0.3114 -0.0994
10464W        W30744  15.454  18.158  11.623  0.2631  0.2196  0.1218
10465W        W30745  11.070   2.031   3.839 -0.0981  0.5234  0.0433
10466W        W30746  13.320  12.828   5.878  0.3827  0.2407  0.2443
10467W        W30747   3.502   3.154   0.955  0.1753  0.0083  0.0198
10468W        W30748   9.994  13.698   2.540  0.1652 -0.1307  0.0188
10469W        W30749   0.721  11.209   1.086 -0.1362  0.1997  0.1353
10470W        W30750   5.252   7.031  11.483 -0.1465 -0.1054  0.0139
10471W        W30751  16.654  14.827  15.268 -0.0121 -0.0814 -0.0613
10472W        W30752  13.614   1.661  14.467 -0.1022  0.0730  0.0455
10473W        W30753  11.299   7.836   4.087  0.0975  0.0998 -0.0907
10474W        W30754  11.751   9.222   2.993 -0.2185 -0.1666  0.1462
10475W        W30755   8.490  12.956  15.904  0.1440  0.1693 -0.0258
10476W        W30756   9.780  13.654  14.889  0.0192  0.1121  0.1718
10477W        W30757   0.387  16.454   0.126  0.1989 -0.1026  0.1375
10478W        W30758  17.899  13.641  11.681 -0.1536 -0.0863 -0.1475
10479W        W30759   3.065   0.883  15.176 -0.2074 -0.2070 -0.3305
10480W        W30760   2.051   0.193   2.549 -0.2300 -0.0848  0.0902
10481W        W30761   2.394   5.579   0.274  0.2736  0.2185  0.1767
10482W        W30762  12.809  16.776   1.641 -0.0549  0.0483  0.1895
10483W        W30763   0.513   8.663   3.991  0.1351 -0.1962  0.0005
10484W        W30764   9.153   3.551   1.358  0.3015 -0.0767 -0.0934
10485W        W30765   7.929   7.605  13.358  0.4568 -0.2436  0.0519
10486W        W30766  13.940  17.903  14.355  0.0455 -0.1513  0.0407
10487W        W30767   7.885   9.209   3.558  0.1758  0.2302 -0.0066
10488W        W30768  15.732  13.792   1.966 -0.1070 -0.0571  0.2090
10489W        W30769  13.544  11.433  13.099 -0.1642  0.2467 -0.2581
10490W        W30770  12.542   2.033   2.598 -0.2359 -0.2480 -0.0655
10491W        W30771   9.763   6.550  12.648  0.2009 -0.0059  0.0856
10492W        W30772   5.378   7.469  14.782 -0.1806 -0.0939 -0.0057
10493W        W30773  17.727   5.980  14.254 -0.0689 -0.1258  0.0776
10494W        W30774  15.024   6.353  11.731 -0.0171 -0.1356 -0.0777
10495W        W30775  13.841  12.313  13.448  0.0229 -0.0818  0.0150
10496W        W30776  15.431   0.822  14.636 -0.0542 -0.0907 -0.2867
10497W        W30777   9.254   6.598   5.170 -0.0035 -0.1367  0.1990
10498W        W30778   3.368  15.919  15.256 -0.1137 -0.0796  0.2993
10499W        W30779  14.249  14.070   1.883 -0.1422 -0.1099 -0.0671
10500W        W30780  11.715   7.388  14.523  0.1204 -0.3115  0.2707
10501W        W30781   2.164   6.099   0.073  0.1133 -0.1276  0.2103
10502W        W30782   6.672   2.067   4.487 -0.0241  0.1220 -0.1079
10503W        W30783  17.819   8.014  15.905  0.0694  0.1256 -0.1420
10504W        W30784   3.222   6.610  15.096 -0.1581  0.1083 -0.3612
10505W        W30785  18.092  11.359   2.681  0.4532 -0.0332 -0.3543
10506W        W30786  13.615   0.686  15.619 -0.0113  0.0838  0.3309
10507W        W30787  10.790  16.393   3.455  0.2852  0.0431  0.0480
10508W        W30788   8.179  17.825  15.866 -0.1564  0.1574 -0.0919
10509W        W30789  12.403  16.993  14.503  0.1372  0.1399  0.5438
10510W        W30790   7.900   8.612  12.577 -0.3951  0.3185  0.0344
10511W        W30791  17.520   9.539   1.125  0.0111  0.1567  0.2292
10512W        W30792   1.475  18.187  11.572 -0.4400 -0.0679  0.0726
10513W        W30793  16.671  15.992   1.151  0.0313 -0.1773  0.1808
10514W        W30794   5.334  10.689   0.159 -0.0421 -0.4052 -0.1100
10515W        W30795   1.891   5.603   2.054  0.0577  0.0866 -0.0971
10516W        W30796   1.229  14.658   3.436 -0.0967  0.1126  0.3133
10517W        W30797   3.209  13.242  14.084 -0.2554 -0.0247 -0.0702
10518W        W30798   0.457   6.384  12.646  0.1107  0.0945  0.2367
10519W        W30799  11.820  14.266   4.731  0.0043  0.3282 -0.0823
10520W        W30800   6.978   8.864   3.496  0.0885 -0.0792 -0.1089
10521W        W30801  13.756   0.778  12.653  0.1498  0.1478 -0.0590
10522W        W30802   5.414   9.069  13.844 -0.1108  0.1842  0.0212
10523W        W30803  17.350  11.090  15.354  0.0755  0.1565  0.1046
10524W        W30804  17.539   6.662  13.305  0.1223  0.3338 -0.0387
10525W        W30805  15.051  14.300   4.418  0.2324  0.0913  0.1950
10526W        W30806   0.782   1.690   0.661  0.0677 -0.1615 -0.1368
10527W        W30807  17.608   9.535   2.697  0.2809  0.1168 -0.0882
10528W        W30808   9.330  12.092  12.946  0.1414 -0.1238 -0.1273
10529W        W30809  12.690   1.691  13.374  0.1738 -0.2607  0.0656
10530W        W30810   6.229   4.524  12.336  0.0538 -0.2622 -0.0735
10531W        W30811  12.663  15.311   1.533 -0.0660  0.0245  0.0724
10532W        W30812   4.768   6.899  12.434 -0.3010  0.1915  0.3611
10533W        W30813   3.966   9.239   1.192  0.1567  0.1133 -0.2358
10534W        W30814  16.505  12.058  11.858 -0.3091  0.2271  0.0846
10535W        W30815   5.541  10.149   3.501 -0.1252 -0.3210  0.0221
10536W        W30816  13.764  15.270   4.087  0.1319 -0.0122 -0.3413
10537W        W30817   6.550   3.483  15.580  0.3015  0.3672 -0.1007
10538W        W30818   6.100  11.059  15.163 -0.0660 -0.1483 -0.1001
10539W        W30819  10.987   9.528   4.049  0.1335 -0.1630  0.0656
10540W        W30820  14.022   0.023   2.032 -0.1883  0.0551  0.0197
10541W        W30821   3.050   3.380   0.798  0.3200 -0.1576  0.0609
10542W        W30822   2.575   0.469   3.908 -0.3775  0.1580 -0.1473
10543W        W30823   8.601  11.922   1.460  0.0336 -0.3049 -0.0607
10544W        W30824  16.918  12.738   4.487  0.0982 -0.0710 -0.4383
10545W        W30825   4.161  16.535  11.363  0.1105  0.1158 -0.0478
10546W        W30826   2.861  11.956  11.307  0.1853  0.1055 -0.2616
10547W        W30827   4.992   2.136  15.108 -0.0727 -0.0397 -0.1250
10548W        W30828  10.423  18.161   4.461  0.0523 -0.1531 -0.2496
10549W        W30829  10.064   8.703  13.867 -0.1407  0.1306  0.2575
10550W        W30830   4.954  17.576   1.948 -0.1462 -0.3806 -0.2384
10551W        W30831   7.433   8.574   1.979  0.2694  0.0589 -0.0075
10552W        W30832  12.040   5.744  14.814 -0.1687  0.0423  0.0042
10553W        W30833   5.352  13.869  11.300  0.1248  0.2199  0.1312
10554W        W30834   3.063   2.096   3.632  0.0385  0.0545  0.1224
10555W        W30835   8.216  11.780   0.797 -0.0829  0.0978 -0.1075
10556W        W30836   5.797   5.683  12.951  0.1842 -0.1202 -0.0487
10557W        W30837  10.737   1.217   1.014  0.0705 -0.3720 -0.1748
10558W        W30838  16.439   6.942  13.973  0.0856  0.0672 -0.0163
10559W        W30839   9.982  16.048   0.029 -0.0031 -0.0264 -0.1757
10560W        W30840  13.048  11.509  13.263 -0.2078  0.1423 -0.0900
10561W        W30841  14.339  12.612  14.863 -0.0120  0.3374  0.0261
10562W        W30842  14.830  10.866   2.893 -0.0809 -0.0561  0.0125
10563W        W30843   4.192  17.815  14.783  0.2814  0.2521  0.0097
10564W        W30844   2.907  17.284   0.797 -0.0103 -0.1545 -0.0136
10565W        W30845   3.499  17.046   1.759 -0.0640  0.2265 -0.1819
10566W        W30846   6.547   1.841  12.429  0.1159 -0.0943  0.0927
10567W        W30847  13.536   6.719   2.182  0.5159 -0.1757  0.1009
10568W        W30848  13.059   9.340  12.137  0.0418 -0.1036  0.0915
10569W        W30849  11.738  15.656  14.242  0.0804  0.0513  0.1395
10570W        W30850   5.951  10.332  12.222 -0.2196  0.0365  0.1108
10571W        W30851  13.348   7.031   2.544  0.1352 -0.0130 -0.2221
10572W        W30852  10.115   1.541  11.486  0.0337  0.0770  0.0624
10573W        W30853   3.601  14.472   2.591 -0.1313 -0.0211 -0.4184
10574W        W30854   7.883  17.162  12.443  0.3885  0.2412 -0.1214
10575W        W30855   7.070   3.803  15.132 -0.3613 -0.0276  0.1050
10576W        W30856  14.475   3.853   3.528  0.1150 -0.0926 -0.2267
10577W        W30857   1.191  15.979  13.667  0.0778 -0.1335 -0.2427
10578W        W30858  10.392   2.307   3.010 -0.4221 -0.0549 -0.0651
10579W        W30859   7.575  14.915  15.257 -0.1644 -0.0698  0.0316
10580W        W30860   5.861  16.213  11.988 -0.0735 -0.0448 -0.0569
10581W        W30861  11.762   4.167   0.928  0.1192  0.4117 -0.1748
10582W        W30862  18.308   5.590   2.838  0.0884 -0.4579  0.0736
10583W        W30863  17.225   6.017  11.412 -0.0031 -0.0586 -0.2565
10584W        W30864  17.996  13.568   1.991 -0.1050  0.2073  0.0577
10585W        W30865   0.084  13.250  14.220 -0.2537 -0.0462 -0.3053
10586W        W30866  12.680   1.217  13.594 -0.2452  0.1677  0.2142
10587W        W30867   5.275   7.233   3.551 -0.2951  0.0076 -0.2160
10588W        W30868  12.809  15.659   3.242 -0.0564 -0.2266 -0.1020
10589W        W30869   0.708   0.506   5.095  0.1340 -0.2331 -0.0505
10590W        W30870  16.535   4.523   3.632  0.0285  0.0565  0.0230
10591W        W30871  13.564  15.524  15.805 -0.1903 -0.0274  0.1442
10592W        W30872  16.341   7.885   2.185  0.3634  0.2634 -0.0158
10593W        W30873   1.477   9.407   3.470 -0.1613 -0.2513  0.1811
10594W        W30874   0.454  11.797   3.374 -0.0830  0.0292  0.0963
10595W        W30875   4.005   0.297  14.531  0.2703 -0.3835  0.1409
10596W        W30876   9.829   0.413  12.686  0.0025  0.5462  0.0399
10597W        W30877   3.455   6.654  14.209 -0.0312 -0.0174 -0.1139
10598W        W30878  11.098  16.384   1.725 -0.2258 -0.1371  0.1305
10599W        W30879   7.804  11.998   1.002 -0.0272 -0.5216 -0.1097
10600W        W30880  16.191   1.785   4.832  0.1230  0.0914  0.0079
10601W        W30881   3.176  14.003   1.826  0.3114  0.1440 -0.1705
10602W        W30882   1.722   9.687   0.319 -0.2458 -0.1345  0.0569
10603W        W30883   2.358  15.180   4.259 -0.1571  0.0801  0.1236
10604W        W30884  14.973  17.312   1.843 -0.1992 -0.0632  0.1463
10605W        W30885   1.719  11.443  13.586 -0.0275  0.1436  0.0089
10606W        W30886   8.240   6.542   0.489 -0.0668 -0.2365 -0.0986
10607W        W30887  11.981  17.519   4.407 -0.1311  0.1020  0.4460
10608W        W30888  17.414   7.173   2.944  0.1792  0.0514  0.0403
10609W        W30889   3.660   4.425  12.042 -0.0652  0.1631 -0.1089
10610W        W30890  16.371   5.064   2.636 -0.2243  0.2095  0.2261
10611W        W30891  10.606  15.129   1.167  0.0611 -0.0816 -0.1707
10612W        W30892   1.286  13.851  13.084 -0.0426 -0.1808  0.4073
10613W        W30893   8.589  10.483  14.916  0.3504  0.3952 -0.2395
10614W        W30894   2.062   8.084  15.779  0.0977 -0.2089 -0.1610
10615W        W30895   9.416   6.085   1.773 -0.1377 -0.1577  0.0487
10616W        W30896  14.189  17.008  11.354  0.0889  0.0642 -0.1064
10617W        W30897  11.023   1.545  13.563  0.2615 -0.1015  0.1286
10618W        W30898   1.735  17.197   3.301 -0.2780  0.1950  0.0046
10619W        W30899  13.777   7.787   0.353  0.1035  0.1775 -0.2003
10620W        W30900   8.823   3.362   3.680 -0.0061 -0.0592 -0.2571
10621W        W30901   8.113   9.524   3.041 -0.1448  0.1918  0.0036
10622W        W30902   2.822  13.255  13.699  0.0949 -0.2234  0.2280
10623W        W30903  16.053  10.316   1.886  0.1802  0.0320 -0.1116
10624W        W30904  14.941  10.211  12.380  0.0839  0.0211 -0.1122
10625W        W30905   0.751   8.534   2.668 -0.0392  0.1737  0.0685
10626W        W30906   8.100   5.342   4.231 -0.3343 -0.4105 -0.1064
10627W        W30907  16.256   3.957   4.308  0.1533 -0.1132  0.0310
10628W        W30908   0.394   9.895  12.646 -0.1242  0.1202 -0.0027
10629W        W30909   3.074   8.468   1.814 -0.1936  0.0975 -0.1666
10630W        W30910  16.062   9.130   3.121 -0.0750  0.3633 -0.1312
10631W        W30911   6.711   7.842  13.555  0.1323 -0.1761 -0.2408
10632W        W30912  10.779  16.378  12.527 -0.0607 -0.0198 -0.1256
10633W        W30913  16.443   6.731   1.706  0.1012  0.0362 -0.2521
10634W        W30914   7.561  14.682   1.781 -0.1003  0.0637 -0.0196
10635W        W30915  11.434   2.754   0.548  0.2887  0.0259 -0.0106
10636W        W30916   5.055  11.293  12.938 -0.1942 -0.1775 -0.0474
10637W        W30917  17.184  13.243  12.332 -0.1365 -0.2229  0.1635
10638W        W30918   6.796   5.601   2.607 -0.1380  0.2119 -0.0176
10639W        W30919   1.179   5.012  12.997  0.1074 -0.0790  0.0272
10640W        W30920  13.264   3.406   4.318 -0.0181  0.1967 -0.0352
10641W        W30921  17.913   7.817  12.832  0.3982 -0.1954  0.1949
10642W        W30922  18.146  17.407   2.941 -0.0141  0.2398 -0.1184
10643W        W30923   6.107  13.780  12.588 -0.2455  0.1723 -0.2593
10644W        W30924   2.066   9.302   0.333 -0.0791  0.1311 -0.2706
10645W        W30925  11.226  14.999  13.890  0.2322 -0.1194  0.1987
10646W        W30926   4.676  14.004  11.819  0.2275 -0.1575 -0.4377
10647W        W30927  14.502   5.652  12.130  0.0434 -0.0111 -0.2219
10648W        W30928  11.556   2.634  15.563 -0.1355 -0.0246 -0.0060
10649W        W30929   1.944  15.544   0.220  0.0537 -0.3848  0.2002
10650W        W30930  13.848  12.381  15.592 -0.0152 -0.2474  0.1305
10651W        W30931   5.912  15.964  14.266 -0.1971 -0.1076 -0.1045
10652W        W30932   2.979  14.532  14.835  0.2123 -0.3891  0.1698
10653W        W30933   1.211   7.975  11.969 -0.0821 -0.0895  0.0366
10654W        W30934   5.553  10.155   1.274 -0.2746  0.0413  0.0615
10655W        W30935   2.197   5.703  12.806  0.0420 -0.0295  0.0722
10656W        W30936   9.999   4.985  12.193  0.1136 -0.1264 -0.1468
10657W        W30937  12.368  10.801   0.358  0.0763  0.1851  0.2744
10658W        W30938   9.528   9.223   0.962 -0.2037  0.0514  0.2401
10659W        W30939  14.286   3.555   3.859 -0.1839  0.1644 -0.0540
10660W        W30940   0.269   8.024   3.905  0.0732 -0.2225  0.0993
10661W        W30941   6.355  10.392  14.021  0.3975 -0.1666 -0.2574
10662W        W30942  18.333  10.648   2.564 -0.0610  0.0361  0.1385
10663W        W30943  15.844   4.979   2.685  0.1307  0.2584 -0.0428
10664W        W30944  17.187   7.572  11.766 -0.1728  0.0296  0.2140
10665W        W30945  14.556   0.239   4.135  0.1782  0.3143 -0.2773
10666W        W30946  16.270   6.069   0.739  0.0062 -0.1216 -0.0207
10667W        W30947   8.044   5.271  15.695 -0.1046  0.0182 -0.1016
10668W        W30948  17.413   2.876  15.358  0.0038  0.0375  0.3297
10669W        W30949  16.940  12.303   2.964  0.2927  0.0779  0.1055
10670W        W30950   6.419  13.902  11.220  0.1869 -0.0991 -0.2109
10671W        W30951  12.943   3.004   0.742 -0.0641 -0.0922  0.1253
10672W        W30952   0.577  11.191  12.458  0.0139 -0.0340  0.1815
10673W        W30953  10.642  14.945  13.857 -0.3552  0.3308 -0.1749
10674W        W30954   9.629   2.907  15.586 -0.3448  0.1829 -0.0442
10675W        W30955   4.860   3.894   2.892  0.1173  0.0419  0.1674
10676W        W30956  13.981   3.905   4.077  0.0725 -0.2497 -0.0107
10677W        W30957   9.277   4.252   3.457  0.0777 -0.0142  0.0273
10678W        W30958   3.291   9.561  13.325 -0.0866  0.2282  0.0609
10679W        W30959   9.971  10.209  15.034  0.0901 -0.3242 -0.1142
10680W        W30960  10.692  11.099  15.461 -0.1879 -0.5997  0.2185
10681W        W30961  15.294  11.032   1.979  0.2493  0.4022 -0.1933
10682W        W30962  11.943  10.600   4.217 -0.2274  0.4280  0.0042
10683W        W30963   2.184  18.218   2.157 -0.1543  0.4076  0.0950
10684W        W30964  15.525  12.863  14.404  0.0540 -0.0710  0.0998
10685W        W30965  15.509   0.820  12.882 -0.1342 -0.2308 -0.2230
10686W        W30966   5.107   7.933   0.836  0.2643 -0.0983  0.0299
10687W        W30967   3.353   8.675  13.441 -0.2192 -0.3166  0.1123
10688W        W30968   7.696  14.816   4.401 -0.0399  0.1942 -0.1179
10689W        W30969   9.068   5.531   3.093 -0.0097  0.1413 -0.0821
10690W        W30970   5.278  13.737  13.308  0.4591 -0.1712  0.1129
10691W        W30971   2.415  17.223  14.366  0.1297 -0.0401  0.1072
10692W        W30972   0.004  13.042   3.319  0.1814 -0.1069  0.1683
10693W        W30973  10.583   4.256  11.298  0.2445 -0.0692  0.1918
10694W        W30974  13.987  12.958  14.779  0.2331 -0.4215 -0.2728
10695W        W30975  14.623   0.014  14.386  0.3376 -0.1662 -0.0854
10696W        W30976  10.734   1.844   1.314 -0.2440  0.0883  0.0112
10697W        W30977   1.775  11.646   0.526  0.0199  0.1447 -0.3746
10698W        W30978  16.020  16.461   3.487 -0.1198 -0.0742 -0.2113
10699W        W30979   2.046  16.258  14.554 -0.1381  0.0243 -0.1400
10700W        W30980  17.393  17.251  13.147  0.0990 -0.0912  0.0837
10701W        W30981  15.593  17.304   4.239 -0.2978 -0.2019  0.1888
10702W        W30982  10.236   0.552  12.920 -0.1606  0.0683  0.0226
10703W        W30983   5.884   5.184   1.804  0.0725  0.1893 -0.2703
10704W        W30984   1.009   8.786  15.025  0.1494  0.0719  0.1853
10705W        W30985   5.788  16.183   2.679  0.2111  0.0413  0.0349
10706W        W30986  14.842  12.752  14.184  0.2368  0.1180  0.0088
10707W        W30987   6.975  13.500  12.754  0.0842  0.0953  0.0406
10708W        W30988  14.888   1.514  14.683 -0.0694 -0.0455  0.0495
10709W        W30989   8.885   6.998  13.269 -0.0293  0.0689 -0.1102
10710W        W30990  14.788   3.457  14.089 -0.2707 -0.2941 -0.2413
10711W        W30991  11.056  10.293  14.064  0.3321  0.1309  0.0129
10712W        W30992   7.587  12.868  15.340 -0.2797  0.0343 -0.3399
10713W        W30993   8.784   4.410  15.889  0.0312  0.1230 -0.0030
10714W        W30994  13.523  14.511   5.940  0.1110  0.1289  0.0921
10715W        W30995   9.302   2.665  15.274 -0.2453  0.2165 -0.0687
10716W        W30996   1.712  10.642   2.191 -0.0110  0.1377  0.2451
10717W        W30997   5.152  17.305  11.189  0.1484  0.2217 -0.2277
10718W        W30998  14.895   0.925  14.692  0.0137 -0.0977 -0.2021
10719W        W30999   4.583   8.196   2.532  0.0743 -0.1444  0.1345
10720W        W31000  10.576   1.201  14.653 -0.0848  0.0628 -0.1649
10721W        W31001   2.952  11.428   4.015  0.2333 -0.0330 -0.0389
10722W        W31002  18.027   0.421   0.373 -0.2416  0.0997  0.1492
10723W        W31003   1.997   5.645   1.462  0.3555 -0.1279  0.0024
10724W        W31004  11.084   4.905  12.019 -0.1150 -0.2205  0.1451
10725W        W31005   8.044  15.024   4.071 -0.1993 -0.2235 -0.3963
10726W        W31006   5.428  17.411   0.172  0.2356  0.3006 -0.0468
10727W        W31007   0.967  16.594  15.083  0.1305  0.1373 -0.0021
10728W        W31008   9.576  16.528   4.663  0.2469  0.0779  0.0464
10729W        W31009   4.117  16.641   3.594 -0.0313  0.0736  0.3754
10730W        W31010   3.302  16.137  14.153 -0.1806  0.3282 -0.1132
10731W        W31011  10.098  10.881  14.968  0.0802  0.1102 -0.0270
10732W        W31012  16.934   2.726  12.676 -0.1079 -0.1987 -0.1453
10733W        W31013   2.185   2.447   4.515 -0.0382 -0.1875 -0.0257
10734W        W31014   3.975  15.775  10.845 -0.2162  0.0185 -0.4078
10735W        W31015  11.432  18.163  11.774  0.2605 -0.2809  0.0117
10736W        W31016   4.963   9.599   0.637 -0.2116  0.2986  0.3859
10737W        W31017  11.203  18.100  12.249  0.2217  0.0319 -0.0572
10738W        W31018  16.821   3.255   4.444 -0.1317 -0.0426  0.0639
10739W        W31019  15.932  13.574  12.636  0.1488 -0.1426 -0.0758
10740W        W31020  17.737  16.339   2.874  0.1795  0.4024 -0.1441
10741W        W31021   5.018   3.273  11.644 -0.1974  0.0997 -0.4741
10742W        W31022  12.052   3.825   3.291  0.3264 -0.0215  0.0598
10743W        W31023  18.285   0.347  11.581  0.0392  0.0395  0.0331
10744W        W31024  17.814   6.279  13.067 -0.0841  0.0511 -0.0220
10745W        W31025   8.401  17.854   1.868 -0.1248 -0.1502  0.3031
10746W        W31026   7.977   4.700   2.799 -0.1913  0.1495  0.3179
10747W        W31027  10.407  16.320   3.918  0.2854  0.0210  0.0588
10748W        W31028  14.566  14.094   1.373  0.1106 -0.0914  0.1443
10749W        W31029   2.117   9.379   2.861 -0.1753  0.3918  0.0194
10750W        W31030   7.616   4.811   1.996 -0.0855 -0.3970  0.0304
10751W        W31031  13.297  16.268  14.676  0.0783 -0.0394  0.1360
10752W        W31032   6.112  10.224  12.641  0.3553  0.0035  0.0556
10753W        W31033   3.205   1.631   4.335 -0.3939 -0.0131  0.0362
10754W        W31034   0.292   7.220  15.105  0.0076 -0.2705  0.1401
10755W        W31035  18.160  15.670   4.342 -0.0032  0.1949 -0.0449
10756W        W31036   1.644   8.063  13.342 -0.1623  0.2698 -0.0819
10757W        W31037  16.924   6.662  14.074  0.1184 -0.4973  0.2883
10758W        W31038  10.895   4.687   1.926  0.0550 -0.1756  0.1451
10759W        W31039  11.856   0.190  14.117  0.3167 -0.0042 -0.2141
10760W        W31040  15.757   2.757  13.632  0.1927 -0.2863  0.1688
10761W        W31041  15.277   6.800  13.193  0.2289  0.1574 -0.1768
10762W        W31042  16.194  14.552  15.176  0.0714  0.4379  0.3300
10763W        W31043   1.921   1.573  15.909 -0.0575 -0.1639 -0.3636
10764W        W31044   6.489  18.025  13.675 -0.1914  0.1726  0.1837
10765W        W31045  16.650   7.389  12.658  0.1440  0.1748  0.2779
10766W        W31046  15.631  16.380   4.312 -0.0958 -0.2462 -0.0815
10767W        W31047  16.417  18.276   3.848  0.2985 -0.1702 -0.0441
10768W        W31048   2.361   2.954  14.955  0.0032 -0.2581  0.0181
10769W        W31049   5.332   6.329  14.068  0.1516 -0.0991  0.0803
10770W        W31050   1.092   8.875  13.567 -0.2514 -0.1299 -0.0447
10771W        W31051  15.828  13.273   5.838  0.0322 -0.1615 -0.1915
10772W        W31052  13.478   1.406   0.382 -0.1017 -0.2099 -0.0136
10773W        W31053   4.316  17.491   1.041  0.1145 -0.0218 -0.1401
10774W        W31054   3.288   3.836  14.133 -0.0611 -0.0715  0.0696
10775W        W31055   2.869   0.963   1.400  0.3430 -0.0780 -0.2472
10776W        W31056   3.439  10.516   2.573  0.4206  0.2314 -0.1297
10777W        W31057   4.561   4.983  10.735  0.2975  0.1309 -0.1280
10778W        W31058   1.422  10.525   2.723  0.0797 -0.2065  0.2523
10779W        W31059   6.723   9.335   0.370  0.2692 -0.4075  0.1123
10780W        W31060  10.808  13.284   4.939 -0.0643 -0.0501 -0.2051
10781W        W31061   3.843   5.321  14.698 -0.0650  0.0847  0.1195
10782W        W31062  16.495  10.837   3.891 -0.1118  0.3502  0.0971
10783W        W31063  17.172  16.687   1.902  0.0868  0.0250  0.0149
10784W        W31064  10.920   3.629   2.470  0.0577 -0.1911 -0.1455
10785W        W31065   2.112  13.472   2.245 -0.1938 -0.0776  0.0964
10786W        W31066   8.101   4.181  15.347 -0.0803 -0.0956  0.0399
10787W        W31067   5.982   8.175   4.872  0.2415 -0.0602  0.1929
10788W        W31068  16.231   0.817  15.881 -0.0375 -0.0670  0.0630
10789W        W31069   4.076   2.300  15.327  0.1128 -0.1081 -0.1527
10790W        W31070  18.109   3.792   3.947  0.1092  0.2753  0.0211
10791W        W31071   8.086   6.626  14.133  0.1312 -0.2845  0.1893
10792W        W31072  15.609  12.820   1.262  0.1607 -0.1145  0.1859
10793W        W31073  14.940  15.787   4.344  0.1493  0.3382  0.0028
10794W        W31074   3.086  15.013   3.834 -0.1774 -0.2401  0.1343
10795W        W31075  16.819  15.023  13.393  0.3995 -0.1718 -0.1423
10796W        W31076   0.365  14.303  11.953  0.1465 -0.0712 -0.2094
10797W        W31077  10.604   8.770  13.662  0.1577 -0.1763 -0.1047
10798W        W31078   0.309   5.320  15.046 -0.2839 -0.1449 -0.2945
10799W        W31079  14.573   1.266   3.029  0.0323 -0.2984 -0.0255
10800W        W31080   5.293   3.715   3.584 -0.0272 -0.0836 -0.1496
10801W        W31081   1.251   4.215  11.418 -0.2271 -0.0590  0.0636
10802W        W31082   5.378  12.485  14.446  0.2957 -0.2402  0.2570
10803W        W31083   7.998   7.150  13.656  0.2753 -0.1349 -0.0309
10804W        W31084   8.105   1.189  12.377  0.0715  0.0190  0.0252
10805W        W31085  16.021  17.557  15.215  0.0615  0.0581 -0.0965
10806W        W31086  10.536   9.096  15.136 -0.2403 -0.2307  0.3735
10807W        W31087   1.743   6.997  14.812 -0.0070  0.2737  0.0253
10808W        W31088  17.601  11.331  14.695 -0.0829  0.0777  0.0428
10809W        W31089  15.389   4.294  12.808  0.1077 -0.2682 -0.1711
10810W        W31090   0.135  16.019   4.526 -0.1182  0.0052  0.1706
10811W        W31091   5.810  16.522  13.647 -0.1281 -0.1176 -0.2177
10812W        W31092  14.282   0.352   2.782  0.0067  0.1083 -0.1394
10813W        W31093   1.046  10.776  10.719  0.2694  0.0015  0.1361
10814W        W31094  14.553  10.344  13.165  0.0308 -0.0975  0.0790
10815W        W31095   8.934  11.175   1.552 -0.0355 -0.3291 -0.0334
10816W        W31096  15.758   8.271   3.310 -0.1883 -0.0536  0.1963
10817W        W31097   4.674  11.184  11.989  0.0351 -0.0898 -0.0118
10818W        W31098  13.345   4.067   5.565 -0.1342 -0.0361  0.2676
10819W        W31099   0.537   1.243   3.534 -0.0212 -0.1397 -0.0168
10820W        W31100   2.305  14.996  13.030  0.2523 -0.0672  0.0227
10821W        W31101   6.683  17.678  14.645  0.1014 -0.0560 -0.1563
10822W        W31102   5.725   2.822   4.468 -0.0943 -0.2827  0.3374
10823W        W31103  11.097  15.674   2.705  0.0042  0.0712 -0.4014
10824W        W31104  14.079   6.340  15.284 -0.2145 -0.0966  0.3439
10825W        W31105   7.821   9.771   3.852 -0.2974 -0.0608  0.2300
10826W        W31106   9.254   2.336   5.809  0.0373  0.1836 -0.1929
10827W        W31107   2.698   3.758  13.602  0.2131 -0.0507  0.1948
10828W        W31108   0.071   9.134  11.615  0.0613  0.1467  0.1552
10829W        W31109  11.723   3.348   1.706  0.0841 -0.0804 -0.1218
10830W        W31110   9.745  10.815   1.452  0.3155 -0.1253 -0.0172
10831W        W31111  12.910  12.294   4.273 -0.0590  0.1612 -0.4248
10832W        W31112   8.254   9.194   2.665  0.0645  0.0144 -0.1399
10833W        W31113   7.427  17.540   3.001  0.1698 -0.1100 -0.2923
10834W        W31114  11.654  13.528   1.157  0.2312  0.1976  0.2940
10835W        W31115   3.048  11.464   3.021  0.0474  0.2278 -0.2043
10836W        W31116   0.477  13.728   4.226 -0.0557 -0.2429  0.4024
10837W        W31117  12.884   4.495  15.500 -0.1775  0.2754  0.2423
10838W        W31118  17.700   0.433  14.022  0.0190  0.2053 -0.3647
10839W        W31119   9.650  14.212  11.750 -0.0766  0.1034  0.2310
10840W        W31120  17.453  11.713  13.757  0.2682  0.4266  0.0140
10841W        W31121   2.322  13.827   0.690  0.2756  0.2421 -0.2808
10842W        W31122   0.891   1.337   5.617  0.0193  0.1868  0.0024
10843W        W31123  14.744  13.087   3.716  0.1879  0.3375 -0.0999
10844W        W31124   2.955  11.737  14.255 -0.0220  0.2275 -0.0634
10845W        W31125   4.139   0.617  13.316 -0.0408 -0.1770 -0.1852
10846W        W31126  18.087   9.663   2.609 -0.0221 -0.0281 -0.1646
10847W        W31127   1.605   2.455  13.414 -0.1054  0.2795 -0.0127
10848W        W31128  14.221  16.292   1.186 -0.2124  0.1296 -0.3502
10849W        W31129   1.506   3.977  14.577  0.0866 -0.0697 -0.1419
10850W        W31130  16.775   4.972   1.246  0.0796  0.1468  0.3444
10851W        W31131  11.059   4.949   1.542 -0.1899 -0.0622 -0.0685
10852W        W31132   5.078  14.767   3.778  0.0196 -0.0697  0.1590
10853W        W31133  10.776   5.708  15.787  0.1728 -0.0182  0.2950
10854W        W31134  10.734   8.309  11.938  0.2638 -0.0565 -0.0369
10855W        W31135   4.686   0.085  12.410  0.0257  0.0067 -0.0829
10856W        W31136  15.657   1.657   2.125  0.1099  0.0315 -0.0851
10857W        W31137  15.290  15.824   2.148 -0.0226  0.2433  0.1298
10858W        W31138  13.478  14.293  12.716  0.0728  0.0387  0.0490
10859W        W31139   8.449  13.425   3.323  0.1060  0.3156 -0.0994
10860W        W31140  15.297   5.738  14.119  0.0679  0.1728  0.4036
10861W        W31141   5.528  16.558   3.494  0.1194 -0.0339  0.0119
10862W        W31142   6.722   1.022  12.945 -0.1009  0.2419  0.1144
10863W        W31143   6.090  14.968   3.375 -0.1436 -0.1712  0.0034
10864W        W31144   2.018  13.124  15.500  0.0823 -0.0497  0.1299
10865W        W31145  15.624   0.712   2.703  0.2437 -0.0710  0.1924
10866W        W31146   0.941  11.238  14.334 -0.1862  0.2181  0.0357
10867W        W31147   3.380   0.433  10.310  0.0398  0.1646  0.0096
10868W        W31148   5.501  16.094   3.595  0.1940 -0.0770  0.0985
10869W        W31149   0.158   8.946   4.193  0.1846 -0.0200 -0.1883
10870W        W31150   4.733   9.177   2.162 -0.0523  0.0304  0.0291
10871W        W31151  11.497  15.159   3.150 -0.2514 -0.1560 -0.5164
10872W        W31152  14.553   2.558  15.231  0.1089  0.2959 -0.1322
10873W        W31153   9.082  10.667   0.823 -0.0435 -0.2072  0.0632
10874W        W31154   6.222  12.380  14.929  0.1664  0.0001  0.0988
10875W        W31155   6.966  10.262  11.545  0.3759 -0.1784  0.1261
10876W        W31156   1.788   3.111  15.026  0.3612 -0.2552 -0.1696
10877W        W31157   7.636   9.031   0.827  0.0753 -0.0438  0.1926
10878W        W31158  16.731   6.460   1.347 -0.2257  0.1121  0.0915
10879W        W31159  16.928   7.607   3.126  0.1549  0.4649 -0.3889
10880W        W31160  11.431  10.890  14.483  0.1818  0.1964 -0.1277
10881W        W31161  15.328  18.214   1.381  0.2173 -0.0204 -0.0682
10882W        W31162  11.678  15.207  13.905  0.2616 -0.3352 -0.1537
10883W        W31163   4.472   2.807   0.948 -0.0083  0.2925 -0.1863
10884W        W31164  13.319  15.385  12.502 -0.1877  0.0354 -0.0007
10885W        W31165   6.207   1.568   1.953 -0.2054  0.0601  0.1928
10886W        W31166   6.703  12.439   1.917  0.1290  0.0861  0.2322
10887W        W31167   5.691   7.782  14.199 -0.3510  0.1785 -0.0561
10888W        W31168  11.809  16.340  12.540  0.3199 -0.1111  0.0408
10889W        W31169  14.711  13.989   4.222 -0.1770  0.2583 -0.0518
10890W        W31170  17.489   4.025  12.939 -0.0407 -0.0447 -0.0218
10891W        W31171   3.711  15.062  13.008  0.1056 -0.0047  0.1896
10892W        W31172  13.566  18.214  12.671  0.0096 -0.2011 -0.1058
10893W        W31173  14.138   8.605  12.339  0.1262  0.1210  0.3779
10894W        W31174   7.297   9.681  12.200 -0.2454  0.2748  0.0726
10895W        W31175  13.370  13.189  12.762 -0.0691 -0.1194 -0.3455
10896W        W31176   0.231  17.259  12.043 -0.0476  0.1156 -0.0531
10897W        W31177   2.618   8.198  14.434 -0.2035 -0.1750  0.0757
10898W        W31178  18.297   6.865   2.987  0.0757  0.0065 -0.0075
10899W        W31179   9.872  15.029  14.573  0.2544 -0.1367 -0.1157
10900W        W31180   9.823   1.674   2.003 -0.1710  0.0701  0.1811
10901W        W31181   9.289  11.932   2.066 -0.1750  0.0347 -0.0650
10902W        W31182  14.698   6.303   2.344 -0.3730 -0.1348  0.1037
10903W        W31183   3.062   7.487  15.036 -0.0865 -0.1478  0.0239
10904W        W31184  13.629   6.782  13.878 -0.1203  0.1282  0.3566
10905W        W31185  11.575   7.608  12.743 -0.1577 -0.3425  0.1474
10906W        W31186  14.742   4.280  14.492 -0.1079 -0.0001 -0.0157
10907W        W31187   0.354   7.561   1.542  0.1442  0.1274 -0.0684
10908W        W31188  11.823  17.572   2.962  0.4062  0.0542 -0.2179
10909W        W31189  13.996   0.366  14.999 -0.1113  0.0118 -0.0102
10910W        W31190   1.752   4.324   0.100 -0.1514  0.2760  0.1832
10911W        W31191  18.076  16.638   0.227 -0.0418 -0.2033 -0.0587
10912W        W31192   0.338   7.211  14.035  0.0115 -0.0333  0.0709
10913W        W31193  13.803  13.739  13.415  0.1232  0.2764  0.0132
10914W        W31194   0.435   3.460   4.454  0.2900  0.0714  0.0975
10915W        W31195  18.293   8.564  14.196  0.3175  0.0028 -0.1148
10916W        W31196  11.731  15.964   1.975  0.4707 -0.1213 -0.0387
10917W        W31197  16.372  14.852   3.759  0.0862  0.0820 -0.0227
10918W        W31198   9.343  18.305   2.916  0.0140  0.0844  0.3258
10919W        W31199  10.155  11.376   3.157 -0.3751 -0.0883  0.2757
10920W        W31200   7.354  11.471  15.099 -0.1594 -0.2283 -0.0924
10921W        W31201  15.823  10.052   2.267 -0.0812  0.2666 -0.2953
10922W        W31202   7.169   1.685   0.479  0.0399 -0.2072 -0.1304
10923W        W31203   9.354  17.371   2.031 -0.5666 -0.0064 -0.1475
10924W        W31204   1.171   9.493  13.076  0.1574 -0.3021  0.1488
10925W        W31205   9.535   6.063   3.736 -0.0274  0.0977  0.3559
10926W        W31206  14.974   1.617  13.552 -0.2157  0.0485  0.0462
10927W        W31207   8.554  11.764  12.995 -0.0239  0.0010 -0.0316
10928W        W31208  14.243   9.228   1.428 -0.3773 -0.0645  0.0759
10929W        W31209   4.977  13.937   4.278  0.0517  0.1997  0.0356
10930W        W31210   0.673   5.251   0.964  0.1243  0.0989 -0.0761
10931W        W31211   4.657  12.551   1.677 -0.0744  0.0591  0.1172
10932W        W31212  16.345   5.343  14.330 -0.1215 -0.0527  0.2707
10933W        W31213  12.766   8.052  13.310 -0.1240 -0.3429 -0.0637
10934W        W31214   7.895   5.807  11.761  0.0332 -0.0926 -0.2625
10935W        W31215  10.287   0.172  12.066 -0.0070  0.1720  0.0596
10936W        W31216   5.728   6.890   0.559  0.2581  0.1479  0.4761
10937W        W31217   6.205   8.709  11.862 -0.1524  0.3561  0.0231
10938W        W31218  15.825   5.953   4.209  0.1612  0.0887  0.2276
10939W        W31219  17.087  15.765  12.337 -0.0881 -0.1397 -0.3636
10940W        W31220  10.986   4.002  15.502  0.1697 -0.1603 -0.0605
10941W        W31221   3.901   2.108   1.184  0.0618 -0.0307  0.2587
10942W        W31222   3.581   7.227   1.394  0.0890  0.1345  0.0494
10943W        W31223  11.081  13.672  12.925 -0.1177 -0.0160  0.0315
10944W        W31224  11.125   9.563  13.999 -0.1182 -0.2331  0.2274
10945W        W31225  10.507   2.005   2.185 -0.0139  0.3860  0.0197
10946W        W31226  15.551  11.858   0.289  0.0028  0.1560 -0.0624
10947W        W31227   6.367   6.615  13.041  0.2634  0.0427  0.0589
10948W        W31228   9.764  11.867   4.877 -0.1607  0.0675  0.0195
10949W        W31229  13.984   9.316   4.809 -0.1853  0.1111  0.1455
10950W        W31230   3.895  10.499   2.685  0.1679  0.2296 -0.0686
10951W        W31231  10.497   4.478  14.711  0.0061 -0.2035  0.0497
10952W        W31232  10.822  11.944   1.559 -0.1149  0.0198 -0.0429
10953W        W31233   3.412   1.002  14.317  0.0319  0.3343 -0.5230
10954W        W31234  16.720   3.311   2.058  0.1957 -0.0847  0.2425
10955W        W31235   8.769  11.599  13.456 -0.1939 -0.1301  0.1608
10956W        W31236   5.333   2.817  15.728 -0.0321 -0.3540  0.3641
10957W        W31237  10.565  16.310   0.763  0.0757  0.2274 -0.1904
10958W        W31238   4.252   9.437  14.780 -0.0496 -0.0483  0.1201
10959W        W31239   1.093  10.781  14.263  0.2881  0.3269  0.1354
10960W        W31240  16.944  16.479  14.766  0.0037 -0.0338  0.1805
10961W        W31241  13.682   5.315   0.462  0.2801 -0.1467  0.1311
10962W        W31242   0.289   2.221  15.687  0.2042  0.4230  0.2579
10963W        W31243   2.019   8.344  11.571  0.0766  0.1496  0.1506
10964W        W31244  17.567   1.751  11.324 -0.1417 -0.0339  0.0286
10965W        W31245   7.718  14.142   3.091 -0.3170 -0.0727 -0.2522
10966W        W31246   9.688   2.224  15.174  0.4999 -0.2397 -0.0209
10967W        W31247   7.524  16.482  11.610 -0.1598  0.0589  0.3531
10968W        W31248  18.299   9.647  12.740  0.0634  0.1094  0.1765
10969W        W31249   3.584   6.319   3.592 -0.2344  0.3212 -0.0079
10970W        W31250  16.388  15.012   0.314  0.1381 -0.2201  0.1633
10971W        W31251   1.252   6.894   2.222  0.4406  0.1429 -0.3075
10972W        W31252   7.793  14.418   0.042 -0.0844  0.2762 -0.1717
10973W        W31253   9.405   0.442   1.046  0.3199 -0.2273  0.2498
10974W        W31254   3.462  16.044   1.751  0.1889  0.0302 -0.0889
10975W        W31255  12.440  14.494  12.816 -0.2987 -0.1323 -0.0177
10976W        W31256  11.343   2.409   0.921 -0.2276  0.0948 -0.1868
10977W        W31257  13.133  17.599   1.402 -0.1631  0.1267  0.0395
10978W        W31258   6.840  10.017  15.683 -0.3273 -0.1969 -0.0508
10979W        W31259  13.846   9.868   2.081  0.2247  0.0581 -0.0791
10980W        W31260   6.294  16.800  14.597  0.0686 -0.3588  0.0838
10981W        W31261  10.511  12.759   2.880  0.0411 -0.2414 -0.0686
10982W        W31262  11.552  17.637   1.581 -0.0146 -0.1129 -0.3226
10983W        W31263  11.837   8.876  14.111  0.2664  0.2543  0.2193
10984W        W31264   7.870  14.761   0.965 -0.2417  0.1287 -0.1920
10985W        W31265   6.840  13.674   2.745 -0.1541 -0.1710 -0.2441
10986W        W31266   5.155   3.763  13.275  0.0005  0.1465 -0.0649
10987W        W31267  11.807  13.348   1.632 -0.0517 -0.0429  0.1773
10988W        W31268   8.152  10.570  12.016 -0.2566 -0.0167 -0.1642
10989W        W31269   1.519  11.704  13.232  0.2052 -0.4068  0.1399
10990W        W31270  16.030   5.147   3.585 -0.2013 -0.0658 -0.0801
10991W        W31271  14.513   4.397   0.297 -0.4253  0.1989  0.2098
10992W        W31272   2.264   1.889  14.324  0.0694  0.0485  0.0509
10993W        W31273   7.741   2.182  14.676  0.1764  0.0274 -0.1398
10994W        W31274  11.240  14.561   0.063 -0.1756 -0.2709  0.1134
10995W        W31275   1.559  16.107  14.650 -0.0799 -0.0242  0.1664
10996W        W31276  14.682  17.759   3.303  0.2752 -0.0309 -0.3546
10997W        W31277   0.911  10.417   1.377  0.3550  0.2091 -0.2395
10998W        W31278   7.469  14.515  13.614 -0.1199  0.2665  0.1533
10999W        W31279   2.586  12.108   0.851 -0.1560  0.0626  0.0423
11000W        W31280   6.537  17.739  11.931 -0.2131  0.2739  0.0764
11001W        W31281   9.948   2.378   1.528  0.0293  0.2104  0.0084
11002W        W31282  15.869   9.100  13.800  0.6395  0.0785  0.0244
11003W        W31283   7.764  17.646  12.244 -0.1235  0.1830  0.1173
11004W        W31284   1.961  10.370  15.189 -0.3342 -0.0471 -0.1704
11005W        W31285  18.086   6.044  15.134  0.2375  0.0122 -0.2367
11006W        W31286  11.484   6.446   4.362 -0.1748  0.0935  0.0810
11007W        W31287  12.189   7.008  12.858 -0.3113  0.0867  0.0495
11008W        W31288   1.508   6.533  13.241  0.0686  0.0266  0.0342
11009W        W31289  14.040  10.163   1.663 -0.0897  0.0827 -0.0026
11010W        W31290   2.575   7.398   0.225 -0.1396 -0.2298  0.0008
11011W        W31291  12.856  12.405  13.551 -0.2169  0.1763  0.1389
11012W        W31292   0.110   0.771   0.436  0.0065 -0.2317 -0.0623
11013W        W31293   1.584   3.438  15.440 -0.2110 -0.4775 -0.1429
11014W        W31294   9.095   8.263   1.815  0.2212  0.0115 -0.2002
11015W        W31295   7.911  11.245   3.811  0.0666 -0.0693 -0.1493
11016W        W31296  10.337  17.415   0.238  0.0820  0.0337 -0.0607
11017W        W31297   3.911  16.708   1.311 -0.0517 -0.1040  0.0072
11018W        W31298   7.766   1.217   2.269  0.0985  0.0455 -0.1668
11019W        W31299  10.579   7.892   0.128  0.0608 -0.0382 -0.0574
11020W        W31300  11.222  15.464  13.452 -0.3339 -0.1838 -0.0714
11021W        W31301   7.809   8.655  13.694 -0.0019 -0.0345 -0.0264
11022W        W31302  15.684  15.557   0.379 -0.0255 -0.1400  0.2481
11023W        W31303   5.906   3.097  13.485 -0.0118  0.0349 -0.2107
11024W        W31304  10.219   1.309   0.736 -0.1741 -0.4113 -0.0513
11025W        W31305   4.846   5.698  15.554 -0.1814 -0.1662 -0.0489
11026W        W31306  16.758  13.771   0.759 -0.0824  0.1111 -0.2313
11027W        W31307   1.004  15.000   4.317 -0.0854 -0.0873  0.0044
11028W        W31308   4.946  16.906  13.973 -0.0929  0.2048 -0.1536
11029W        W31309   2.620  12.273   2.379 -0.0551 -0.0051  0.1888
11030W        W31310   7.452   1.408  14.243 -0.0486  0.1710 -0.0713
11031W        W31311   7.245   7.699   2.436 -0.0075  0.0771 -0.2363
11032W        W31312  12.750   0.472   1.511 -0.1890  0.0877  0.2949
11033W        W31313  15.706   9.449   2.823  0.1466 -0.3244  0.0059
11034W        W31314  17.771  17.354   3.449 -0.0386 -0.2102 -0.1900
11035W        W31315  14.494   2.053   3.329 -0.0064 -0.0573  0.0582
11036W        W31316  10.089   1.525   4.470 -0.0217  0.2933  0.0490
11037W        W31317  13.556   4.542  12.429 -0.3139 -0.0745 -0.0699
11038W        W31318  18.247   6.965  13.643 -0.0316 -0.4298 -0.0468
11039W        W31319  11.853  14.683  11.792 -0.0525  0.1360  0.0329
11040W        W31320  13.609  11.843  14.821 -0.0013 -0.0495  0.2359
11041W        W31321  17.860  11.961  13.616  0.1475 -0.1752  0.3572
11042W        W31322   0.899  14.540  11.925 -0.1560  0.0990 -0.1112
11043W        W31323  17.253  10.821  14.929  0.1515  0.0208  0.5485
11044W        W31324  11.651   8.332  12.367 -0.2001 -0.3005  0.2640
11045W        W31325  12.808  10.510  12.426  0.2272 -0.1212  0.0292
11046W        W31326  11.760  11.619  11.987  0.1038  0.0434 -0.3717
11047W        W31327   0.298   4.213  14.484 -0.0826  0.0415 -0.0207
11048W        W31328  10.255   1.704   0.354  0.0940 -0.1474 -0.1251
11049W        W31329  10.965  14.750  11.895  0.2855  0.0295 -0.4074
11050W        W31330   4.982   7.172   2.655  0.0937  0.1086  0.1227
11051W        W31331   2.844   1.898  15.327 -0.3653 -0.2096  0.3297
11052W        W31332   9.372   5.829   1.054  0.0462  0.2188  0.1294
11053W        W31333  14.135   6.127   4.032  0.1549 -0.2032  0.1195
11054W        W31334   5.583   5.850   4.004 -0.0127 -0.2421 -0.2130
11055W        W31335   4.574  13.605  13.857  0.1947  0.1366  0.0471
11056W        W31336  13.111   6.828  14.795 -0.0836  0.3077 -0.1283
11057W        W31337  10.186  14.508   2.796  0.0676 -0.1061  0.0200
11058W        W31338  15.887   9.284   5.819  0.0261 -0.2076 -0.1836
11059W        W31339   6.130   5.122  12.395  0.0341 -0.3679  0.0407
11060W        W31340   5.503  14.779   3.407 -0.0861  0.0880 -0.2324
11061W        W31341  16.005  16.902  14.054 -0.2564 -0.0254 -0.1417
11062W        W31342   9.250  18.310   3.404 -0.0823  0.1816 -0.1254
11063W        W31343  14.884  17.110  12.478 -0.0479  0.1470  0.0250
11064W        W31344  16.897   0.074  11.835 -0.2611  0.1361 -0.0040
11065W        W31345   9.992  10.355  11.874  0.3102  0.3790 -0.0411
11066W        W31346  11.709   9.982  15.515  0.2232  0.1167  0.1000
11067W        W31347   2.562   0.278   0.309  0.1371 -0.1078  0.1481
11068W        W31348  11.093   7.413   3.337  0.0685 -0.0614  0.2933
11069W        W31349  11.912   0.189   1.941  0.0171  0.1111 -0.2282
11070W        W31350   7.893   3.393  15.352  0.0958  0.1967  0.2756
11071W        W31351   7.675  14.944  13.892  0.0758 -0.0116 -0.1070
11072W        W31352  17.112   1.766  14.468 -0.3434  0.0082  0.0434
11073W        W31353   6.453   8.022   4.138 -0.0250 -0.1632 -0.1393
11074W        W31354  15.739   1.376  11.378  0.2437 -0.1267 -0.2505
11075W        W31355  12.857   8.129   1.766 -0.0787 -0.0099  0.1905
11076W        W31356   4.924   8.505  12.458  0.1357 -0.0967 -0.0116
11077W        W31357   2.545  13.085  13.165 -0.0944 -0.0815  0.0518
11078W        W31358  10.858  13.376  11.168  0.1344 -0.0732  0.0258
11079W        W31359   3.827   3.259  13.853  0.0699 -0.1492  0.2393
11080W        W31360  16.605   3.933   1.544  0.2757  0.0958  0.0407
11081W        W31361   0.324   2.431  13.253 -0.0080  0.3340  0.1560
11082W        W31362  13.637   5.682   1.761  0.0826  0.1114  0.0546
11083W        W31363   6.418  13.239   3.531 -0.4421  0.4671  0.0384
11084W        W31364  13.540   9.097  13.456  0.3359 -0.2656  0.0283
11085W        W31365  15.295   6.682  14.619  0.1515 -0.1403 -0.1388
11086W        W31366  17.147   0.354   1.109 -0.0804 -0.1380  0.1190
11087W        W31367   3.650  12.352  12.921 -0.0860  0.2896 -0.1944
11088W        W31368  15.682  13.051   2.918  0.1050 -0.1437 -0.0766
11089W        W31369  16.663  14.788   2.606  0.2107  0.1561  0.0319
11090W        W31370   9.651   5.182   3.784  0.0906 -0.0138  0.4675
11091W        W31371  11.752  15.072  15.724  0.3926 -0.1685  0.0757
11092W        W31372   5.869   9.451  14.035 -0.2703  0.0842 -0.1234
11093W        W31373  14.209   5.687   2.656  0.1682  0.1265  0.1476
11094W        W31374  12.833   6.828   0.979 -0.0334 -0.1561  0.2208
11095W        W31375   8.170   1.197  15.822 -0.1432  0.1102 -0.1903
11096W        W31376  11.191  13.535  15.139  0.0628  0.0559 -0.0974
11097W        W31377  11.526   1.006   2.702 -0.0903 -0.3401  0.1094
11098W        W31378   0.876   3.180  15.246  0.1527 -0.0464 -0.2095
11099W        W31379   9.565   1.337  15.813 -0.1758  0.0865 -0.1871
11100W        W31380  15.647  13.207   3.838  0.1700  0.1639 -0.0747
11101W        W31381  15.333  13.699   0.793  0.0632  0.0047 -0.0869
11102W        W31382  14.300   2.831   0.947 -0.0146 -0.2823 -0.0264
11103W        W31383   1.281   9.776   3.858  0.1257  0.0894 -0.0277
11104W        W31384   4.330   5.143   1.508 -0.0955  0.2115  0.0340
11105W        W31385   2.354  15.812  11.871  0.0057  0.1273  0.0221
11106W        W31386   0.791  17.845  13.731 -0.1597 -0.1193 -0.3086
11107W        W31387  17.426   7.021  14.573  0.1748  0.0415  0.1849
11108W        W31388  16.215  14.816   4.282  0.2304  0.2315 -0.1882
11109W        W31389   8.766   1.976  12.607 -0.0805 -0.0772  0.0205
11110W        W31390  12.403  17.628   1.506 -0.4718  0.1629 -0.0732
11111W        W31391  11.389  10.415  13.680 -0.1420 -0.0484 -0.0731
11112W        W31392  13.978   3.077   2.531  0.1660 -0.2999 -0.1787
11113W        W31393  16.347  18.295  12.020  0.0051 -0.1114 -0.2581
11114W        W31394   6.918  15.781   3.491  0.2497  0.0788  0.4224
11115W        W31395   3.752   1.344  11.859  0.1130 -0.0736  0.1018
11116W        W31396   0.376   1.681   3.737 -0.0005  0.1983 -0.4521
11117W        W31397   1.402   0.292   2.242  0.3727  0.0908  0.3885
11118W        W31398   1.794   6.086   4.663 -0.2146  0.0033  0.1861
11119W        W31399  10.244   5.676  13.261 -0.4753 -0.1655 -0.1495
11120W        W31400   6.914  18.185   1.456 -0.0041  0.0536 -0.0219
11121W        W31401   1.486  12.059   3.048 -0.3221  0.0721 -0.1864
11122W        W31402   1.949   1.239   1.361  0.1091  0.2544  0.2430
11123W        W31403  16.848   1.789  12.418 -0.0234 -0.2067 -0.1482
11124W        W31404   2.989   1.963   1.190 -0.0543  0.0063  0.0662
11125W        W31405  10.206   7.802  11.321 -0.1158  0.1091 -0.1268
11126W        W31406  17.421   7.457  15.546 -0.1813  0.1707  0.0270
11127W        W31407   0.772  15.447   4.428  0.0877  0.2224  0.4365
11128W        W31408  11.804   8.983  11.751 -0.0800 -0.0393  0.0090
11129W        W31409  10.721  18.285   4.042  0.0251  0.0790 -0.0352
11130W        W31410  17.889  12.969  12.891 -0.0839 -0.0763  0.0953
11131W        W31411  13.975   8.599   3.873 -0.1646 -0.1289  0.3593
11132W        W31412  14.994  11.538  13.379  0.1141 -0.1715 -0.0289
11133W        W31413  14.977  10.315   3.759  0.1789 -0.0642 -0.2063
11134W        W31414   7.165   2.162  14.373  0.1859  0.0814  0.0165
11135W        W31415  11.194  16.914   3.215 -0.1339 -0.1001 -0.1945
11136W        W31416   0.087  15.292   3.123  0.1657  0.3182 -0.2199
11137W        W31417   0.086  12.618   1.865 -0.0133 -0.0204  0.0520
11138W        W31418   1.762   9.243  12.479  0.0871  0.2772 -0.2365
11139W        W31419   1.912   6.419  14.633 -0.2348  0.0425 -0.0370
11140W        W31420   6.036   0.449  13.409 -0.2675 -0.2239 -0.0175
11141W        W31421  13.028   7.236  12.642  0.0123 -0.2301  0.1784
11142W        W31422   8.111  11.521  14.315 -0.0054  0.4325  0.2226
11143W        W31423   6.144   5.733  14.399  0.0478 -0.3398  0.2304
11144W        W31424   7.679   1.828   1.729  0.0927  0.0252  0.0154
11145W        W31425  12.710   5.411  14.362 -0.0667 -0.1779  0.3229
11146W        W31426   9.902  11.659  14.410  0.3963 -0.0955 -0.0142
11147W        W31427   0.800   0.943  13.099 -0.0601  0.3970 -0.0535
11148W        W31428   7.290  14.275  14.018  0.0396 -0.0894 -0.1406
11149W        W31429  17.242  16.169  12.677  0.1248 -0.1845  0.0247
11150W        W31430  16.219   3.195   2.198  0.0022 -0.1654 -0.2348
11151W        W31431   2.095   8.540   0.800  0.1141 -0.2573  0.0967
11152W        W31432  15.693   2.886   1.789  0.1854  0.0730  0.1859
11153W        W31433   1.489  10.917  14.541  0.0941 -0.2107  0.2309
11154W        W31434  16.571  15.813  15.856  0.0540 -0.0857 -0.0215
11155W        W31435   7.015   4.924   4.274 -0.0771 -0.2692 -0.3421
11156W        W31436   5.658   3.256   2.104 -0.1662  0.2883  0.0394
11157W        W31437  15.713  10.298  14.244  0.0403  0.2523  0.1224
11158W        W31438   2.545   9.408   2.555  0.0568 -0.1811 -0.0033
11159W        W31439   3.302  10.370  15.282 -0.4792 -0.1186 -0.1697
11160W        W31440   6.864  17.086  15.924  0.0283 -0.0696 -0.3260
11161W        W31441   8.895   4.654  14.550 -0.0580 -0.1082  0.1344
11162W        W31442  14.789  16.592  11.615  0.0287 -0.1717  0.1145
11163W        W31443   8.707   6.182  12.051 -0.1032  0.2647  0.1396
11164W        W31444  15.400  14.090   1.061 -0.0618 -0.3640  0.0703
11165W        W31445   5.206  16.582   1.754 -0.3625 -0.1130 -0.3049
11166W        W31446   9.056   8.022  13.183  0.0669  0.1211 -0.2843
11167W        W31447  11.098  13.602  14.654  0.2177 -0.0478 -0.1460
11168W        W31448   4.238   1.457  15.080  0.3087  0.4158  0.2435
11169W        W31449   0.701  15.769  14.544  0.0189  0.0457  0.2813
11170W        W31450  16.341  16.846  12.473  0.3430 -0.1237  0.1451
11171W        W31451   7.969   8.108   0.742 -0.0883  0.0184  0.2103
11172W        W31452  16.236   3.410   4.704  0.1969  0.0804 -0.0808
11173W        W31453  15.618  15.174  12.927  0.0342  0.1587 -0.3014
11174W        W31454  13.923   5.650   3.097 -0.2586  0.0945 -0.0489
11175W        W31455   8.712  17.766   2.817  0.1133 -0.0495 -0.0102
11176W        W31456   2.270  13.161  15.087  0.2914  0.0770  0.1045
11177W        W31457  18.305   7.588  13.888 -0.1608 -0.0493  0.2308
11178W        W31458  11.151   8.940  11.831  0.0801  0.3065 -0.1045
11179W        W31459   5.038   7.034  12.002  0.0191  0.1078  0.2148
11180W        W31460   0.204  16.429  12.677  0.1337 -0.0524  0.1515
11181W        W31461   7.539   1.344  13.703 -0.0861  0.1608  0.1390
11182W        W31462   2.418   6.180  12.848 -0.1492 -0.0192 -0.0529
11183W        W31463  15.490   8.062  12.883  0.0723  0.3232  0.1393
11184W        W31464  11.262   9.903  11.622  0.0115  0.1908 -0.0907
11185W        W31465   4.861   7.396  14.671  0.0513 -0.1066 -0.1612
11186W        W31466   1.136   1.342  14.796  0.0951 -0.0826 -0.2116
11187W        W31467   5.662  10.398  13.154  0.0137  0.1329  0.0512
11188W        W31468  14.484  10.395  13.998 -0.1672 -0.2362 -0.1135
11189W        W31469   6.046   8.483   2.791  0.1261 -0.3825  0.1968
11190W        W31470   0.912  14.568  13.383 -0.0152 -0.2787  0.2108
11191W        W31471   4.428   1.949   3.744 -0.0221  0.1266  0.0494
11192W        W31472   5.400  14.872  14.897  0.0895 -0.0353 -0.0348
11193W        W31473  14.749   2.479  13.047  0.2492 -0.4192  0.0355
11194W        W31474  12.521   8.664   0.438 -0.0367  0.1262  0.2417
11195W        W31475  11.415  14.010   2.322  0.0861 -0.2471  0.0296
11196W        W31476   1.311   0.357  11.313  0.0434  0.2548 -0.1383
11197W        W31477  10.471  11.769   0.143 -0.0412  0.0391 -0.2841
11198W        W31478  18.252  14.624   3.234 -0.0172 -0.1929  0.0486
11199W        W31479   4.260  14.061  15.730  0.2091 -0.0266 -0.0044
11200W        W31480  16.100   9.678   3.206 -0.1024 -0.1495  0.1060
11201W        W31481  16.553  10.535   2.606  0.0729  0.3047  0.2807
11202W        W31482   7.042   8.891  12.810 -0.0428  0.2491 -0.0401
11203W        W31483  11.310   7.984  12.496  0.2051  0.2214 -0.1708
11204W        W31484  15.562   5.212   1.434  0.1778 -0.0015 -0.2625
11205W        W31485  13.355  10.516   4.651  0.1752 -0.2409 -0.2389
11206W        W31486  14.307  12.322   2.594 -0.1250  0.1242  0.0404
11207W        W31487  11.695   2.483  12.215 -0.2328  0.1973  0.2920
11208W        W31488  14.502  10.182   5.071 -0.0370  0.2502  0.0864
11209W        W31489   9.423   1.623   4.487 -0.0781 -0.2297  0.0483
11210W        W31490  17.251  13.888  15.702 -0.0331 -0.0131 -0.1861
11211W        W31491  11.001   8.086   1.545  0.2698  0.2447 -0.0301
11212W        W31492  15.257   3.225   3.879 -0.1352  0.1382  0.2202
11213W        W31493   9.460  18.019  11.749  0.0062  0.2851  0.0584
11214W        W31494  14.386   4.483  11.420 -0.1309  0.3489  0.0629
11215W        W31495  10.066  16.680  12.735  0.1565  0.1532  0.1743
11216W        W31496   5.455   8.365   0.909  0.2273  0.0064 -0.1330
11217W        W31497  13.526   7.234  15.175 -0.0645 -0.0887  0.2784
11218W        W31498   4.913   9.998   4.239 -0.0415 -0.1134 -0.0553
11219W        W31499  14.822  13.406  14.800 -0.2692  0.1263 -0.2651
11220W        W31500   9.865  14.164  14.989  0.1406  0.1054 -0.0713
11221W        W31501   4.908  15.634   2.087 -0.2914  0.0096  0.0066
11222W        W31502  14.360  10.736  14.467  0.0023 -0.2233  0.2067
11223W        W31503  13.326   7.967   3.779  0.1603 -0.2929  0.0679
11224W        W31504   3.528   9.596  13.775 -0.0520  0.0893  0.2067
11225W        W31505  13.562  15.671   4.470 -0.0615  0.0719 -0.1954
11226W        W31506   6.649   1.265   2.274  0.1269  0.1863 -0.0400
11227W        W31507   1.363  15.109  14.488  0.1390  0.0320 -0.0291
11228W        W31508   0.521   0.318  15.712 -0.2805  0.1799  0.0589
11229W        W31509  15.701  13.465  15.742 -0.2223 -0.0363  0.1123
11230W        W31510  12.406  16.191   0.288  0.2248 -0.1362  0.0431
11231W        W31511  16.440   8.497   3.807  0.2146  0.0186  0.1904
11232W        W31512   5.321  12.990  14.786 -0.1747  0.2928 -0.0650
11233W        W31513   0.806   2.222  15.057 -0.0570 -0.0717  0.1314
11234W        W31514   5.820   9.544   2.891  0.0085  0.2450 -0.3361
11235W        W31515  11.806   4.638   0.655 -0.1174  0.0481  0.1723
11236W        W31516   6.765   9.375  11.335  0.1861  0.1123  0.1647
11237W        W31517   5.501   4.348   1.987  0.2692 -0.0492 -0.1832
11238W        W31518  15.404   1.491  13.047 -0.2232 -0.1118  0.0971
11239W        W31519  10.124   4.417   4.082  0.1114  0.1612 -0.0754
11240W        W31520   1.083   7.947  13.302 -0.0532  0.3180  0.3751
11241W        W31521  16.027   5.730  12.591  0.1903  0.2355 -0.0344
11242W        W31522  12.261   8.953  13.184  0.3021  0.1420 -0.0893
11243W        W31523   7.879   4.775  14.541 -0.3682  0.1035 -0.0014
11244W        W31524  11.226   8.799  12.466 -0.0219 -0.0760 -0.2378
11245W        W31525  14.992   4.763   1.975  0.1980  0.0442  0.0760
11246W        W31526   0.027   5.843  14.276 -0.1700 -0.0808  0.0557
11247W        W31527   8.248   9.752   5.181 -0.0134  0.1145 -0.2138
11248W        W31528  14.927   2.034  12.630  0.0095  0.0625  0.1688
11249W        W31529   2.267   0.171  12.260 -0.1141 -0.1103  0.0361
11250W        W31530  16.747  11.701  15.090 -0.3964  0.0734  0.0253
11251W        W31531  12.621  10.158  11.992  0.1179  0.0028 -0.3152
11252W        W31532   0.453   8.777   3.147 -0.0710  0.1532  0.0409
11253W        W31533  13.252  10.030  11.710 -0.3569 -0.3382 -0.4178
11254W        W31534  11.619   9.936  14.870 -0.1076 -0.3121 -0.0368
11255W        W31535   2.177  12.649  12.465 -0.0041 -0.0674  0.1313
11256W        W31536   9.026  14.844   2.246  0.0254 -0.2685  0.1307
11257W        W31537  16.826   5.947   1.415 -0.1532 -0.0803  0.3308
11258W        W31538   1.697  12.977   0.888 -0.2125 -0.1579 -0.1502
11259W        W31539   3.390  12.795  15.564 -0.1528 -0.1655  0.0512
11260W        W31540   4.040   2.986   4.095 -0.2286 -0.0624 -0.0196
11261W        W31541   2.702   1.696   4.412  0.0825  0.2043 -0.0336
11262W        W31542   9.080  11.680   1.512 -0.0802  0.0319  0.3645
11263W        W31543   2.392   1.017  15.496  0.2948 -0.0999  0.0580
11264W        W31544   6.269   2.022   0.509  0.0318 -0.1966  0.0066
11265W        W31545  11.692   8.710   3.340  0.2055  0.0669  0.2655
11266W        W31546   2.296  17.830   3.812  0.1715 -0.0456  0.1643
11267W        W31547   3.388   2.405   2.069  0.0187  0.0016 -0.5073
11268W        W31548  10.801  14.869  15.341  0.1487  0.0330 -0.2510
11269W        W31549   8.887   5.888   1.215  0.0705  0.0643  0.0329
11270W        W31550   5.426  18.140   0.947 -0.3806  0.1531  0.3526
11271W        W31551   3.475   2.735  11.250  0.0287 -0.0068 -0.1635
11272W        W31552   1.183   8.518  15.518 -0.2643 -0.1005  0.3617
11273W        W31553  14.464   2.150  12.451 -0.1635 -0.0130  0.1495
11274W        W31554  14.140   4.502  15.221 -0.0597  0.0222  0.3010
11275W        W31555  14.297  13.111   4.756  0.1871 -0.5184  0.0577
11276W        W31556   9.540   3.440  15.582  0.0145  0.1011 -0.1370
11277W        W31557  10.048   2.066  13.186 -0.0044  0.2795 -0.0256
11278W        W31558   7.338  16.612   3.541  0.1403 -0.0931  0.1158
11279W        W31559   4.407   9.486   2.367  0.3562 -0.1064  0.1082
11280W        W31560   7.524   4.056  15.582 -0.0977  0.0980  0.2770
11281W        W31561  14.103  13.970  14.261  0.2028  0.3848 -0.2591
11282W        W31562  13.967   2.234  12.647  0.0007  0.2181  0.5165
11283W        W31563  16.454   6.246   4.984  0.1822 -0.1504  0.0586
11284W        W31564  15.678   3.160   2.187 -0.1099 -0.2365 -0.0394
11285W        W31565   8.395  14.512   2.339  0.1068  0.2567 -0.1493
11286W        W31566   5.915   3.713   2.001 -0.0995 -0.1334 -0.1674
11287W        W31567  12.698   2.985  11.074 -0.1602 -0.2074  0.2796
11288W        W31568   9.567  18.049   3.758  0.2665  0.2842 -0.1289
11289W        W31569   8.262  14.852  14.788  0.0382  0.0199  0.0009
11290W        W31570  17.199   1.561   2.767  0.0770  0.0735 -0.0661
11291W        W31571   1.041  11.886  13.048  0.0798  0.0797 -0.2381
11292W        W31572  10.274   2.090   1.183 -0.2065 -0.0085  0.1699
11293W        W31573  12.958   4.696   1.805  0.2468 -0.5021  0.1383
11294W        W31574  14.599   6.519   0.607 -0.0880  0.2142  0.0533
11295W        W31575  10.803  15.673  11.355  0.1284  0.0543  0.1436
11296W        W31576   7.309   7.886  12.263  0.1616  0.2137  0.1831
11297W        W31577   3.625  10.866   0.958  0.0027 -0.0422 -0.0619
11298W        W31578  15.814  12.635  12.778  0.2204  0.2754 -0.0394
11299W        W31579  15.447  14.675  12.067  0.0572 -0.2791 -0.0953
11300W        W31580   9.768  13.666   4.061 -0.0994 -0.0062 -0.0794
11301W        W31581  15.926   0.004  13.939  0.0423  0.0879 -0.0950
11302W        W31582  16.154   2.842  13.218  0.4469  0.0920 -0.1102
11303W        W31583   2.551  12.312  15.628 -0.0632 -0.3330 -0.0089
11304W        W31584  10.651  15.354   2.864  0.2271 -0.3235 -0.1530
11305W        W31585   6.104   9.257  12.594 -0.0515  0.4789  0.1512
11306W        W31586   1.481   0.653   3.792  0.0045  0.2211  0.0417
11307W        W31587   5.926  14.790   1.184 -0.2212  0.2640 -0.0002
11308W        W31588   9.832  17.374  14.755  0.1116  0.3394  0.3443
11309W        W31589   7.064   5.088   1.202  0.3565  0.0718 -0.1869
11310W        W31590   8.245   5.877  13.620  0.1907  0.2775  0.0862
11311W        W31591  13.500   7.729  13.888 -0.1750 -0.3159 -0.3027
11312W        W31592   0.271   9.812   3.670  0.0893 -0.0471 -0.2049
11313W        W31593  12.831   6.716   3.650 -0.2270 -0.0858 -0.1070
11314W        W31594  11.884   4.480  13.800 -0.1993  0.1629 -0.3198
11315W        W31595  11.630  16.204   4.602 -0.0558  0.1796 -0.5520
11316W        W31596  13.218   5.837  15.562  0.1670 -0.0433 -0.0005
11317W        W31597   2.092  11.085   1.007 -0.2109  0.2073  0.0406
11318W        W31598  16.854   4.094   2.526  0.4647 -0.2723  0.0636
11319W        W31599  11.189  18.226   0.915 -0.3823 -0.0040 -0.2552
11320W        W31600   3.137  15.169  11.986 -0.1266  0.0247 -0.1422
11321W        W31601   3.742   7.224   4.664 -0.0281  0.3672  0.0543
11322W        W31602   5.483   4.110  11.825 -0.0421  0.2069 -0.1113
11323W        W31603   8.425   0.445   0.045  0.2018 -0.1918 -0.3367
11324W        W31604  13.101  17.043   2.066  0.0857 -0.4591 -0.0572
11325W        W31605   6.982  11.539   0.648 -0.0221  0.0421  0.0187
11326W        W31606  12.892  16.687   1.159  0.0890  0.1523 -0.2711
11327W        W31607   5.182   7.730   3.661 -0.2115  0.1647  0.0571
11328W        W31608  11.231   0.184   0.326 -0.0227  0.2098 -0.1744
11329W        W31609  10.409   7.929   2.428 -0.1146  0.0402 -0.2120
11330W        W31610   9.113   9.438  14.350  0.3468 -0.3061  0.0389
11331W        W31611  12.543   8.770  15.406 -0.0342 -0.0618 -0.0136
11332W        W31612   6.640  10.748   0.357  0.1276  0.1439 -0.1835
11333W        W31613  14.286  12.052  13.317  0.5591 -0.4435 -0.0251
11334W        W31614   0.870  15.715   0.215  0.1061  0.0806  0.2804
11335W        W31615   4.984  11.919  11.420  0.1563  0.0941  0.3372
11336W        W31616  15.711   4.801   3.851 -0.0361  0.0141 -0.0446
11337W        W31617  12.818   7.420   5.501  0.0691 -0.0268  0.1349
11338W        W31618  13.630   7.177   3.380  0.0544 -0.0718  0.0695
11339W        W31619  16.102   2.449   2.615 -0.1669  0.1867 -0.2008
11340W        W31620  11.267   8.857  13.009 -0.3337  0.1290 -0.0898
11341W        W31621   3.886  12.771  14.978 -0.0477  0.0770  0.2704
11342W        W31622   3.969   3.888   3.692 -0.1528  0.3810 -0.0055
11343W        W31623   6.241   3.757   3.493  0.0139  0.2596 -0.2109
11344W        W31624  13.570   8.460   0.919  0.0490 -0.0962  0.0947
11345W        W31625  14.467  14.380  11.883  0.1378 -0.0002  0.0109
11346W        W31626   3.798   1.008   0.394 -0.1228  0.2763 -0.1705
11347W        W31627  14.094   6.887   1.770  0.1467  0.0509  0.3919
11348W        W31628  13.546   7.985  12.288  0.1260 -0.0608 -0.2149
11349W        W31629   0.238   3.758   3.629 -0.2209 -0.2714 -0.2215
11350W        W31630   2.994  11.161   5.572 -0.0156 -0.2341  0.0915
11351W        W31631  17.567   7.646  13.785 -0.0634 -0.5043  0.0982
11352W        W31632   0.184  11.276   2.809 -0.0736  0.0883 -0.0775
11353W        W31633   0.003   8.175   0.098  0.1469 -0.4407 -0.1016
11354W        W31634  12.044   8.564   4.216  0.1852  0.0153 -0.0646
11355W        W31635   0.597   0.815   2.749  0.0337  0.0641  0.1126
11356W        W31636  15.761   1.953   3.042 -0.1756  0.2036  0.1071
11357W        W31637   2.372  11.143  14.147  0.1207  0.3125 -0.4170
11358W        W31638  11.525   6.110  11.573  0.2148  0.1693 -0.2239
11359W        W31639   1.498  10.847  15.018  0.1553 -0.4260  0.0565
11360W        W31640   0.671  12.644   1.253  0.0971 -0.0762  0.0193
11361W        W31641   6.959  10.505   1.764 -0.0167 -0.1771  0.1786
11362W        W31642   5.895  10.560  11.477  0.0695  0.1701 -0.4239
11363W        W31643   4.081   3.770  11.475 -0.1075  0.0138 -0.1440
11364W        W31644   5.072   2.280  15.631  0.3680 -0.0673 -0.1753
11365W        W31645  10.189  12.972   1.166 -0.0867 -0.0487  0.1099
11366W        W31646   8.069   4.874   2.246  0.0562 -0.0583 -0.2032
11367W        W31647   0.794  12.498  13.780  0.1119  0.1301 -0.1450
11368W        W31648  11.061  17.535   4.588 -0.2777 -0.2375 -0.0064
11369W        W31649  11.968   6.082  12.382  0.2643 -0.0797 -0.1136
11370W        W31650   8.775   1.129   2.516 -0.0757  0.1732 -0.1376
11371W        W31651  15.788   6.218   0.658  0.2052 -0.0710  0.1176
11372W        W31652   4.112   9.897   0.282  0.1153  0.1178  0.2233
11373W        W31653   9.102   8.842  12.764 -0.0575  0.0179  0.2634
11374W        W31654   3.689  15.791   3.573  0.0673 -0.2894 -0.3548
11375W        W31655   1.061   2.567   1.022 -0.0533  0.0678 -0.3344
11376W        W31656  16.182  17.095   4.256 -0.0955  0.0321 -0.3003
11377W        W31657   9.361   6.013  11.640 -0.0927 -0.2009 -0.1911
11378W        W31658   3.279   4.712   3.387  0.0347 -0.1254 -0.0874
11379W        W31659   8.190  14.486  13.422  0.0109 -0.2164  0.1341
11380W        W31660   2.067   3.487  11.596 -0.0930  0.2148  0.1694
11381W        W31661  15.709   2.458  14.195  0.0104 -0.1053  0.3419
11382W        W31662  15.122  14.555  11.645  0.0490  0.2145 -0.2083
11383W        W31663  12.738   7.192  14.780 -0.0014 -0.0705  0.2871
11384W        W31664  13.687  13.177   4.197 -0.0173  0.2562  0.0336
11385W        W31665   6.748  14.501  14.577  0.0500 -0.2999  0.1128
11386W        W31666   5.979   4.790  15.790  0.0984  0.2019 -0.1390
11387W        W31667  16.962  10.577   0.326 -0.1764 -0.0002  0.1341
11388W        W31668   0.707   4.608  14.255 -0.3158 -0.3253  0.0094
11389W        W31669   1.118  14.351  12.875  0.2933 -0.0259  0.0289
11390W        W31670   6.892  17.813   5.203  0.0133  0.3435 -0.1144
11391W        W31671   1.447   3.456   2.346 -0.1422 -0.1409  0.2123
11392W        W31672  10.011  16.087  12.937  0.1189  0.1421 -0.0871
11393W        W31673  16.129   6.648  14.314 -0.1422  0.2273 -0.1727
11394W        W31674   2.211  11.259   4.544  0.2043 -0.3569  0.0032
11395W        W31675   2.964  14.253   3.098 -0.1130 -0.0790 -0.1451
11396W        W31676   8.695   8.212  11.213 -0.0362  0.3477  0.0005
11397W        W31677  13.007   6.113   2.814  0.3094 -0.1382 -0.0113
11398W        W31678  13.350   3.736  12.475 -0.1217  0.0559  0.3388
11399W        W31679  15.248  10.140   0.470 -0.0893  0.1303 -0.1212
11400W        W31680  13.615  18.285  14.217 -0.1967  0.1197 -0.0364
11401W        W31681  10.982   8.739  15.150 -0.2285  0.1105  0.1934
11402W        W31682  14.032   3.430   0.119  0.1471 -0.4213  0.0542
11403W        W31683  16.578   1.089   0.247 -0.0574 -0.2833  0.2333
11404W        W31684   5.888   2.975   3.407 -0.0816  0.1517  0.1087
11405W        W31685   5.962  13.491   2.941  0.1149  0.2234  0.0116
11406W        W31686  17.571  15.200  15.281 -0.1825  0.1516  0.0234
11407W        W31687  12.124   3.930  13.661  0.1402  0.1746 -0.0631
11408W        W31688  13.169  17.519   0.894 -0.0205  0.0475  0.0338
11409W        W31689   1.276   6.430   4.715 -0.1139 -0.0013  0.1243
11410W        W31690  15.286  15.777  14.020 -0.0957  0.0554 -0.0384
11411W        W31691  10.539  10.198  13.465 -0.3109  0.1206  0.2102
11412W        W31692   9.526   8.055  13.434  0.1076 -0.0225 -0.1601
11413W        W31693  12.501   2.772   0.577  0.4377 -0.0139  0.1336
11414W        W31694  18.336   0.834   4.310 -0.0502  0.0971 -0.1144
11415W        W31695  17.550   2.979   3.500  0.3107 -0.1489  0.0067
11416W        W31696  10.308   6.917  12.979 -0.1179  0.0162 -0.1229
11417W        W31697  17.692  18.180   2.789 -0.0279  0.2365  0.2048
11418W        W31698   8.686   5.621   1.651  0.2463  0.0151 -0.1603
11419W        W31699   8.710   0.154  11.450 -0.0358  0.0301  0.1661
11420W        W31700   4.746  17.137  13.554 -0.0569 -0.2751  0.0486
11421W        W31701   6.274   1.021   1.422  0.1400  0.0927 -0.0431
11422W        W31702   0.229  11.747  13.089  0.0853 -0.3574  0.1367
11423W        W31703   7.893   4.872   3.729  0.2029 -0.2176 -0.0620
11424W        W31704   0.310  11.942  14.371 -0.0045  0.1599  0.0901
11425W        W31705  14.757  12.472   4.526  0.2711  0.0646  0.1775
11426W        W31706  14.440  18.265   0.753 -0.1673  0.1355  0.0348
11427W        W31707   5.746   5.901  13.485 -0.2566 -0.2629  0.2608
11428W        W31708   3.682  16.495   1.683  0.3436  0.3579  0.0222
11429W        W31709  12.375   5.981  15.051 -0.1624 -0.0301 -0.0816
11430W        W31710   5.529   5.109  11.139  0.3416  0.0660  0.1355
11431W        W31711   8.789   4.082   3.350 -0.1298 -0.2157 -0.1447
11432W        W31712  13.638  13.821   0.874 -0.0334  0.0709  0.1676
11433W        W31713  11.024   5.397   4.532 -0.2783 -0.1130  0.1513
11434W        W31714  11.529   5.967  15.852 -0.1194  0.1137  0.2677
11435W        W31715   7.430  14.480   0.760 -0.1849  0.1100  0.0142
11436W        W31716   6.058  17.769  12.761 -0.0311 -0.3444  0.1004
11437W        W31717   9.983   1.024  10.167  0.0573 -0.1520  0.2904
11438W        W31718  12.641   7.981  12.254  0.0804 -0.1477  0.0131
11439W        W31719   7.088   0.941  15.058  0.0672 -0.0658  0.0017
11440W        W31720   4.733   4.692   0.402  0.0438  0.3353 -0.0318
11441W        W31721   4.228  11.175  14.327  0.1243 -0.1102 -0.0645
11442W        W31722   2.636   1.632   0.872 -0.3583  0.1188 -0.0130
11443W        W31723   9.599   4.123   2.735 -0.0027 -0.0136  0.0859
11444W        W31724  15.637   1.731  15.922 -0.1090  0.0771  0.2503
11445W        W31725  14.860   8.248   4.650 -0.0869  0.0921  0.2715
11446W        W31726   2.509  13.072  11.650 -0.0997  0.0876 -0.0204
11447W        W31727   7.409  10.820   3.084  0.2565  0.3482  0.1358
11448W        W31728   9.653  12.197  12.622 -0.0029  0.1260 -0.2130
11449W        W31729  11.939   2.936  15.739 -0.0308  0.3846  0.0660
11450W        W31730   5.934   8.394  11.466  0.0307 -0.1620 -0.0615
11451W        W31731  14.587  15.517   1.596  0.1470  0.0672  0.1053
11452W        W31732  12.402  17.531  12.186 -0.2023 -0.0233  0.1496
11453W        W31733   6.370   5.210  12.882  0.0211 -0.1857  0.1587
11454W        W31734  12.048  12.438   3.175 -0.1355 -0.2528 -0.0223
11455W        W31735  11.853   3.815  12.512  0.0365  0.1240 -0.2147
11456W        W31736   3.372  10.006  13.929  0.1129  0.0198 -0.1825
11457W        W31737  14.927  16.444  13.913 -0.3437  0.1413 -0.1175
11458W        W31738  10.181   6.567  15.076 -0.1668 -0.1936  0.2869
11459W        W31739  12.311   0.980   3.084 -0.0858 -0.0059  0.0379
11460W        W31740  11.697   1.848  13.071 -0.0473 -0.1054  0.0262
11461W        W31741   5.026  14.683   3.267  0.1256  0.2300  0.1230
11462W        W31742  16.847  13.981   1.305  0.1817 -0.1800 -0.1089
11463W        W31743   8.441   2.389  14.007  0.0707  0.3254  0.1531
11464W        W31744   9.267   3.444   3.241 -0.1020  0.1702  0.0010
11465W        W31745   6.513   2.110   3.652  0.0084 -0.1887 -0.1046
11466W        W31746  12.365   6.690  12.235  0.0635  0.2311 -0.0312
11467W        W31747   4.547   3.024   4.100 -0.1496  0.1573  0.0033
11468W        W31748  17.495   3.476   2.554  0.0245 -0.0565 -0.0450
11469W        W31749  10.798   8.431   1.856 -0.0993 -0.1264  0.1061
11470W        W31750   3.259   1.496   1.255  0.0644  0.3001 -0.1512
11471W        W31751  14.631  12.662   1.227 -0.1157  0.3028  0.2239
11472W        W31752  10.206  13.661   3.632  0.0594  0.2513  0.1777
11473W        W31753  11.536   5.484  15.553  0.0823  0.1263 -0.1598
11474W        W31754   4.400   6.801   0.471 -0.1320 -0.2804 -0.0600
11475W        W31755  17.815  14.771  12.746  0.1369 -0.2521  0.0866
11476W        W31756  14.450   1.409   1.026 -0.0463 -0.0326  0.0400
11477W        W31757   6.142   6.688  13.780  0.1986  0.0377  0.0172
11478W        W31758  10.466  14.952   1.607 -0.0725 -0.0818  0.1160
11479W        W31759   7.883   3.628  12.110  0.4115  0.1206  0.0148
11480W        W31760  10.215  14.780   3.673 -0.0806  0.1087 -0.0345
11481W        W31761  18.151   0.877   1.513 -0.1580  0.3375  0.2091
11482W        W31762  16.912  17.487   2.969  0.0971 -0.1943  0.1562
11483W        W31763  12.524   8.390   4.221  0.0323 -0.2772 -0.1440
11484W        W31764  10.901   4.196   1.971  0.1540 -0.1489 -0.1137
11485W        W31765  15.403  13.161   0.980  0.1893 -0.1730 -0.2905
11486W        W31766   6.199  11.308  14.186 -0.2193  0.0341 -0.0407
11487W        W31767  17.728  15.038   3.438 -0.1013  0.2662 -0.0721
11488W        W31768  11.274   5.804   4.390 -0.1556 -0.2285 -0.1820
11489W        W31769  10.971   2.611  15.718  0.0435  0.1374  0.2597
11490W        W31770   3.012   7.415   0.394 -0.0725 -0.1621 -0.2934
11491W        W31771  12.488  12.179  13.102  0.3702 -0.0025 -0.1211
11492W        W31772  16.846   8.820   4.790 -0.1281 -0.2197  0.0459
11493W        W31773   5.874  12.769  15.832  0.1403 -0.1270 -0.2039
11494W        W31774   8.956  14.278  15.043  0.0348  0.0903 -0.2216
11495W        W31775   5.752   3.641  11.842  0.2155 -0.0085 -0.0317
11496W        W31776   2.862   4.111   4.361  0.0627  0.0083 -0.1521
11497W        W31777   5.550  11.382   1.643  0.0739  0.1682  0.0710
11498W        W31778  15.989  10.882  15.896  0.4714  0.4721 -0.1773
11499W        W31779  11.312   9.857   3.803  0.0001 -0.0317 -0.0996
11500W        W31780  11.948  10.468  11.511 -0.1579 -0.0666  0.1270
11501W        W31781  10.181   3.185   1.391  0.4311 -0.0239  0.0832
11502W        W31782   5.705   0.107  15.184 -0.1113 -0.4081 -0.3027
11503W        W31783   1.544   9.471   0.857 -0.1996  0.2594  0.1465
11504W        W31784   8.089  14.525   2.852  0.4508 -0.0296 -0.0520
11505W        W31785  14.391  13.410  12.157  0.0741 -0.1845  0.1582
11506W        W31786  15.989  15.821  15.884  0.4214  0.0503 -0.4637
11507W        W31787   4.813  10.370  11.609  0.0633 -0.2486 -0.0055
11508W        W31788   9.824   2.406  13.700 -0.3739  0.0119  0.1815
11509W        W31789   9.425  11.683  12.708 -0.0478 -0.0919 -0.1706
11510W        W31790  13.194  17.047  12.986 -0.4891  0.0524 -0.1215
11511W        W31791  18.137   0.960  13.318 -0.0034  0.1086 -0.1554
11512W        W31792   9.577   8.396  13.828 -0.3434  0.1345  0.3235
11513W        W31793   3.811  15.031  12.477  0.0131  0.0712 -0.0477
11514W        W31794  13.296  10.364  12.403 -0.2619 -0.0023 -0.0043
11515W        W31795   8.908   0.140   3.082  0.0276 -0.0816 -0.1898
11516W        W31796   7.977  17.461   3.762 -0.2221  0.0548 -0.2403
11517W        W31797  13.317   1.387  13.862  0.0625 -0.0429  0.2442
11518W        W31798  11.975  13.862  13.834 -0.0016 -0.1722  0.3293
11519W        W31799   8.344   7.861  12.344  0.0903 -0.0009  0.0058
11520W        W31800  14.691  12.275   3.507 -0.0594  0.0305  0.1012
11521W        W31801  11.183   1.145   1.343 -0.0097  0.2255  0.0728
11522W        W31802  17.965  13.719  12.454  0.4250  0.0311 -0.3659
11523W        W31803   7.463  17.401   0.882  0.4909 -0.1259 -0.1496
11524W        W31804   5.522   5.666   0.164 -0.3495  0.3393 -0.1086
11525W        W31805  17.873   5.874   0.047 -0.2205  0.0566  0.0419
11526W        W31806  12.958  11.366   0.332  0.1212 -0.3256  0.0004
11527W        W31807   4.088   0.368  11.755  0.1340  0.1598 -0.0256
11528W        W31808   7.373   2.024   4.056 -0.0460  0.3366 -0.1934
11529W        W31809  13.792   2.101   3.979  0.0744 -0.1500 -0.1614
11530W        W31810   4.575  15.767  12.808 -0.0755  0.1525 -0.2940
11531W        W31811   0.077   7.784   2.873 -0.2517 -0.4824 -0.0779
11532W        W31812   3.753  13.646   3.236  0.0261 -0.4232  0.2502
11533W        W31813  16.208   9.437  13.012  0.0937 -0.1091  0.1618
11534W        W31814  13.466   7.453  12.654 -0.2636  0.0598  0.1476
11535W        W31815   1.794   7.625   1.810 -0.0247  0.0948 -0.0771
11536W        W31816  13.905  10.437  13.933  0.0870  0.3063 -0.0431
11537W        W31817   6.387   4.379  12.790 -0.0244  0.1883 -0.1206
11538W        W31818   7.342   2.522   3.989  0.2020  0.1942  0.1647
11539W        W31819  11.953  15.769   2.431  0.3802  0.0634  0.0261
11540W        W31820   5.566   7.866  12.118 -0.0041 -0.0664  0.1008
11541W        W31821   4.622  13.519   2.126 -0.0383 -0.0106  0.0201
11542W        W31822   4.941  12.779  14.495  0.1625  0.1350  0.2486
11543W        W31823  16.947  18.006   1.704  0.2329 -0.0604 -0.0735
11544W        W31824  10.772  15.620  12.741 -0.0956  0.0504  0.1529
11545W        W31825   4.778  10.129   3.780 -0.0009  0.0067  0.0053
11546W        W31826  14.552   9.276  11.613  0.1384  0.0925 -0.2156
11547W        W31827   2.273  11.739   4.574  0.1012 -0.0556 -0.0375
11548W        W31828  14.838   2.418   3.272  0.1057  0.1576 -0.1447
11549W        W31829   4.137   7.908  14.033 -0.0064 -0.0951  0.0983
11550W        W31830   7.794   1.991  15.637  0.3240 -0.0551 -0.3270
11551W        W31831  16.494   3.145  12.592 -0.1978  0.0972  0.2700
11552W        W31832   3.015   8.408   4.245  0.2376 -0.0103  0.1160
11553W        W31833   2.104   6.334   0.886 -0.2870  0.1249 -0.1636
11554W        W31834  15.758   5.066  13.090 -0.2709 -0.0321 -0.5064
11555W        W31835   4.006   4.495  15.065 -0.2015  0.0813  0.1032
11556W        W31836  12.354  14.846   1.902 -0.0705 -0.2013  0.1682
11557W        W31837   2.005  14.232   4.108  0.0583  0.1163  0.3769
11558W        W31838  17.006  10.335   2.762 -0.0383  0.0305  0.0519
11559W        W31839   4.856  16.054  11.309 -0.1672  0.2703 -0.0292
11560W        W31840   9.618   4.004  11.168 -0.0540 -0.1200 -0.0058
11561W        W31841  18.273   6.202  11.960 -0.0804 -0.1236  0.1462
11562W        W31842  18.067   1.960  15.857  0.0438 -0.0495  0.1333
11563W        W31843  13.576   4.169  10.827 -0.0685  0.0551  0.1351
11564W        W31844   5.909  11.652  14.519  0.2031 -0.1519 -0.0225
11565W        W31845   9.163  10.962  15.113 -0.1244 -0.0479  0.0862
11566W        W31846  15.165  12.215  15.008  0.4237 -0.0270 -0.0065
11567W        W31847  10.663   3.602  11.347 -0.1279  0.0123 -0.1548
11568W        W31848   4.058   3.680   4.712  0.0163 -0.0328  0.0504
11569W        W31849  14.262  15.515   3.288  0.2121 -0.1505 -0.4404
11570W        W31850   0.736  17.020  11.917  0.1799 -0.0012  0.1983
11571W        W31851  10.321   7.843   0.659 -0.0898 -0.0810 -0.1481
11572W        W31852   7.469   0.869   3.242 -0.2314  0.0977  0.2297
11573W        W31853   5.896  15.374  13.845  0.0327  0.0620  0.1708
11574W        W31854  12.472  16.436   3.619 -0.0404 -0.1684  0.1044
11575W        W31855   0.684   2.924  11.468 -0.0415 -0.2128  0.0485
11576W        W31856  16.236  10.417   0.054  0.2227  0.0636  0.0025
11577W        W31857   9.511  17.856  12.774 -0.2746  0.3108 -0.3037
11578W        W31858  10.898  16.275  15.914  0.1303 -0.1440 -0.1523
11579W        W31859   2.219  12.082  12.524  0.1992  0.2640 -0.1265
11580W        W31860  11.850   5.353   1.389 -0.1831  0.4710  0.0396
11581W        W31861  10.061  16.009  12.434  0.1067 -0.0409  0.3033
11582W        W31862   8.295   3.078  15.215  0.1531 -0.4323  0.2411
11583W        W31863  17.334  11.996  14.955 -0.0643 -0.5285  0.0249
11584W        W31864  10.571   6.787  11.570  0.2341  0.0049 -0.0394
11585W        W31865   8.537  11.436   4.842  0.0500  0.0545 -0.3170
11586W        W31866   6.812  17.182  12.644  0.0269 -0.1299 -0.1279
11587W        W31867   6.781  14.944   2.253  0.3098  0.3243  0.0978
11588W        W31868   8.605  10.173  11.614 -0.1278 -0.3308  0.2503
11589W        W31869  11.343  11.240   5.690  0.0273 -0.1901  0.0518
11590W        W31870  14.478  13.164   0.052  0.2390  0.3234 -0.1672
11591W        W31871  15.461   5.155  13.440  0.1002 -0.1402  0.0134
11592W        W31872  11.682  12.305  13.206 -0.0116  0.3654  0.1898
11593W        W31873   8.967   0.609  11.831 -0.2645 -0.1117  0.0547
11594W        W31874   2.798   8.665   2.857  0.3640 -0.4271  0.0311
11595W        W31875   6.160   0.901  13.248  0.1072  0.0641 -0.1782
11596W        W31876  15.040   2.848   2.469 -0.0777 -0.1327 -0.1003
11597W        W31877   8.658   6.405   3.310  0.1255 -0.3674  0.1540
11598W        W31878  15.585  14.251   2.167 -0.0985 -0.0544 -0.0052
11599W        W31879   5.772  14.573   4.209 -0.2463  0.0754 -0.1453
11600W        W31880  15.726  16.962  11.944 -0.0832 -0.1244 -0.0972
11601W        W31881  16.513   1.212  14.683  0.1605  0.0483 -0.1310
11602W        W31882   4.488  16.291  11.663 -0.1026 -0.0128 -0.1009
11603W        W31883   3.884   1.134  15.113 -0.1896 -0.0934  0.2536
11604W        W31884  15.757  10.728  12.585 -0.0217 -0.0201 -0.3115
11605W        W31885   6.579  10.216   3.957  0.3128  0.3586 -0.1242
11606W        W31886   8.558  14.921  14.232 -0.4292  0.0551  0.1253
11607W        W31887   0.313  12.009   4.740  0.0310 -0.3412 -0.0556
11608W        W31888   2.781  18.149   3.004  0.1501  0.1276  0.0310
11609W        W31889  13.387   4.048  14.265  0.0098  0.1801  0.1037
11610W        W31890   2.489   8.172  11.857  0.0089  0.1742 -0.2524
11611W        W31891   1.286   0.870   3.368  0.0005  0.0187 -0.2353
11612W        W31892   4.771  17.449  10.862 -0.1535 -0.0517 -0.0049
11613W        W31893  13.706  12.595   0.251  0.0503 -0.0043 -0.4417
11614W        W31894  13.188   9.371  14.047  0.0921  0.0394 -0.1054
11615W        W31895   2.493   1.901  15.826  0.1478  0.1635 -0.0819
11616W        W31896   4.960  10.466  15.270  0.3385 -0.0342  0.1649
11617W        W31897   5.630   8.832   1.687 -0.0771  0.1073 -0.3119
11618W        W31898  10.626  14.440   3.879  0.1198 -0.3149  0.1268
11619W        W31899  10.432  10.343   4.046  0.0006  0.1620 -0.2154
11620W        W31900   6.657   1.860  11.501 -0.2812  0.1201  0.0903
11621W        W31901  17.188   6.353   3.925 -0.1646  0.3074  0.3448
11622W        W31902   4.620   2.149   3.280 -0.0774  0.1370  0.1761
11623W        W31903   6.383   5.499  15.520  0.0698  0.2321 -0.1193
11624W        W31904  14.352  17.793  11.707  0.0977 -0.3124 -0.0030
11625W        W31905  16.141  12.261   4.678 -0.0478 -0.0206 -0.1532
11626W        W31906  12.070   9.956  15.114  0.3151 -0.0812  0.1587
11627W        W31907  18.126  13.255  12.103  0.2683 -0.0967  0.0460
11628W        W31908  17.543  18.094  11.558  0.0141  0.1295 -0.2754
11629W        W31909   5.538   8.336   2.799  0.0524  0.1653 -0.1019
11630W        W31910  16.192   4.562  11.476 -0.2168  0.0599 -0.0856
11631W        W31911  10.091   7.412   1.613 -0.1430 -0.1917  0.0955
11632W        W31912  15.832   9.195   3.860 -0.2426  0.2417  0.3428
11633W        W31913   5.834  13.252   3.901  0.3518  0.1545 -0.2946
11634W        W31914   2.836  16.675  11.746 -0.0537 -0.2418 -0.2247
11635W        W31915  11.482  10.620  12.560  0.0186  0.1631  0.0264
11636W        W31916   0.183   5.053   0.679  0.2139 -0.3736 -0.0193
11637W        W31917  12.536  13.293   2.748  0.0620  0.1205 -0.0482
11638W        W31918   9.971   3.843  15.828  0.0994 -0.2010 -0.1664
11639W        W31919  14.616   6.356   5.660  0.4218 -0.0974 -0.0401
11640W        W31920   1.383   7.658   1.561  0.1149 -0.0244 -0.1167
11641W        W31921   3.953  13.509   2.773  0.2550  0.1590 -0.3203
11642W        W31922  11.579  17.741  11.302  0.3556 -0.0279  0.3573
11643W        W31923  14.371  18.103   4.137 -0.1963 -0.2044  0.4079
11644W        W31924   6.362  15.602  12.464 -0.1084  0.0113 -0.1289
11645W        W31925  14.439   2.956  12.395  0.3212  0.2541  0.0942
11646W        W31926  12.414  15.051   1.152  0.1298  0.2740  0.2544
11647W        W31927  16.014   7.538  14.894  0.1418  0.1270  0.1759
11648W        W31928  11.217  12.150   3.584  0.1238  0.0002 -0.0722
11649W        W31929  17.763   8.547   2.360 -0.0921 -0.0496 -0.0302
11650W        W31930  11.821  13.282   4.141  0.2311  0.1825  0.0196
11651W        W31931  17.968   2.056   3.649 -0.0399 -0.1672 -0.1036
11652W        W31932  15.245   3.106  14.911  0.0375 -0.1504  0.2751
11653W        W31933   4.474   9.516  15.289  0.1103 -0.0032 -0.2688
11654W        W31934  17.434  13.818   3.974 -0.0420 -0.0339 -0.2084
11655W        W31935   1.081   1.848  12.894 -0.0442 -0.0275 -0.1743
11656W        W31936   4.145   3.429  11.961 -0.0807 -0.0121 -0.1097
11657W        W31937   0.845  10.956   5.231 -0.0587 -0.2684 -0.3155
11658W        W31938   3.673  15.488   2.613  0.3051  0.1992  0.1221
11659W        W31939   7.157   0.446   3.121  0.0611 -0.1621 -0.0441
11660W        W31940  17.887  11.194  12.683  0.0694  0.0230 -0.0169
11661W        W31941   8.801   6.902   1.131 -0.0744  0.2913  0.3790
11662W        W31942  15.116  13.252  12.831  0.0153  0.3082  0.2338
11663W        W31943   8.184  17.429   2.850  0.0349 -0.4512  0.1249
11664W        W31944  14.998   5.447   4.686  0.1062  0.2483 -0.0471
11665W        W31945   6.118  11.400  12.340  0.0882  0.0312 -0.2338
11666W        W31946   7.841   0.767  14.846 -0.1916 -0.2148  0.0749
11667W        W31947  15.006   4.866  13.535 -0.1552  0.0571  0.1145
11668W        W31948   1.563  10.891  12.457 -0.3535  0.1895 -0.4080
11669W        W31949  14.702   4.426  15.159 -0.0728 -0.2755  0.1964
11670W        W31950  17.610  16.402   2.330  0.0627  0.0936 -0.0450
11671W        W31951   9.673  12.570   1.290 -0.0319 -0.1301 -0.1033
11672W        W31952   9.006   2.989  11.515 -0.0903 -0.2426 -0.3295
11673W        W31953   8.652  10.390  12.129  0.4103 -0.1783  0.0020
11674W        W31954  17.520  15.010   2.172 -0.0269  0.2921  0.0964
11675W        W31955  11.934  15.451  15.429  0.0281 -0.0252  0.1443
11676W        W31956   6.588   1.094   2.887 -0.3208 -0.3043 -0.0224
11677W        W31957  10.810   8.716  15.650  0.1237  0.0420  0.1656
11678W        W31958  17.054  10.609  11.951  0.4231 -0.1595 -0.1254
11679W        W31959  16.264  12.108   3.376  0.0064  0.1391  0.0564
11680W        W31960   8.267  14.749  12.654  0.0135  0.2138  0.2557
11681W        W31961  13.147   0.070  12.884 -0.0294  0.1902  0.0083
11682W        W31962   7.051   0.576  15.399 -0.1364  0.1183 -0.0071
11683W        W31963   3.145   1.628  15.019  0.2404  0.1616  0.1252
11684W        W31964  14.690  17.934   1.724  0.1074 -0.1506  0.0655
11685W        W31965   6.776   9.963  11.950  0.1064  0.2754 -0.0196
11686W        W31966   9.306  14.362   2.475 -0.0897  0.3474 -0.1698
11687W        W31967   0.711   6.814   2.252  0.2331 -0.0654  0.0117
11688W        W31968  13.856   6.287   4.515 -0.1158 -0.2414 -0.0143
11689W        W31969   4.642   8.653   0.789  0.1815 -0.0611  0.2633
11690W        W31970  11.563   8.757   4.430  0.0308 -0.0870  0.0983
11691W        W31971   0.585  13.792   2.938  0.0012  0.1022  0.3458
11692W        W31972   6.030   6.150  12.126 -0.0595  0.1202  0.1348
11693W        W31973  12.497   7.933   3.316  0.0044 -0.1371  0.1841
11694W        W31974   7.336   3.470  10.234 -0.1446 -0.0228 -0.1209
11695W        W31975  12.404   5.748  15.571 -0.0772  0.0138  0.0382
11696W        W31976   6.457  15.808   0.709 -0.0221  0.0832  0.2108
11697W        W31977   5.939  13.343   0.653 -0.0401  0.3361 -0.0521
11698W        W31978  15.483  15.792  14.727 -0.0470 -0.0235  0.1521
11699W        W31979   5.631  11.953   4.943 -0.4828  0.2402  0.0473
11700W        W31980  14.648   4.292   4.290  0.1663  0.1449  0.1774
11701W        W31981  17.920   7.960   3.990  0.2049 -0.1689  0.0916
11702W        W31982  17.640   5.757  15.126 -0.0295 -0.4693  0.0840
11703W        W31983   9.223  12.027   4.022  0.0119  0.2777  0.1336
11704W        W31984   6.579  10.609   2.141  0.3504 -0.3495 -0.0457
11705W        W31985  15.553  14.112   4.413  0.0878 -0.2526  0.2433
11706W        W31986   7.438  16.717  15.247 -0.0511 -0.1419 -0.3366
11707W        W31987  14.889   9.128  12.004  0.0955 -0.0500 -0.0195
11708W        W31988  17.482   8.983  13.610  0.1543  0.0407 -0.1530
11709W        W31989  17.180   9.456  15.443  0.0515  0.0418 -0.1977
11710W        W31990   4.517  10.235  11.216 -0.0675 -0.0962 -0.0395
11711W        W31991  16.641  14.917  13.918 -0.0629  0.1080  0.0062
11712W        W31992  11.906  17.301  12.157 -0.1122 -0.0331 -0.0673
11713W        W31993  14.508  15.695   4.065 -0.1521 -0.5510  0.1815
11714W        W31994   0.021  13.777  11.960  0.0592  0.1652 -0.1372
11715W        W31995   8.267   9.807  11.827  0.2988 -0.2335  0.1813
11716W        W31996  12.938  10.158  12.733 -0.0343  0.0233 -0.1408
11717W        W31997  15.373   3.902   4.557  0.0036 -0.3457  0.4739
11718W        W31998  16.827   6.521   4.751 -0.2176 -0.3023 -0.3432
11719W        W31999  16.642   8.470   0.623  0.0692  0.1430  0.0538
11720W        W32000   0.878   2.007   0.128  0.1775  0.1943 -0.2650
11721W        W32001  13.675   4.848   4.173 -0.0726  0.1380  0.0434
11722W        W32002   7.920   0.195   0.947  0.5676 -0.1325 -0.1176
11723W        W32003   1.925   5.680  10.572 -0.1369 -0.0831 -0.1481
11724W        W32004  13.456  16.515   0.024  0.3037  0.3305  0.0203
11725W        W32005  17.708   7.566  11.957  0.1652 -0.1675 -0.3469
11726W        W32006   4.067   1.789   0.885  0.3136 -0.1502  0.0050
11727W        W32007   0.803   7.702   1.823 -0.0167  0.3048 -0.1479
11728W        W32008  12.648  13.095  11.492  0.0905 -0.3124  0.0004
11729W        W32009   0.196   8.424   3.330 -0.0960 -0.0712  0.0580
11730W        W32010   1.559   2.222   1.258  0.2146 -0.0116 -0.0824
11731W        W32011   2.846   4.952  15.835 -0.0626 -0.0302  0.0555
11732W        W32012  15.081   1.734  15.345  0.2396 -0.0936 -0.1240
11733W        W32013   8.426   0.711  13.127 -0.1535 -0.1058 -0.1728
11734W        W32014  18.027  12.140  11.867  0.1581  0.0850 -0.0864
11735W        W32015  17.700  13.932   2.054 -0.0405 -0.0752 -0.1888
11736W        W32016  14.339   8.641   3.476 -0.0321 -0.0742 -0.0586
11737W        W32017   6.765  16.981   0.608  0.1597  0.1505  0.1133
11738W        W32018  13.466   3.687   0.865 -0.1382 -0.2167  0.1155
11739W        W32019  12.118  10.612   6.172  0.1733  0.1113  0.1333
11740W        W32020  17.983   5.584   1.870 -0.1302 -0.0282 -0.1388
11741W        W32021  18.295  10.208   3.640 -0.0585 -0.3681 -0.2419
11742W        W32022  15.478  15.085   4.215  0.0205  0.2991  0.0388
11743W        W32023   0.466   6.785   1.787 -0.0405 -0.0223 -0.0632
11744W        W32024   4.332   8.609   0.008  0.3740 -0.1288 -0.0538
11745W        W32025  18.075   4.809   0.654  0.2226 -0.1005 -0.0159
11746W        W32026  13.981   6.076   1.758 -0.4281  0.3237 -0.1212
11747W        W32027  10.874   8.483   0.662  0.3454  0.0213 -0.1625
11748W        W32028   7.340  11.430   4.014  0.0706 -0.0182  0.3734
11749W        W32029  12.164   6.430  15.858  0.0924 -0.3777 -0.2004
11750W        W32030  17.087   5.138  12.078  0.2558 -0.4476 -0.1791
11751W        W32031   8.476   4.997   1.065  0.0290  0.1942  0.0213
11752W        W32032   7.716  10.684  15.455  0.0863 -0.0490  0.0484
11753W        W32033   9.743  10.782  14.056  0.0890  0.1660 -0.0622
11754W        W32034   4.133  18.004  11.758 -0.1385  0.0154  0.0551
11755W        W32035  10.193   4.006  14.784  0.0472 -0.1317 -0.2063
11756W        W32036  16.297   1.651   0.278 -0.1770  0.0602 -0.0819
11757W        W32037  14.406   4.324   2.449 -0.1547 -0.0060  0.0957
11758W        W32038  18.321  12.704   2.369  0.0874 -0.0572 -0.1063
11759W        W32039  12.209  12.110   0.119  0.0671 -0.1006  0.1675
11760W        W32040  12.127   5.206   3.450  0.1156  0.3230  0.3304
11761W        W32041  14.672  14.368   3.891  0.1963 -0.1790 -0.0464
11762W        W32042   4.108   2.391  15.836 -0.0497  0.1729  0.1435
11763W        W32043   1.337  16.382  11.391  0.1845 -0.2290 -0.3739
11764W        W32044  11.702   2.819  11.812 -0.0039 -0.0763 -0.3019
11765W        W32045  16.671  13.175  14.618  0.1606 -0.0575 -0.3188
11766W        W32046  17.143   1.819  11.976 -0.0112 -0.2259  0.2532
11767W        W32047   9.907  13.742  13.952  0.0775  0.3147 -0.2014
11768W        W32048  11.603  14.381  14.794  0.0227 -0.2836  0.0052
11769W        W32049  15.492  17.344   5.337  0.0984 -0.2858  0.0093
11770W        W32050   8.148  17.666  11.676  0.1227 -0.1229 -0.2212
11771W        W32051  13.305   2.763   1.026  0.0757  0.1181  0.0983
11772W        W32052   4.391  12.524   1.192 -0.0876 -0.0355  0.1949
11773W        W32053  17.351   3.286   3.068 -0.1876  0.1350  0.0357
11774W        W32054  15.973   8.373  12.105 -0.0995  0.1036 -0.1278
11775W        W32055  13.390  10.364  15.531  0.4419  0.0081  0.0040
11776W        W32056   3.509   7.110   2.327  0.0770 -0.1120 -0.0962
11777W        W32057   5.830   0.384   0.955  0.1299  0.1750 -0.1220
11778W        W32058   1.196   9.741   3.344  0.1774  0.0232 -0.0790
11779W        W32059   5.545   6.611   2.319 -0.1099 -0.0467 -0.2046
11780W        W32060  13.262   9.563   1.222 -0.1000 -0.2507 -0.1644
11781W        W32061   8.714  11.676   0.663 -0.0562  0.0280 -0.3781
11782W        W32062  11.832  16.353   1.462 -0.1183 -0.1672 -0.0247
11783W        W32063   0.872  11.197   2.077  0.2001  0.1505 -0.3398
11784W        W32064   5.962   4.600  15.318 -0.2234  0.2034  0.1199
11785W        W32065   0.667   4.737  13.710  0.0555 -0.0665 -0.0251
11786W        W32066   1.406   9.502   1.602 -0.2802 -0.1229  0.1174
11787W        W32067  12.798   6.136  14.866  0.1099 -0.0743  0.0408
11788W        W32068  11.659   6.429   3.883 -0.0704  0.0545  0.0440
11789W        W32069   4.499   7.077   3.534  0.1197  0.3742  0.5057
11790W        W32070   2.678  17.320  12.112  0.1543  0.5528  0.1907
11791W        W32071  10.560  15.085   0.351 -0.0898  0.1836 -0.1076
11792W        W32072   2.581  12.658  14.387 -0.2582 -0.1970 -0.0118
11793W        W32073   9.600   5.856  13.807  0.4251  0.0231  0.0273
11794W        W32074  15.062   6.712   0.981  0.0991 -0.0535 -0.1994
11795W        W32075   1.715  11.422   4.633  0.0312  0.0027  0.0835
11796W        W32076   4.744  13.695  12.746 -0.1525  0.5103  0.2987
11797W        W32077   2.814   4.342   2.103  0.2338  0.1021 -0.1211
11798W        W32078   3.299  15.336  13.060  0.0986  0.1302 -0.2049
11799W        W32079   0.546  17.095  15.702 -0.0508 -0.0262 -0.0714
11800W        W32080  15.518  14.192  12.280 -0.2234 -0.1585 -0.0129
11801W        W32081   4.022   8.176   0.027  0.1161  0.2104  0.1644
11802W        W32082  17.617  14.046  13.724 -0.1193  0.0301 -0.2681
11803W        W32083  16.484   4.552  15.606 -0.1068 -0.3726 -0.0241
11804W        W32084  15.133   7.646  13.051 -0.0392 -0.2584  0.1770
11805W        W32085   6.783   4.676  13.494  0.2398 -0.1246  0.2539
11806W        W32086  10.690   0.891  15.169  0.2509  0.0542  0.3096
11807W        W32087   2.387   3.301   1.312  0.0337 -0.0252 -0.1949
11808W        W32088   7.953   9.243  13.347 -0.1440 -0.2406 -0.1329
11809W        W32089   9.868   3.295  15.268  0.1017  0.0190 -0.2089
11810W        W32090   3.561   0.487   1.116  0.1533  0.1444  0.1143
11811W        W32091  13.855   8.507  13.852 -0.0990 -0.1770 -0.0661
11812W        W32092  17.516   7.899   1.474 -0.2179  0.0009 -0.0925
11813W        W32093  13.925   4.845  12.641 -0.1761  0.0770 -0.0094
11814W        W32094  10.908  15.534  13.936  0.0666  0.0444 -0.2929
11815W        W32095   4.051   7.920  14.616  0.0678 -0.2153  0.4872
11816W        W32096   3.751   6.267  15.078  0.1432 -0.1034 -0.0527
11817W        W32097   5.921   4.457  13.542 -0.0702  0.1439  0.0458
11818W        W32098   3.015   8.936   4.062 -0.1738  0.1770  0.0262
11819W        W32099  17.664   6.256  12.058 -0.3126  0.3246 -0.3427
11820W        W32100  11.467   5.010   2.742  0.2521 -0.0704  0.0036
11821W        W32101   4.800   6.382  14.211 -0.0273 -0.0794 -0.0422
11822W        W32102  11.545   2.157   0.546 -0.1424 -0.1265 -0.0188
11823W        W32103   5.599   6.761  15.213 -0.0407 -0.0836 -0.3267
11824W        W32104  17.856   2.772  12.267  0.1828 -0.0764  0.0673
11825W        W32105   4.211   6.594  13.507  0.3067 -0.3553  0.0912
11826W        W32106  13.428   2.393   0.690 -0.1776 -0.4365 -0.3678
11827W        W32107  14.192   5.190   1.386  0.0274  0.2083  0.0642
11828W        W32108  14.876   1.310   1.459  0.1228 -0.2325  0.2059
11829W        W32109  15.171  17.045   4.320 -0.0597  0.0677 -0.2389
11830W        W32110   4.411   8.159  11.178 -0.2682  0.0742  0.1378
11831W        W32111  17.376  12.232  11.641  0.1285  0.0564  0.4145
11832W        W32112   1.492  14.367  13.193 -0.0041  0.0796 -0.0050
11833W        W32113  17.191  14.953   3.326  0.1181 -0.0152  0.3460
11834W        W32114  11.916   0.436   2.596 -0.0574  0.0693 -0.1632
11835W        W32115  10.562   5.153   4.040 -0.2866 -0.0426  0.1016
11836W        W32116   0.656  12.159  15.494 -0.1905 -0.1674  0.3062
11837W        W32117   9.835   1.393   1.551 -0.1480  0.0584 -0.0466
11838W        W32118   3.398   9.126  13.778  0.0372  0.2124  0.2653
11839W        W32119  15.939   0.687   1.328 -0.1874  0.0822 -0.1458
11840W        W32120  17.296  12.439  14.610 -0.0350  0.0273 -0.0327
11841W        W32121  12.121  15.977  12.597 -0.0036  0.0532  0.3330
11842W        W32122   8.785   6.847   2.399  0.1213  0.2310  0.0667
11843W        W32123  14.974  15.992   1.665 -0.0667  0.1161  0.3233
11844W        W32124  18.303   4.351   0.648  0.1027 -0.0026  0.2060
11845W        W32125  10.259  12.085   4.752  0.0011  0.0262 -0.1590
11846W        W32126   5.445  16.499  12.149  0.2069  0.0261 -0.2050
11847W        W32127  11.600  17.271   2.446 -0.1318 -0.2119 -0.1988
11848W        W32128   1.958  14.459  13.752  0.0141 -0.3362 -0.0700
11849W        W32129   9.284   9.548   0.044 -0.1185  0.1000  0.0885
11850W        W32130   9.768  13.924   4.560 -0.3862  0.4143 -0.2658
11851W        W32131  12.126  12.478  13.339 -0.5610 -0.1210  0.0968
11852W        W32132   8.670  14.040  14.107  0.1096  0.1864  0.0198
11853W        W32133  10.393  16.610  13.690 -0.2891 -0.0718 -0.0719
11854W        W32134  13.198  17.399   0.300  0.1457  0.1567 -0.1143
11855W        W32135  11.535   9.600   4.727  0.2220  0.3945  0.1852
11856W        W32136  16.216   4.705  12.051 -0.0540  0.2458 -0.0643
11857W        W32137   0.944   1.377  12.469 -0.0279  0.0968 -0.3558
11858W        W32138   9.015   5.258  15.483 -0.2037  0.3446  0.1020
11859W        W32139   1.882   9.267   1.695 -0.2985 -0.0538  0.1052
11860W        W32140   8.520   9.248   3.443  0.1762  0.2771  0.1342
11861W        W32141  13.731  15.273   3.608  0.0424 -0.1999 -0.2163
11862W        W32142  10.134   6.214   1.009 -0.2999 -0.3632 -0.0843
11863W        W32143   2.945   9.497   1.237 -0.1326 -0.2397  0.0938
11864W        W32144   1.759   9.417  11.411  0.0068 -0.1671 -0.0620
11865W        W32145   8.815   4.220  11.180 -0.0810 -0.0030  0.3917
11866W        W32146  15.136  17.535  14.735 -0.1508 -0.2920  0.1252
11867W        W32147  13.522   8.204   4.876  0.1819 -0.2132  0.1015
11868W        W32148   4.664  15.342   1.229  0.2152  0.5408 -0.0044
11869W        W32149   8.877   2.032  11.874  0.1341 -0.0176  0.1589
11870W        W32150   0.044   0.064   2.143  0.0165 -0.1692  0.0418
11871W        W32151  15.823  12.294  12.266 -0.1666 -0.1842 -0.0443
11872W        W32152   8.882   1.040  13.641 -0.2248 -0.0993 -0.0431
11873W        W32153   9.013   1.795   4.732  0.1207 -0.1102  0.4610
11874W        W32154   1.315   0.139  11.946  0.1816  0.0932  0.0918
11875W        W32155  14.093  12.893   1.170 -0.1302  0.0556 -0.1639
11876W        W32156  10.370  16.484  15.669 -0.0148  0.1895  0.0159
11877W        W32157  14.595  16.352   4.062  0.0384 -0.0321  0.0979
11878W        W32158  16.686  10.197   0.176 -0.0624  0.0331 -0.1927
11879W        W32159   5.972  10.078   2.614 -0.4003  0.0905  0.3152
11880W        W32160   3.743   9.327  10.805  0.1166  0.0048  0.2436
11881W        W32161  17.757  17.773   3.742 -0.0257  0.2541  0.3027
11882W        W32162  14.849   8.015  12.925 -0.1572 -0.1529 -0.2049
11883W        W32163  14.203   8.139   1.411 -0.0113  0.3319  0.1904
11884W        W32164  12.961   9.314  13.540 -0.2737  0.1825 -0.3454
11885W        W32165  15.985   8.608   2.556  0.0010 -0.3013 -0.0685
11886W        W32166   6.228   0.379  11.785 -0.2087  0.0648 -0.1920
11887W        W32167   3.081   8.971   2.542 -0.1420 -0.1421 -0.0545
11888W        W32168  15.501   5.274  12.130 -0.0928  0.0644  0.1020
11889W        W32169   9.430   9.047  13.063 -0.1398  0.0884 -0.0937
11890W        W32170  16.033   4.199  12.174  0.0166  0.0593 -0.3301
11891W        W32171   8.814  12.193   2.247  0.0375 -0.1268  0.1977
11892W        W32172   1.802   1.336  12.826 -0.3677  0.1294  0.1004
11893W        W32173   8.000   0.798   3.173  0.2350 -0.1360  0.1512
11894W        W32174   6.629   5.884  14.294 -0.3677  0.0627  0.1626
11895W        W32175   4.604   5.584  12.265  0.3161 -0.2519  0.0882
11896W        W32176  15.685   3.311   3.036 -0.0438  0.1934  0.1838
11897W        W32177   6.662   8.060   2.216 -0.1061 -0.0215 -0.1509
11898W        W32178   9.312  15.002  11.790  0.0944  0.0896  0.2972
11899W        W32179   1.618   3.789  12.961  0.0468 -0.1914  0.2141
11900W        W32180   2.251   8.329  12.895 -0.0502 -0.2215  0.0395
11901W        W32181  16.847  17.690  15.095  0.0175  0.2553 -0.1630
11902W        W32182  16.960  15.825  13.307 -0.0969 -0.0100  0.1153
11903W        W32183   0.820   0.208  14.842 -0.0420  0.0240  0.0802
11904W        W32184   5.939   1.753   2.851  0.1037  0.1102  0.1225
11905W        W32185   9.907   9.606   2.599  0.1244 -0.1327  0.0871
11906W        W32186  14.302   6.909   0.637  0.0944  0.1227  0.0610
11907W        W32187  16.853   5.624   4.344 -0.1871  0.2164 -0.2184
11908W        W32188   2.859   1.389  15.357  0.1680 -0.0738 -0.1485
11909W        W32189   4.960  16.154  13.545  0.3019 -0.0232 -0.1546
11910W        W32190   9.881   3.525   0.263 -0.2511  0.0556 -0.0194
11911W        W32191  16.215  10.000   3.632  0.1842 -0.2650  0.0977
11912W        W32192  13.111   8.808  13.171  0.0553  0.1470 -0.1055
11913W        W32193   1.164  12.813   2.870 -0.1911  0.0550 -0.3991
11914W        W32194  13.660  17.583  13.226  0.0006 -0.2587  0.1320
11915W        W32195  12.196   9.675  15.635 -0.0534 -0.2650  0.0504
11916W        W32196   0.528   3.327  13.753  0.0695 -0.2152 -0.0915
11917W        W32197   1.351  16.227   4.595  0.1439  0.3451  0.3968
11918W        W32198  17.646   4.940  13.319 -0.2288 -0.0938  0.1022
11919W        W32199  14.460   1.387   4.150 -0.0415  0.2999  0.2501
11920W        W32200  17.124  11.612   3.825 -0.2060  0.0552 -0.1524
11921W        W32201   3.296   2.422   1.545 -0.1508  0.0048 -0.1231
11922W        W32202  17.313   3.229   0.353 -0.3162 -0.0488 -0.2166
11923W        W32203  10.054   7.944   1.656  0.1007  0.0174  0.1101
11924W        W32204   1.049   6.323   2.923 -0.0974  0.0142  0.0035
11925W        W32205   2.181  14.578   0.116  0.0582 -0.0786 -0.2141
11926W        W32206   3.511   0.983  12.290  0.1642  0.1027 -0.0916
11927W        W32207  17.485  10.666   1.306 -0.1073 -0.1086  0.0332
11928W        W32208  10.217   2.446  14.326  0.0773 -0.0122 -0.0916
11929W        W32209   7.375   9.590   3.871  0.1115 -0.3519  0.2266
11930W        W32210  13.307   5.249   4.291 -0.0402 -0.0204 -0.1430
11931W        W32211   3.832  15.088   3.566  0.2692  0.0998  0.2539
11932W        W32212   1.809   6.373   3.465 -0.0079 -0.0607  0.1741
11933W        W32213   5.535  15.748  13.967 -0.2593  0.1045  0.2872
11934W        W32214  16.537  15.043   2.176 -0.1981  0.0638  0.1160
11935W        W32215   9.029  16.109   0.401 -0.0863  0.0102  0.1476
11936W        W32216   9.975   2.393  14.776 -0.0357  0.2052  0.0764
11937W        W32217  12.614  17.189   2.386  0.1907 -0.0518 -0.2063
11938W        W32218  11.311   9.632   5.331  0.0175 -0.0449 -0.2337
11939W        W32219   6.371   9.634   0.791 -0.1046 -0.0511 -0.0523
11940W        W32220  15.329   5.989  12.088  0.3321 -0.2753  0.0643
11941W        W32221   2.667  10.069   4.459  0.2296  0.1896  0.1078
11942W        W32222  14.451  14.806   4.039  0.1094  0.0703 -0.0060
11943W        W32223  17.628  16.548  15.902 -0.3264 -0.3283  0.2236
11944W        W32224  17.255   6.805   0.388  0.1869  0.1935 -0.1091
11945W        W32225   1.351   7.899  12.853 -0.1810 -0.1676 -0.1126
11946W        W32226   7.250   2.541  13.837 -0.0757  0.1337  0.1747
11947W        W32227   6.801  10.433   0.794 -0.0444  0.1198 -0.0940
11948W        W32228  17.254  10.772   0.853 -0.1017  0.1677  0.0154
11949W        W32229   4.539  14.149  12.901 -0.1773 -0.0474  0.0857
11950W        W32230   9.115   9.553   2.995  0.0167  0.3706 -0.1064
11951W        W32231  15.650  13.260   1.465 -0.0056 -0.1500  0.0923
11952W        W32232   9.713   8.430   1.214 -0.1670  0.0134  0.2129
11953W        W32233   1.747   0.033  15.148  0.3742  0.4813  0.0155
11954W        W32234   2.944   8.184   0.013 -0.0322  0.2056 -0.0628
11955W        W32235   2.174   5.443   0.672 -0.2099 -0.3241 -0.0237
11956W        W32236  11.301  15.290   0.057 -0.3309 -0.0866 -0.1721
11957W        W32237   7.373   3.341  13.933  0.2452  0.3060 -0.0227
11958W        W32238   6.292   4.403   1.469  0.1698 -0.3751  0.1771
11959W        W32239  11.085   6.463   2.559 -0.0053  0.1531 -0.2096
11960W        W32240   2.151  11.940   3.631  0.1753 -0.0697 -0.0875
11961W        W32241   1.444  17.006  15.435  0.3295  0.0357 -0.1993
11962W        W32242   5.296  17.334   4.248  0.0428 -0.1118 -0.1140
11963W        W32243   3.532  16.447  12.807 -0.1183  0.2523  0.0974
11964W        W32244   4.569   5.894   3.067  0.2465  0.2610 -0.1386
11965W        W32245  18.129   0.803  12.789  0.2445 -0.1545  0.2168
11966W        W32246   6.041   2.463  10.480  0.2301  0.0153  0.1561
11967W        W32247  18.200  14.126  15.695 -0.0821  0.3404  0.0787
11968W        W32248   6.288  15.319  11.090  0.1186 -0.2078  0.1493
11969W        W32249  16.122  15.500  15.079  0.1984 -0.0441  0.0425
11970W        W32250   6.550   5.252   3.984  0.3008 -0.1885  0.0613
11971W        W32251  12.535   1.773  12.167 -0.1373  0.0009 -0.2297
11972W        W32252  18.012   0.886   3.390  0.4221 -0.2367  0.1765
11973W        W32253  17.103  10.141  12.116  0.2676 -0.1639  0.1480
11974W        W32254   5.070  15.915  13.998 -0.0564  0.1786 -0.1452
11975W        W32255   2.465   8.713  12.359  0.1495 -0.1597 -0.2483
11976W        W32256   7.834   2.476  11.116 -0.0784 -0.2422  0.0582
11977W        W32257  11.402  11.205  11.645  0.0472 -0.1468  0.3447
11978W        W32258  16.426   1.356   1.591 -0.0516  0.0655 -0.1248
11979W        W32259   1.784  16.154   1.366 -0.2017  0.0704  0.0249
11980W        W32260  12.745   0.792   2.883  0.1748  0.0616 -0.0070
11981W        W32261   2.436  11.421   1.292 -0.0855  0.1506  0.1501
11982W        W32262  15.465   2.753  12.040  0.1429 -0.2178 -0.1024
11983W        W32263  16.210  10.873   1.723 -0.1798  0.0119  0.0568
11984W        W32264  16.894  10.161   0.719 -0.2942  0.0097 -0.3319
11985W        W32265  14.849   8.555   0.241  0.0528  0.2055 -0.0523
11986W        W32266   5.857  16.144  14.761  0.3027  0.0930 -0.0241
11987W        W32267  10.732   9.168   4.312 -0.1511 -0.1570  0.0136
11988W        W32268   1.631   4.677  14.107  0.0862  0.3075  0.0843
11989W        W32269   6.620  16.708  15.720  0.1911 -0.0030 -0.2709
11990W        W32270   6.820   8.140  12.626  0.1124 -0.3328  0.0274
11991W        W32271   7.637   4.114  12.084 -0.3508  0.1397  0.4774
11992W        W32272   2.916   2.521  13.331  0.0878  0.2528 -0.1429
11993W        W32273  10.986   3.732  12.646 -0.3774 -0.0184 -0.0583
11994W        W32274  17.063   5.246  11.423 -0.0503  0.0411  0.1596
11995W        W32275  16.902   1.844   0.925 -0.1915 -0.1007  0.1091
11996W        W32276   6.559  10.975  15.019 -0.1817 -0.2121  0.1893
11997W        W32277  13.524   0.864   1.824  0.0030 -0.1582 -0.1252
11998W        W32278  15.060  12.647   2.242 -0.1903  0.2444  0.1443
11999W        W32279  16.376  12.758  14.583  0.1167 -0.0340 -0.2083
12000W        W32280   0.602   0.769  11.977 -0.0892  0.0421 -0.0911
12001W        W32281  11.948  11.013   3.917 -0.0926  0.1853  0.2201
12002W        W32282   8.883  17.180  12.420  0.1483  0.5824 -0.0797
12003W        W32283  11.508   6.748   0.614 -0.1506 -0.0300  0.1611
12004W        W32284   9.497  17.440   0.015 -0.0241  0.2179 -0.3313
12005W        W32285  16.161  16.078  12.044  0.0273  0.2032 -0.1807
12006W        W32286   0.118  10.690   0.975  0.2247  0.0312 -0.0846
12007W        W32287   7.022  17.442   4.256 -0.1422  0.1146 -0.4585
12008W        W32288   4.457  10.075  12.621  0.0668 -0.2062 -0.2237
12009W        W32289  16.379   6.731   4.025 -0.2844 -0.0446  0.1189
12010W        W32290   1.434   3.160   0.077 -0.1452  0.2531  0.1780
12011W        W32291   0.870   3.804  15.858  0.2060  0.0588 -0.1105
12012W        W32292   0.810  11.474  15.094  0.0780  0.0867 -0.1867
12013W        W32293   5.345   7.509  13.874 -0.0451 -0.0403 -0.0170
12014W        W32294  14.857  16.799  13.429  0.2015 -0.0587  0.1817
12015W        W32295   3.106  18.060   0.134  0.2264 -0.1712 -0.0312
12016W        W32296  14.208  18.093   1.449  0.1056  0.1389 -0.1060
12017W        W32297   7.575   9.354   0.304  0.1759  0.0124  0.1069
12018W        W32298   2.177   1.535   2.365 -0.0742  0.0141 -0.0403
12019W        W32299  16.613   4.392   3.059 -0.2289  0.2526  0.1206
12020W        W32300   4.784  12.182   1.325  0.0623  0.0267  0.0802
12021W        W32301  17.414  17.958   2.388 -0.1306 -0.0579 -0.3902
12022W        W32302  14.551  17.563  13.122  0.0602  0.0981 -0.0117
12023W        W32303   5.147  12.191   4.581 -0.2013 -0.0574  0.0806
12024W        W32304  11.043   7.086   3.662  0.1168 -0.1285 -0.0643
12025W        W32305   3.904  11.909   3.087  0.0439  0.0441  0.0549
12026W        W32306  12.213   6.283   2.355  0.2433 -0.2597 -0.2086
12027W        W32307   7.850  11.783   3.194  0.1314 -0.2091 -0.1055
12028W        W32308  10.258   7.837  14.083 -0.3516 -0.0236 -0.1378
12029W        W32309  15.858   8.692   3.703 -0.0369  0.2614  0.2176
12030W        W32310   6.370  14.728  15.683 -0.1074  0.2963  0.2277
12031W        W32311   0.874   1.443  10.170 -0.0501 -0.2219  0.0902
12032W        W32312   6.577   6.417   1.539 -0.0452  0.1135  0.0049
12033W        W32313   4.097   8.177   1.428  0.1990  0.1133  0.0015
12034W        W32314   4.590  15.164   0.708  0.3009 -0.0188 -0.0059
12035W        W32315   2.246  17.508  11.713  0.3034 -0.1564 -0.0010
12036W        W32316  10.046   3.427  11.535 -0.2218 -0.1490 -0.0594
12037W        W32317   4.662   8.219   0.641  0.1836 -0.0958 -0.0534
12038W        W32318   7.781   6.342   2.695 -0.1257  0.0374  0.1696
12039W        W32319   9.874  11.782   3.725  0.0893  0.0333  0.0416
12040W        W32320   1.709  15.826   3.422 -0.0554  0.0957  0.1107
12041W        W32321  16.674   6.072   4.586 -0.0356  0.0066  0.2934
12042W        W32322  14.748   8.239   3.113 -0.1141  0.2419  0.3231
12043W        W32323   7.709  16.429   2.649  0.0181 -0.0174  0.0721
12044W        W32324   1.672  17.929   4.452  0.1161  0.0480 -0.0803
12045W        W32325  13.496   9.845   3.495  0.2949  0.0801 -0.4356
12046W        W32326   0.374   9.075  12.946  0.0267  0.2628  0.2043
12047W        W32327  11.721  18.110   1.619  0.4070  0.0330  0.1201
12048W        W32328  11.204  14.968   3.547  0.1653 -0.2012 -0.3361
12049W        W32329  11.340   5.464  10.606 -0.0309 -0.0405 -0.0506
12050W        W32330  18.249   9.665  15.033  0.2144 -0.0144  0.2144
12051W        W32331   7.639  15.337  13.275 -0.0562 -0.0082  0.3330
12052W        W32332  14.396   6.432  13.040  0.1859 -0.1759 -0.1514
12053W        W32333  11.294   0.322  13.542  0.3642 -0.3831  0.4080
12054W        W32334   7.722   8.368  14.820 -0.0547 -0.1060  0.3246
12055W        W32335  15.218   6.108  13.567 -0.1991 -0.1748 -0.0935
12056W        W32336   8.791   3.932   2.841 -0.2342 -0.0606 -0.1456
12057W        W32337   8.916  16.341  15.476  0.0825 -0.3237  0.0722
12058W        W32338   8.306  17.101   1.092  0.3428 -0.0462 -0.0405
12059W        W32339   9.117  14.182  12.888 -0.0732 -0.1273  0.1621
12060W        W32340   1.082   9.633   2.851  0.1470  0.1661 -0.0975
12061W        W32341   7.894   0.790  12.617  0.2652 -0.0860  0.0526
12062W        W32342   1.857   2.552   0.210  0.0893  0.3647  0.0476
12063W        W32343  10.376   8.617   3.754  0.1984  0.0046  0.0440
12064W        W32344  13.515   6.078   1.436  0.0773 -0.1505 -0.1860
12065W        W32345   5.818   9.021   0.070 -0.1566 -0.2230 -0.0741
12066W        W32346   0.621   5.783   0.945  0.1184  0.2728  0.0498
12067W        W32347   9.074  17.538  12.989  0.2883 -0.2652  0.1034
12068W        W32348  11.732   2.281  11.739 -0.2960 -0.1830 -0.1307
12069W        W32349   1.071   2.237   0.630 -0.1739  0.0944 -0.0483
12070W        W32350  13.025   2.698   3.269  0.0315  0.0685 -0.2062
12071W        W32351   8.029  13.245   4.046 -0.2252  0.2443  0.0119
12072W        W32352  11.505  14.372   1.374 -0.0039 -0.1961  0.1706
12073W        W32353   9.862   1.989  12.728  0.3022  0.0292 -0.0883
12074W        W32354  16.184   6.865   2.165 -0.2613 -0.1382 -0.1680
12075W        W32355  14.834   7.589  15.159 -0.0930  0.2696 -0.0642
12076W        W32356   5.460   6.799   3.657 -0.0524  0.0999  0.0232
12077W        W32357   6.398  13.352  14.667 -0.4287 -0.0929  0.0173
12078W        W32358   1.571   5.341   1.559 -0.0346 -0.1290 -0.0060
12079W        W32359   2.850   2.847  13.715  0.2145  0.1245  0.0063
12080W        W32360  16.706   2.372  14.758  0.1838  0.2928  0.0611
12081W        W32361  17.880  17.558  12.361 -0.0854  0.4022 -0.0091
12082W        W32362   7.858   8.322  13.003  0.0322 -0.0481  0.0885
12083W        W32363  17.941   8.294  15.058 -0.0081  0.0151  0.0538
12084W        W32364  15.152   8.602   1.220  0.1521 -0.2072 -0.0967
12085W        W32365  12.453  11.807   1.544  0.1628  0.1129 -0.2112
12086W        W32366   5.521   1.606  15.517 -0.0213 -0.2088 -0.2794
12087W        W32367   5.002  17.976  15.599  0.2189  0.3270 -0.1217
12088W        W32368  17.709   3.834  14.234 -0.0373  0.0075  0.0485
12089W        W32369  10.625   7.862  15.242 -0.2530  0.2938 -0.0258
12090W        W32370   1.553   6.641  13.895 -0.1181 -0.1540 -0.2243
12091W        W32371  14.181  10.473  13.437  0.1846  0.0031  0.0878
12092W        W32372  16.857  15.463   4.217 -0.1792  0.1178  0.0621
12093W        W32373   8.985   7.391  14.438  0.0150 -0.0766  0.0636
12094W        W32374   0.890   3.032  13.395  0.1396 -0.1983 -0.1500
12095W        W32375   9.845  17.504   3.232 -0.1400  0.0347  0.0622
12096W        W32376  13.358   6.092  14.190 -0.0269 -0.2205 -0.1845
12097W        W32377   0.438  10.914   2.003 -0.0206  0.0749  0.1830
12098W        W32378   4.045  15.216   4.397 -0.0433 -0.0140  0.0397
12099W        W32379  14.327  17.923  12.403 -0.2058 -0.0841  0.1633
12100W        W32380  13.740  10.416   1.293  0.2025 -0.0774  0.0404
12101W        W32381  11.718  15.762   3.619  0.2677 -0.0192  0.3824
12102W        W32382   1.291   8.411  13.130  0.0794  0.1748  0.0790
12103W        W32383  12.372   1.720  15.175  0.1203 -0.0623 -0.1026
12104W        W32384   7.193   5.584   1.360 -0.0305 -0.0211 -0.1859
12105W        W32385   7.568   9.463   1.113  0.3826 -0.2601  0.1613
12106W        W32386   7.234   7.997  15.372  0.1756  0.1457  0.1599
12107W        W32387   3.212  10.514   3.059 -0.0919  0.0304  0.4532
12108W        W32388   2.144  15.772   3.106  0.1086  0.2526  0.1931
12109W        W32389   0.091  16.436  13.489 -0.0087 -0.0611  0.0665
12110W        W32390  16.492   4.794   2.163  0.1100 -0.0966 -0.1574
12111W        W32391   2.980   2.968   4.064  0.0958  0.2017  0.0281
12112W        W32392   8.919  11.972   0.250 -0.2852  0.2136  0.0372
12113W        W32393   5.199   5.536  14.110  0.2223  0.0340 -0.1766
12114W        W32394   1.654  10.536   0.626  0.1073 -0.2008  0.4186
12115W        W32395   2.028   4.678  12.917 -0.2108 -0.0749 -0.1011
12116W        W32396   4.582   3.579  12.593 -0.0556 -0.1358  0.1522
12117W        W32397   4.524  14.543   0.297  0.1553  0.0927 -0.2235
12118W        W32398  13.631   9.680  14.048 -0.2047  0.0801  0.1361
12119W        W32399  16.838   4.259  14.712 -0.4682  0.0283 -0.2091
12120W        W32400   1.819   5.467  14.513 -0.1300  0.1242  0.2445
12121W        W32401   8.577  13.643  14.427 -0.0499  0.1896  0.1202
12122W        W32402  12.527  10.545  13.999 -0.5497  0.2818 -0.0419
12123W        W32403   8.320   8.228  12.765  0.1293  0.0109 -0.0488
12124W        W32404   9.360  11.870   4.541 -0.0372  0.0823 -0.1058
12125W        W32405   1.441   2.747  12.608  0.0475 -0.1048 -0.0608
12126W        W32406   0.105  10.020  11.849 -0.2509 -0.1393 -0.1215
12127W        W32407  17.224  14.713  12.551  0.0365  0.1334 -0.2190
12128W        W32408   3.475   1.139  14.841 -0.0235  0.5615  0.0427
12129W        W32409  17.133   7.094   1.164  0.3415 -0.1450  0.0313
12130W        W32410   6.520  15.837  15.780 -0.0729  0.2376  0.0391
12131W        W32411   1.562  12.464   1.003 -0.0321 -0.0644 -0.2631
12132W        W32412   2.147  12.270   4.483  0.0821  0.1472 -0.0120
12133W        W32413   0.118   5.893   3.719 -0.1462 -0.1647  0.2216
12134W        W32414  14.468   2.079  12.906 -0.1489  0.0116  0.0288
12135W        W32415  13.173   7.567   3.324  0.1587 -0.1116  0.1274
12136W        W32416   5.320   3.817   0.878 -0.1133  0.0690 -0.0064
12137W        W32417   5.900   7.618   0.073  0.1463 -0.0856  0.2509
12138W        W32418   2.510  13.157  14.540  0.2970  0.0298  0.0144
12139W        W32419   7.225  16.262  15.339 -0.0488 -0.1288 -0.1225
12140W        W32420  15.913  11.794   2.140  0.2305 -0.4067  0.0354
12141W        W32421  11.591   4.374   4.062 -0.0169  0.0179  0.0827
12142W        W32422   4.772   5.592  12.716 -0.0568  0.1979 -0.0888
12143W        W32423   4.812  13.626   0.405  0.3670  0.1200  0.0564
12144W        W32424  10.933   4.445  12.024 -0.1936 -0.1621  0.0393
12145W        W32425   4.284   1.714  12.748  0.3116 -0.0504  0.0801
12146W        W32426  14.399   0.778   3.359 -0.2126 -0.2060  0.0705
12147W        W32427   8.058  15.074  15.194  0.3106 -0.1030  0.3353
12148W        W32428  14.399   6.505  15.656 -0.1563 -0.1236 -0.0447
12149W        W32429   3.326   0.603  13.037 -0.1978  0.2887  0.1486
12150W        W32430  17.988  18.255   3.355 -0.2422  0.2930  0.0082
12151W        W32431  16.271   2.941  11.768 -0.1102  0.1137 -0.0866
12152W        W32432  16.117   1.472   0.753  0.0469  0.0995 -0.4830
12153W        W32433   8.104   9.985  15.338 -0.1331  0.1267  0.2467
12154W        W32434   3.713   1.900   5.167  0.1961  0.0207  0.0306
12155W        W32435   0.330   6.063   5.191 -0.1470 -0.0111  0.1370
12156W        W32436   6.302   7.468  13.007 -0.0989  0.1332  0.0109
12157W        W32437   5.166   2.808   2.757  0.1907  0.0653  0.1093
12158W        W32438  12.184  13.440   1.211  0.0355  0.0754 -0.0538
12159W        W32439  12.998  10.367  15.903 -0.3108  0.3083 -0.0755
12160W        W32440   3.308  14.791  13.268 -0.0674  0.0568  0.0040
12161W        W32441   7.166   5.098  13.216  0.1698  0.0382  0.0156
12162W        W32442   5.830   7.761  15.034  0.0178  0.2871  0.0871
12163W        W32443  15.112  16.303  12.061 -0.3170  0.0669  0.0782
12164W        W32444  16.409   6.415  15.320  0.1497 -0.2559 -0.2473
12165W        W32445   4.377  10.031  14.770 -0.2764  0.4120 -0.0203
12166W        W32446   8.929   2.869   3.460 -0.0871  0.2716  0.4005
12167W        W32447   2.743  14.023  14.717 -0.0247  0.1857 -0.1133
12168W        W32448   5.080  14.989   0.837 -0.0637  0.1745  0.0090
12169W        W32449  13.937  18.289  10.274  0.1493 -0.2329  0.2695
12170W        W32450   6.782   5.553  15.154 -0.2617 -0.1718 -0.0099
12171W        W32451   6.633  16.793   1.051  0.0082 -0.1479  0.1671
12172W        W32452  14.526  15.510  14.946 -0.0005 -0.2977 -0.0757
12173W        W32453  14.351   7.651  15.800 -0.0348  0.0302  0.0677
12174W        W32454   7.149   3.977   3.773  0.2585 -0.1379  0.0602
12175W        W32455  11.623  11.635   1.780  0.1654 -0.2176  0.0334
12176W        W32456   3.103  10.533   2.132 -0.0345  0.0203 -0.2613
12177W        W32457   7.100   6.405   0.241 -0.0770  0.1790 -0.0646
12178W        W32458   4.806   0.020  13.419 -0.0420 -0.0366  0.3035
12179W        W32459  17.409  12.598  15.760  0.1276  0.2968  0.0774
12180W        W32460   1.270   3.367  13.227  0.1011 -0.1585 -0.1952
12181W        W32461  15.728  13.249  14.115  0.1659  0.1767  0.0099
12182W        W32462  13.212   1.767  14.133 -0.1265 -0.0500 -0.1361
12183W        W32463  12.134  12.735  11.989 -0.0522  0.0365 -0.0337
12184W        W32464  13.647   8.125  13.656  0.0763 -0.0625  0.0459
12185W        W32465  10.786   3.687  13.930 -0.1228 -0.1887  0.2522
12186W        W32466   2.254   4.930   3.302 -0.1079  0.0651 -0.1025
12187W        W32467   2.347  14.202  12.516  0.0086  0.1450 -0.1285
12188W        W32468   6.957  17.984   4.146  0.0338  0.1574  0.0398
12189W        W32469   2.157  17.588   2.651  0.2340 -0.2708 -0.2287
12190W        W32470   6.478  11.280  15.423 -0.2233 -0.0873 -0.0547
12191W        W32471  12.846   7.686   1.927 -0.0046 -0.2533  0.1067
12192W        W32472   2.947   7.633  12.877  0.1031 -0.0075  0.1208
12193W        W32473   5.016   6.850  13.400  0.0470 -0.1381  0.1879
12194W        W32474   0.146  12.402  15.684 -0.0885  0.0239  0.2093
12195W        W32475  12.044  16.826   0.540  0.0460 -0.0499  0.2690
12196W        W32476   0.450   4.506  15.382 -0.0134 -0.1669 -0.2017
12197W        W32477   9.684  13.754   0.198  0.0400 -0.0749 -0.0901
12198W        W32478  14.518   8.018   2.695 -0.0887 -0.1354  0.2455
12199W        W32479  10.592  17.585  13.458 -0.2359 -0.2278 -0.0373
12200W        W32480  11.038  13.225   4.367  0.2944  0.0603  0.0694
12201W        W32481   5.438  14.902   1.154  0.1946 -0.3550 -0.1269
12202W        W32482   8.239  11.432  12.132  0.1670 -0.0513 -0.1873
12203W        W32483  14.423  15.839   2.508  0.4038  0.0188 -0.3812
12204W        W32484  17.007   0.947  13.547 -0.0160 -0.1033 -0.0408
12205W        W32485  16.522   4.480   2.597  0.1319 -0.2283 -0.1569
12206W        W32486   0.025   8.516  12.442 -0.0934  0.0053 -0.1616
12207W        W32487  14.398   9.709   4.838  0.0726 -0.0843 -0.2923
12208W        W32488  14.346   4.266   1.360  0.2886  0.2292 -0.2166
12209W        W32489   8.913  10.508   3.265  0.1192 -0.0483 -0.1500
12210W        W32490   8.912  13.566   2.059  0.1172 -0.2110 -0.1880
12211W        W32491   5.441  14.359  12.747 -0.0884 -0.1793 -0.1917
12212W        W32492  13.467  16.817   2.350  0.0269  0.2276 -0.1962
12213W        W32493   4.789   1.265   4.022  0.3023  0.1760  0.1730
12214W        W32494   8.381   3.899   3.182  0.0178 -0.0201  0.0510
12215W        W32495   4.438  16.713   0.213 -0.1084 -0.0670  0.0903
12216W        W32496   6.794   8.492   4.344 -0.2516  0.2385  0.3575
12217W        W32497   7.844  11.719  13.900  0.1213 -0.0395  0.2825
12218W        W32498  12.693  12.269   1.273 -0.0189  0.0699  0.3530
12219W        W32499  15.535  16.142  11.179 -0.1627  0.0988  0.0538
12220W        W32500  17.412   0.175  13.683 -0.3258  0.0856 -0.1642
12221W        W32501   7.838   6.492   0.867  0.3830  0.2346  0.4108
12222W        W32502  17.604  12.408  13.647 -0.0965  0.2413 -0.3648
12223W        W32503  12.450   6.826  14.273 -0.0656  0.1864  0.1139
12224W        W32504   4.096  12.111   2.601 -0.0014 -0.3217 -0.3943
12225W        W32505  14.704  10.235   0.080  0.4581 -0.0333  0.0528
12226W        W32506   8.604   9.543   4.272 -0.1531  0.1928  0.3062
12227W        W32507   5.478  11.619  12.831 -0.5140  0.1578 -0.0327
12228W        W32508  13.668  15.339  11.885 -0.0237 -0.1660  0.0489
12229W        W32509   1.607  13.895  11.619 -0.2182 -0.0660  0.0779
12230W        W32510  13.306   2.933   2.421  0.3467  0.2826 -0.3290
12231W        W32511  17.830   8.470  13.273 -0.0466  0.1034 -0.0998
12232W        W32512  11.595   1.905   3.053 -0.2497 -0.1236 -0.0081
12233W        W32513  13.143  14.368  14.484 -0.0057  0.1850 -0.0578
12234W        W32514   3.856  16.532  10.219 -0.0027 -0.1175 -0.0170
12235W        W32515  18.209  13.559   3.436  0.0217 -0.2130  0.1167
12236W        W32516  11.813  10.855  11.852 -0.0545  0.2215  0.0972
12237W        W32517   8.916   8.695   2.045 -0.1563  0.1904  0.1345
12238W        W32518   5.813   1.524  11.805  0.2184 -0.0136 -0.0812
12239W        W32519   9.658   2.736   2.650 -0.4688  0.3085 -0.3200
12240W        W32520   2.802  17.766   3.954 -0.0328  0.1648 -0.1979
12241W        W32521   4.653  14.077   3.380  0.0593  0.1149  0.1042
12242W        W32522   4.815   6.239   2.654  0.1455 -0.1142 -0.1501
12243W        W32523   6.797  16.198   3.137  0.1523  0.1544 -0.3397
12244W        W32524   6.875  13.207   1.538 -0.0083  0.1370 -0.0133
12245W        W32525   9.700  17.821  14.494  0.0627 -0.1987  0.0440
12246W        W32526   1.832  16.880  13.324  0.0747  0.2824  0.0791
12247W        W32527  16.350  16.737  11.178  0.0107  0.1264 -0.1047
12248W        W32528  10.284  12.408   0.072 -0.0116 -0.0945  0.2014
12249W        W32529   7.139   4.067   2.387  0.0510  0.0045  0.0135
12250W        W32530   4.834   2.450  11.566 -0.2313 -0.1437  0.3670
12251W        W32531   7.285   8.396   0.450 -0.0960 -0.1209 -0.0594
12252W        W32532   1.632  14.409   4.437 -0.1882  0.1450  0.2671
12253W        W32533  14.337   5.818   0.389  0.0901 -0.2865  0.1105
12254W        W32534  11.747  10.142  12.611  0.0070 -0.0061 -0.0010
12255W        W32535  14.924   6.485  15.579  0.1631  0.0326 -0.0979
12256W        W32536  11.991  12.728  10.962  0.3322  0.1654 -0.2649
12257W        W32537  13.485   4.214  15.667  0.0178  0.1497  0.2092
12258W        W32538   7.441   4.030  14.774  0.1756  0.1970  0.0313
12259W        W32539  14.351  11.480   2.305 -0.1153  0.1076 -0.4037
12260W        W32540   5.920  12.310  13.299  0.0971 -0.2121 -0.3427
12261W        W32541   0.942   0.003   2.071 -0.0132 -0.1464 -0.2463
12262W        W32542   8.507   7.006  14.081 -0.1577  0.0809 -0.0402
12263W        W32543   1.488   3.567   5.530 -0.1401 -0.0382  0.1002
12264W        W32544   6.533  10.005  13.709 -0.1157  0.0705  0.0677
12265W        W32545  17.386   3.486  12.696  0.2156  0.0638  0.0237
12266W        W32546  16.105  13.181   4.589  0.0858  0.1991 -0.1435
12267W        W32547  10.201   4.892   4.251  0.2321 -0.0691 -0.0575
12268W        W32548  16.683  11.359   2.946  0.3659 -0.1804 -0.0064
12269W        W32549  13.990  13.036   0.343 -0.1092  0.3715  0.4785
12270W        W32550  16.004   5.678   0.859 -0.1522  0.0113 -0.0028
12271W        W32551   7.845   9.382  14.953  0.0236 -0.2611 -0.0904
12272W        W32552   1.044   5.172  12.030  0.0086 -0.0104 -0.0193
12273W        W32553  16.794  10.322   4.793  0.0133 -0.1481 -0.2419
12274W        W32554   9.317   3.283   3.764 -0.1411  0.1678 -0.1792
12275W        W32555   2.467  16.249  15.505  0.2916 -0.2155  0.0362
12276W        W32556   4.941  14.047   1.081 -0.1941 -0.1871  0.0409
12277W        W32557  13.994  15.793  15.811 -0.3696  0.1036 -0.0455
12278W        W32558  12.401   5.089   3.073 -0.1397 -0.2312 -0.3286
12279W        W32559  10.989  14.454  15.567  0.1778  0.0784 -0.1786
12280W        W32560  15.061  17.247  15.608 -0.3855 -0.1197 -0.0227
12281W        W32561   0.780  17.325   0.139  0.2854  0.0076 -0.1735
12282W        W32562  11.088   8.880   2.486  0.2781  0.0868 -0.1988
12283W        W32563   8.309   3.638   4.720 -0.1158 -0.2550  0.2556
12284W        W32564   4.184   7.065   4.368 -0.4126 -0.1471 -0.1396
12285W        W32565   4.915  11.350   3.905 -0.1043 -0.2146 -0.2289
12286W        W32566   0.518  10.765   1.363 -0.1229  0.1192  0.1421
12287W        W32567   3.962   9.448  12.146 -0.1789 -0.1540 -0.1973
12288W        W32568  17.414   4.427  13.452  0.0012 -0.0540  0.1822
12289W        W32569  18.065  10.112  14.075 -0.1065  0.1461  0.1892
12290W        W32570  14.254  16.097  14.283 -0.1867 -0.1146  0.0283
12291W        W32571  11.246  11.601  11.908  0.0041  0.1917  0.1508
12292W        W32572   6.372  15.247   1.834 -0.4829  0.1888 -0.0478
12293W        W32573   0.177  18.250   4.679  0.1174  0.0765 -0.5268
12294W        W32574  15.861  14.691  13.353  0.0858 -0.2527  0.0589
12295W        W32575   7.386  14.305  14.551  0.0406  0.1610  0.1392
12296W        W32576   7.846  13.032  14.469 -0.2344 -0.0983 -0.0586
12297W        W32577   7.525   2.612  12.922 -0.3089 -0.2800 -0.0184
12298W        W32578   4.052   1.160   3.708 -0.0580  0.1271 -0.1649
12299W        W32579   8.242   4.993   0.573  0.0475  0.2106 -0.0389
12300W        W32580  12.055  16.407   3.297  0.1676  0.1376 -0.0922
12301W        W32581   8.939   8.045   2.889  0.0168  0.1945  0.0347
12302W        W32582   8.980  14.602  13.597  0.2389 -0.0448  0.3231
12303W        W32583   3.738  11.475  15.422  0.2056  0.1733 -0.0757
12304W        W32584   3.897  15.618  15.889  0.1290 -0.1764 -0.2038
12305W        W32585   8.542   3.502   5.184 -0.0598 -0.0693 -0.1647
12306W        W32586  13.621  11.085  11.705  0.5022  0.1927  0.1964
12307W        W32587   8.091  16.762   3.854  0.2144  0.2147 -0.3226
12308W        W32588   9.647  15.114  12.124 -0.0091 -0.0568 -0.3524
12309W        W32589  14.611   0.456  15.030 -0.1405 -0.2163 -0.1844
12310W        W32590  15.452  15.107   1.139 -0.1435 -0.5634 -0.1690
12311W        W32591   1.292   8.217   0.406 -0.0805 -0.4453 -0.0529
12312W        W32592  17.638  11.752   2.870  0.0093  0.1217  0.1004
12313W        W32593   6.521  18.056  15.408  0.0114  0.3809 -0.0869
12314W        W32594  15.393   7.711  13.613 -0.1727 -0.0518  0.0327
12315W        W32595   3.116   9.135   1.528 -0.0644  0.3733 -0.2491
12316W        W32596  11.606   9.982   0.876  0.1885 -0.3424  0.3043
12317W        W32597   8.929  14.978   3.032 -0.0227  0.0530  0.1504
12318W        W32598  16.714  14.694   0.165  0.1542  0.0270  0.0934
12319W        W32599   5.681  14.625  14.565 -0.0347 -0.2040  0.0206
12320W        W32600  16.961  15.053   1.445  0.1028  0.0560  0.0848
12321W        W32601   8.884   1.824   2.058 -0.1853  0.1640  0.1498
12322W        W32602   5.715  11.171  12.499 -0.4487  0.0628  0.0224
12323W        W32603   3.292  13.470  15.737  0.0547 -0.0342  0.3561
12324W        W32604   4.212   9.614  12.668 -0.1716 -0.1281  0.0631
12325W        W32605  16.978   3.621   2.809  0.0720  0.0766  0.2046
12326W        W32606   1.927   5.063  14.198  0.0220  0.0342 -0.0583
12327W        W32607  13.187   3.071   2.957  0.1812 -0.1152  0.0219
12328W        W32608   4.810   5.353   0.154 -0.1356  0.0277 -0.0377
12329W        W32609  14.626  18.004   1.147 -0.1002  0.0261 -0.1318
12330W        W32610  10.761   3.840  14.467 -0.0932  0.0508  0.2125
12331W        W32611   8.719   6.916  11.790 -0.3105 -0.0980 -0.1834
12332W        W32612   3.441   5.225   1.615 -0.2084 -0.0162  0.0290
12333W        W32613   0.229  10.248  15.848  0.1599  0.0277  0.0831
12334W        W32614  14.784  16.411  15.346 -0.0656  0.0452 -0.0685
12335W        W32615   3.015   9.620  13.832  0.1692  0.1822  0.1360
12336W        W32616   7.281  10.063   1.660  0.0965 -0.0875  0.2250
12337W        W32617   4.106   3.657  15.696 -0.0073  0.1843 -0.0346
12338W        W32618  11.952  13.349  13.308  0.1140 -0.3840  0.1548
12339W        W32619   6.920  13.336  14.864  0.0645  0.2838 -0.2039
12340W        W32620   2.318   7.645  12.196 -0.0534  0.2748 -0.2304
12341W        W32621   8.756   8.513  14.214 -0.3486 -0.0180  0.1305
12342W        W32622   1.759  16.753   4.339  0.2132  0.0876  0.0268
12343W        W32623   3.561  10.550  14.600  0.0747 -0.2294  0.0430
12344W        W32624   9.912  16.209  13.855 -0.1806  0.1745 -0.1158
12345W        W32625   7.661   4.993  12.444 -0.0916  0.0912  0.0274
12346W        W32626  16.223   8.852   4.095 -0.0644  0.2042  0.1694
12347W        W32627  17.913  17.321   0.062  0.0560 -0.2624 -0.0946
12348W        W32628  13.732  14.585   1.304 -0.0884  0.1503  0.2683
12349W        W32629  15.444   0.341  15.674 -0.0118 -0.0347 -0.0286
12350W        W32630  11.115  15.219  15.179 -0.0163 -0.0234  0.0985
12351W        W32631  10.041   0.537   3.565  0.2225  0.0352  0.0650
12352W        W32632   9.459  12.670  12.687 -0.1182  0.0378 -0.0691
12353W        W32633  10.472  16.909   0.508 -0.1402  0.0189 -0.0882
12354W        W32634   8.165  15.335  13.144  0.0428  0.2328  0.0680
12355W        W32635   1.592   2.297  15.516  0.1540 -0.1960  0.1837
12356W        W32636  13.032   3.551   1.094 -0.0199  0.0610  0.1061
12357W        W32637  18.189   7.616   3.322  0.0692  0.0710 -0.0771
12358W        W32638  13.069   1.186  11.346  0.0013  0.1183  0.0671
12359W        W32639   5.423  15.005  11.608  0.0070 -0.2078  0.2298
12360W        W32640   0.183   6.037   2.509  0.2816 -0.1072 -0.1332
12361W        W32641   7.530   1.259   2.975  0.2781  0.2100 -0.0764
12362W        W32642   4.821   1.507   2.095  0.0344 -0.0123  0.4154
12363W        W32643   2.665  13.428  12.130 -0.0287  0.0310  0.0267
12364W        W32644  11.449  14.726   4.279 -0.2403  0.2459  0.0530
12365W        W32645   8.645   1.545  11.661 -0.1752 -0.0537  0.3535
12366W        W32646   2.405   0.758   1.469 -0.0655  0.0371  0.1987
12367W        W32647   5.318   5.383  12.775 -0.1765  0.5280  0.0207
12368W        W32648  10.613  11.514   4.002 -0.2827 -0.2016 -0.3028
12369W        W32649   6.382   0.601  13.751 -0.1146  0.1800  0.1920
12370W        W32650  13.025  13.595  12.058 -0.0318  0.0162 -0.1730
12371W        W32651   6.806   8.453   2.533  0.2249 -0.1928 -0.1371
12372W        W32652   0.924  12.499  12.799  0.2196 -0.0427  0.0225
12373W        W32653   3.217   8.485  14.484  0.0212 -0.2208 -0.2975
12374W        W32654  15.809  11.699   2.620  0.3698 -0.1418  0.0259
12375W        W32655  11.095  15.160   2.860  0.0873 -0.0693  0.4197
12376W        W32656   0.927   6.268   3.525  0.1492 -0.0979  0.1551
12377W        W32657  14.291  12.715   4.518 -0.0158  0.0360  0.0116
12378W        W32658  11.678   5.072  11.298  0.1312  0.1489 -0.0439
12379W        W32659  17.055  14.588   2.985 -0.1513 -0.3296 -0.0966
12380W        W32660   0.930   2.145   4.523  0.2975  0.1582  0.1671
12381W        W32661  10.073   4.806   0.057 -0.2817  0.1268  0.1268
12382W        W32662   9.504   9.158   3.171 -0.0086  0.0447 -0.2061
12383W        W32663   7.770   0.006   3.739 -0.1103 -0.0733 -0.0968
12384W        W32664   2.585   3.040  12.254 -0.1217 -0.0709 -0.0881
12385W        W32665   8.606   3.391  12.646  0.1765  0.1807 -0.0917
12386W        W32666  15.671   6.606  12.490  0.0375  0.0109 -0.0908
12387W        W32667   6.767  14.272  12.094  0.0408 -0.0759  0.0269
12388W        W32668   3.545  11.412  13.918 -0.2298 -0.1048 -0.1595
12389W        W32669   3.010   2.741   0.892 -0.1296 -0.0118  0.2101
12390W        W32670   1.731  17.547  10.923  0.0114  0.1911 -0.1231
12391W        W32671  13.190   2.822  14.485  0.0877  0.0770  0.1113
12392W        W32672  12.335   9.732  10.902 -0.2237 -0.0173 -0.0256
12393W        W32673   3.529  11.910  15.239 -0.0744  0.0624  0.0368
12394W        W32674   1.849   6.656   1.119  0.0508 -0.2349  0.0734
12395W        W32675  11.378  11.203   4.447  0.0361 -0.0569  0.0325
12396W        W32676  14.593  10.361   2.812 -0.2092 -0.0738  0.0360
12397W        W32677   9.781  11.776  14.933 -0.0376 -0.0383  0.2093
12398W        W32678  14.363  10.029  13.683 -0.3587  0.1301  0.2803
12399W        W32679   5.766  17.183   4.559 -0.0189  0.2974 -0.1131
12400W        W32680   2.493   9.472  11.823 -0.0759  0.2333  0.0885
12401W        W32681   1.074   3.260  13.793  0.1483 -0.2009  0.0675
12402W        W32682   3.247   3.993  11.019 -0.3416 -0.0839  0.1659
12403W        W32683   4.253  12.897   0.423  0.0693  0.0655 -0.0427
12404W        W32684   6.656   4.408  11.975 -0.3632 -0.2606 -0.0063
12405W        W32685   6.049   8.428   3.601  0.1809  0.2571  0.0401
12406W        W32686  17.713  18.309   0.586 -0.0401 -0.0968 -0.0152
12407W        W32687   5.669   5.308  13.251  0.0872  0.1355  0.0487
12408W        W32688  15.228   2.354  12.982 -0.1037 -0.3653 -0.0157
12409W        W32689   3.295   0.618  14.761 -0.1180  0.1681  0.0589
12410W        W32690  13.793   5.536  11.846  0.3114  0.0713  0.0797
12411W        W32691  13.264   1.469  12.267 -0.0297  0.1289  0.0924
12412W        W32692   5.862  16.347  13.054  0.5645  0.1350 -0.0770
12413W        W32693   5.434   6.398  15.544  0.2016  0.3950  0.2004
12414W        W32694   4.735   7.796  15.324  0.1421 -0.2300  0.1857
12415W        W32695  10.776   6.808  13.708 -0.0282  0.0323  0.0692
12416W        W32696   7.536  16.563  14.241  0.0657  0.0188  0.0860
12417W        W32697  15.511  15.121   3.144 -0.2156 -0.1306 -0.0350
12418W        W32698   6.844   6.872  12.040  0.0532  0.1690 -0.1576
12419W        W32699  10.260   4.752   3.134  0.3767 -0.1774 -0.2315
12420W        W32700   4.117  18.087   3.985  0.4575 -0.2793 -0.0035
12421W        W32701  17.093  13.540   4.276  0.1433 -0.2239 -0.1824
12422W        W32702  10.343   3.110   5.578  0.0943  0.2357 -0.0644
12423W        W32703   6.640  11.667   2.289 -0.0655 -0.2796 -0.1225
12424W        W32704  10.726   3.054  15.538 -0.1053 -0.1123  0.0438
12425W        W32705  17.129   9.037  11.877 -0.3357 -0.0485 -0.4060
12426W        W32706  17.111  18.328  15.877 -0.1257  0.0732  0.2679
12427W        W32707   9.930   7.180   4.430  0.2448  0.3639 -0.3116
12428W        W32708   2.857  13.926   2.202 -0.4141 -0.2430  0.1055
12429W        W32709  14.736   5.339  11.774  0.1437  0.1003 -0.2502
12430W        W32710  16.968   0.029  13.370 -0.2787 -0.0988  0.0890
12431W        W32711   7.725   4.514  13.354  0.0489 -0.2528 -0.0668
12432W        W32712  11.246   9.960   3.344  0.2650  0.0324 -0.1567
12433W        W32713  15.663  16.609   3.144 -0.1809  0.1588 -0.1086
12434W        W32714  15.094   4.733   1.487  0.2089  0.2896 -0.2342
12435W        W32715   5.755   6.364   1.381  0.3071  0.0354  0.1819
12436W        W32716  15.850  12.018   0.703  0.0209 -0.1256 -0.0125
12437W        W32717   7.287  11.910   3.225 -0.0461  0.1364 -0.3048
12438W        W32718  10.274  15.046  12.095 -0.3229 -0.0678  0.3145
12439W        W32719   6.749   7.901   1.125 -0.1298 -0.2471  0.1527
12440W        W32720  13.285   2.148   3.903 -0.0028  0.0796 -0.3808
12441W        W32721  12.845  11.614  15.457  0.0153  0.2389 -0.1347
12442W        W32722  12.147   6.750  13.352 -0.2083  0.0937  0.1971
12443W        W32723  11.597   7.119  12.761  0.0020  0.2051  0.1679
12444W        W32724   2.470   5.004  14.503  0.0238  0.1766  0.1059
12445W        W32725   3.949  15.413   3.050  0.0886 -0.1149 -0.0074
12446W        W32726  17.657   4.266   5.041 -0.0232 -0.1118  0.0312
12447W        W32727   9.686   7.949  14.148  0.1506 -0.0604  0.1500
12448W        W32728   9.593   3.935  15.447  0.0841  0.0591 -0.1480
12449W        W32729   1.751   9.783   4.072 -0.2886  0.0450 -0.2482
12450W        W32730   1.357  14.318  15.602 -0.1417 -0.2863 -0.0348
12451W        W32731   8.127  13.332  12.447  0.0547  0.1928 -0.1694
12452W        W32732   0.748  12.770   4.381  0.1195 -0.2199  0.2574
12453W        W32733   2.896  11.542  15.849  0.0104  0.0327  0.2078
12454W        W32734   6.382  16.686  11.662 -0.2281  0.1541  0.3738
12455W        W32735   7.493   0.162   4.782 -0.0363  0.1237  0.0658
12456W        W32736   5.456  15.539  13.002 -0.1808  0.1280  0.2066
12457W        W32737   5.834  11.667  11.779  0.2583 -0.1519  0.1747
12458W        W32738   4.205   2.551   3.729  0.1387  0.0524  0.1122
12459W        W32739   2.881  16.829  11.283 -0.2142 -0.1287  0.0019
12460W        W32740  15.205   9.471   0.468 -0.0652  0.2104 -0.1040
12461W        W32741   7.463  13.679  12.734 -0.1064 -0.1305  0.0051
12462W        W32742  14.315   9.600   1.038  0.0161  0.2193  0.0232
12463W        W32743  16.426  15.930  11.593 -0.0820 -0.2377 -0.1713
12464W        W32744   4.588   3.360   0.238  0.0249 -0.0825 -0.1938
12465W        W32745   0.127   3.748  11.699 -0.0320 -0.3368  0.0705
12466W        W32746  10.111   0.673   4.408 -0.1857 -0.0673  0.1371
12467W        W32747   7.500  15.456  15.884 -0.3891 -0.0323 -0.0699
12468W        W32748  13.133   1.551   0.845  0.0749  0.1361 -0.4428
12469W        W32749  12.410   5.438  13.451  0.0427 -0.1001 -0.0485
12470W        W32750  17.429  12.448   4.161 -0.1188  0.1231  0.0711
12471W        W32751  10.861  17.651   0.139  0.4263 -0.0101 -0.1627
12472W        W32752  12.188   8.105  14.756 -0.0672 -0.0270  0.1453
12473W        W32753  11.028   3.322  12.323  0.0081 -0.0765  0.1369
12474W        W32754   7.734  15.742  14.916  0.1362  0.0554 -0.0962
12475W        W32755   9.970  10.272   2.390 -0.1684 -0.0828 -0.1267
12476W        W32756   3.324   3.376  13.019 -0.0290 -0.1578 -0.0377
12477W        W32757   8.910  13.674   3.226 -0.0957 -0.1599  0.2084
12478W        W32758   1.739   4.057   1.084 -0.1370  0.4183 -0.2711
12479W        W32759  12.982  13.817   2.004 -0.1884 -0.0231  0.1370
12480W        W32760  10.544  14.895   2.072  0.0280 -0.0271 -0.0083
12481W        W32761  14.051   2.812  14.479  0.2226  0.0898 -0.0492
12482W        W32762   6.037  17.138   2.908 -0.0372 -0.0441 -0.0450
12483W        W32763  14.326   9.134   1.920 -0.2298  0.0781  0.0725
12484W        W32764   2.808  15.214  12.951  0.3318 -0.2712  0.2433
12485W        W32765  10.096   0.195   4.638  0.2258 -0.0275 -0.0539
12486W        W32766   7.416  16.994  12.557 -0.0829  0.0996 -0.0087
12487W        W32767   8.898   0.642  13.358 -0.0313 -0.1080 -0.1031
12488W        W32768   8.626   5.629  11.315  0.0739  0.1136 -0.0213
12489W        W32769  17.505  13.282  14.315  0.0473  0.1085 -0.1029
12490W        W32770   2.501   3.287  15.721 -0.1951  0.3723  0.2733
12491W        W32771  16.119   7.967   5.710  0.0638  0.2096 -0.0092
12492W        W32772   5.228  13.714  12.806 -0.3673 -0.1864 -0.3102
12493W        W32773  17.025  12.303   4.389 -0.1343  0.0625  0.1731
12494W        W32774   7.648  11.315   4.384 -0.1570 -0.0217 -0.0947
12495W        W32775  11.228  14.311  14.073 -0.2399  0.2758  0.0406
12496W        W32776  11.359   8.655   2.138  0.1081 -0.2311  0.3384
12497W        W32777  13.901  13.093  11.521 -0.0902  0.0924  0.1140
12498W        W32778   7.236   4.697   5.746 -0.0959  0.1681 -0.0709
12499W        W32779  14.878   9.522   5.086 -0.0280  0.0942  0.1646
12500W        W32780   0.042  18.264  11.903  0.1564  0.2478 -0.2316
12501W        W32781  17.229  14.892  14.099 -0.0410 -0.3965  0.1499
12502W        W32782  14.317   7.501  14.101 -0.1836  0.1036  0.0591
12503W        W32783   8.896  15.715   2.635 -0.0676 -0.3115  0.3178
12504W        W32784  17.101  11.906  12.119 -0.0958 -0.5112 -0.0973
12505W        W32785   4.607  13.608   3.440  0.1846 -0.2575 -0.0597
12506W        W32786   7.440  12.105  13.170  0.0383  0.0817 -0.0346
12507W        W32787  18.113  11.955  13.119  0.1219  0.0327 -0.0622
12508W        W32788   1.520   8.452   1.944  0.1412 -0.1278 -0.1512
12509W        W32789  15.589   2.714   3.799  0.0064 -0.1521  0.2518
12510W        W32790   7.972   2.873   1.271 -0.2636 -0.2065  0.0995
12511W        W32791   3.243   3.763  15.030  0.2520  0.1928 -0.0555
12512W        W32792  17.773   1.133   2.074  0.1639 -0.1339  0.2041
12513W        W32793   5.390   3.575   0.035 -0.2215  0.3530  0.0588
12514W        W32794   2.524  13.575   1.963  0.0784  0.0221 -0.1694
12515W        W32795  16.368  10.188   0.588  0.2365  0.0013 -0.1767
12516W        W32796  15.224  13.149   3.175  0.1784  0.1294  0.2014
12517W        W32797   2.348  11.172  14.824  0.1879  0.1974  0.1912
12518W        W32798   4.080  13.198  13.617  0.0361 -0.0930 -0.0281
12519W        W32799  16.765  15.321   2.497 -0.1911 -0.1963  0.1652
12520W        W32800  16.365  17.250  13.913  0.1898 -0.0519 -0.1472
12521W        W32801   2.742  17.644  12.932 -0.1231  0.1804 -0.0654
12522W        W32802  12.256  11.445   3.907  0.0930 -0.2338 -0.2479
12523W        W32803  15.475  17.251   4.749  0.1423  0.1144 -0.1633
12524W        W32804   1.004   2.200   3.491 -0.0412  0.0302 -0.0725
12525W        W32805   5.533   5.909  13.934 -0.0921  0.0168 -0.0619
12526W        W32806  11.123   4.650   2.938 -0.2062  0.0009 -0.0168
12527W        W32807  12.750   8.321   3.037  0.0694 -0.1658  0.0680
12528W        W32808   9.246  10.943  10.928  0.0575 -0.0847  0.0472
12529W        W32809   9.240   4.631   0.869  0.3126  0.0417 -0.2096
12530W        W32810   2.047  10.579  14.162 -0.0242 -0.1669  0.1062
12531W        W32811   3.243  11.160   0.838 -0.2886  0.5001  0.1049
12532W        W32812   6.220  10.581   1.243 -0.1112  0.1742  0.1332
12533W        W32813   5.508   2.588   3.477  0.2390  0.1729 -0.1220
12534W        W32814  18.247  10.024  12.339 -0.4340  0.2692 -0.1455
12535W        W32815   3.699  10.120   2.297 -0.1589 -0.1668  0.0882
12536W        W32816   5.155  17.082  15.822  0.0597  0.0447 -0.0554
12537W        W32817   6.533  11.463   1.015 -0.0196 -0.1885 -0.1387
12538W        W32818   6.579   5.189  11.553  0.2703  0.3080  0.0972
12539W        W32819   8.043   8.388  14.475 -0.2375 -0.1293  0.2635
12540W        W32820  11.130   0.825  13.916 -0.1874  0.1211 -0.1938
12541W        W32821  12.113   8.060   4.019 -0.3224 -0.1033  0.0480
12542W        W32822  13.137   6.898  13.704 -0.0751  0.3239  0.1318
12543W        W32823  15.111   0.631  13.621 -0.0381  0.0504  0.0823
12544W        W32824  14.164   2.264  13.262  0.2849  0.3637 -0.0996
12545W        W32825  12.324   9.270  11.647 -0.0110 -0.2737  0.2783
12546W        W32826   4.063  15.234   0.610 -0.1418  0.3481 -0.3230
12547W        W32827   1.384  10.112  12.456  0.2366 -0.0937 -0.0005
12548W        W32828  11.180  12.818  12.639  0.0256 -0.1018 -0.1612
12549W        W32829  17.459   6.477   0.081  0.0736 -0.1177  0.2811
12550W        W32830   9.222   1.891  12.302  0.3114  0.0979 -0.1577
12551W        W32831  18.046   3.271  13.551 -0.2232 -0.0316 -0.1409
12552W        W32832  15.028  13.564  15.285  0.3553  0.2164 -0.0136
12553W        W32833  17.658   5.833  13.324 -0.0079  0.0027  0.1312
12554W        W32834  15.675   4.855  12.033 -0.0292 -0.1297 -0.0492
12555W        W32835   9.734   3.924  14.512 -0.0475  0.1099  0.1740
12556W        W32836  12.552  15.230   4.465 -0.1202 -0.0720 -0.2191
12557W        W32837   0.980  10.736   1.021 -0.0408 -0.2082 -0.1224
12558W        W32838  10.463   6.378  15.649 -0.2530  0.2950 -0.0085
12559W        W32839  14.884   6.424   2.811 -0.1209 -0.0356 -0.0401
12560W        W32840   2.761  10.522   4.297  0.3061 -0.0640  0.1847
12561W        W32841   8.773   4.544   1.030  0.1333 -0.0512 -0.1062
12562W        W32842   6.978  14.489  11.558 -0.0412 -0.2449  0.1757
12563W        W32843  10.024  18.306   2.149 -0.0285 -0.1303  0.1177
12564W        W32844   0.369   2.974   4.169 -0.2623 -0.3235 -0.3321
12565W        W32845   1.108  17.906   3.760  0.3248  0.1100 -0.1482
12566W        W32846   0.574   0.696   1.440  0.0953 -0.0307 -0.4366
12567W        W32847  13.513  11.007   4.331 -0.1157  0.0962 -0.0416
12568W        W32848  11.513   7.892   0.844  0.1758  0.4645  0.2176
12569W        W32849  18.159   1.785   3.080  0.1712  0.0841  0.0055
12570W        W32850  12.677   8.556   1.465 -0.3426  0.1505  0.0559
12571W        W32851   0.456  13.219  14.631 -0.0173  0.0227  0.0732
12572W        W32852  12.961   2.336  12.761  0.3280  0.0155 -0.0174
12573W        W32853   8.220  10.094  12.217  0.1347  0.4697 -0.0743
12574W        W32854   2.320   4.708  11.966  0.2996  0.0490 -0.2934
12575W        W32855   4.156  16.310   1.475  0.1678  0.0209  0.1445
12576W        W32856   2.697   9.871   3.947 -0.1042  0.1993  0.1884
12577W        W32857   6.004  18.230   2.774  0.0769 -0.2297 -0.0872
12578W        W32858   8.616   7.785  12.752  0.1724 -0.0234 -0.1260
12579W        W32859   3.349   9.468  14.251 -0.0530  0.1490  0.0909
12580W        W32860  10.111  18.081  15.112 -0.4622  0.0328  0.2260
12581W        W32861   9.499  14.886   3.128  0.3032 -0.3458 -0.0373
12582W        W32862   9.474  17.676  15.491 -0.1543  0.2252 -0.1770
12583W        W32863   5.923  13.929  15.888  0.2797 -0.2064  0.1390
12584W        W32864   7.974  16.230  13.651 -0.0287 -0.0620  0.0724
12585W        W32865   9.995   9.337   1.268  0.1176  0.3908 -0.0946
12586W        W32866   8.288   2.996  12.727  0.2216 -0.0783 -0.2100
12587W        W32867  16.783  14.622   3.421  0.2745 -0.0364  0.2232
12588W        W32868   8.317  11.490   2.296  0.3107 -0.1178 -0.2111
12589W        W32869  11.889  18.077  13.928  0.1007 -0.1993 -0.3044
12590W        W32870  14.082   9.126  11.564  0.0760 -0.1343  0.0314
12591W        W32871  11.165  15.874  11.847 -0.2360 -0.0424 -0.2679
12592W        W32872   6.531   9.712   4.195  0.2857 -0.0681 -0.1560
12593W        W32873  12.893   5.328   4.071  0.2615 -0.0216  0.1728
12594W        W32874  17.670  11.629  12.476 -0.3764 -0.0236 -0.0834
12595W        W32875  10.358   9.995  11.956 -0.1941  0.0643 -0.0802
12596W        W32876   5.462   5.498   1.829  0.0201 -0.2255  0.0191
12597W        W32877  10.108   2.596  13.329  0.5114 -0.1363 -0.1745
12598W        W32878   6.110   4.798  12.749 -0.1350  0.3189 -0.0838
12599W        W32879  10.070  12.807  13.767 -0.4939  0.2160 -0.0576
12600W        W32880   5.836   7.188  14.979 -0.2463 -0.2157  0.1069
12601W        W32881   9.701   2.899   3.773 -0.0895 -0.1260  0.2690
12602W        W32882   7.705   8.456   2.471 -0.2836  0.1158  0.2292
12603W        W32883  10.906  12.231  13.856  0.1031 -0.0753 -0.0074
12604W        W32884   9.908  15.024  15.925  0.0487 -0.1267 -0.0302
12605W        W32885   1.505   7.206  12.184  0.3206 -0.1153 -0.1852
12606W        W32886   3.925   1.644   2.222  0.0390 -0.1862  0.0724
12607W        W32887   9.833   8.248   2.055  0.0134  0.0774 -0.1633
12608W        W32888   1.589   1.957  13.599 -0.2601 -0.0113  0.2490
12609W        W32889  11.909   0.958   4.201 -0.0564 -0.0103  0.1600
12610W        W32890   5.566   7.981  14.648 -0.0711  0.0094 -0.0803
12611W        W32891   6.241   1.003  14.420  0.2220 -0.1029  0.2089
12612W        W32892  12.653   3.843  13.702  0.0017 -0.0541  0.0379
12613W        W32893  12.332   0.555  11.940  0.1129  0.2869  0.1612
12614W        W32894   6.654   0.557  15.055  0.0300 -0.1337 -0.2336
12615W        W32895   0.928   9.648   2.278  0.1974  0.0113 -0.1666
12616W        W32896  14.599  17.350  13.898 -0.0081  0.1989  0.0775
12617W        W32897  14.307  15.018  15.271 -0.0345  0.2569 -0.0434
12618W        W32898  13.957  13.483  14.451  0.0593 -0.3801 -0.0340
12619W        W32899  12.404   6.229   4.292  0.0321 -0.1338  0.1051
12620W        W32900   8.081   3.908   0.920 -0.1399 -0.1000 -0.1601
12621W        W32901   5.818   3.902   0.083 -0.1387  0.2640 -0.1588
12622W        W32902   8.427  10.215  14.565  0.0100 -0.1601  0.1953
12623W        W32903   0.366   3.116  15.160  0.1627  0.0739 -0.0711
12624W        W32904  16.193   9.685  13.942  0.0481  0.0611 -0.0595
12625W        W32905   3.649   1.482  12.350  0.0316 -0.0671 -0.0068
12626W        W32906   4.557   7.282  12.790  0.0413  0.3566 -0.0319
12627W        W32907   9.207  10.843  12.729 -0.0350  0.1233  0.2221
12628W        W32908  12.896   7.382   3.725  0.1885 -0.1189 -0.1550
12629W        W32909  10.167  16.362   1.989 -0.0368 -0.1098  0.1101
12630W        W32910  15.508   8.526  14.174 -0.1101 -0.1207  0.0920
12631W        W32911  17.368  10.421   4.003  0.0352 -0.1654  0.1755
12632W        W32912  17.205  16.754   0.507 -0.1422  0.3148  0.1085
12633W        W32913   8.682   1.490   3.276 -0.0614  0.2797 -0.2073
12634W        W32914  12.351   8.855   1.859  0.3546 -0.0734 -0.0388
12635W        W32915   1.738  18.301  13.393 -0.0040  0.1140  0.3633
12636W        W32916   1.529   4.370  13.637  0.0676 -0.2004 -0.1623
12637W        W32917   3.629   9.502  12.513  0.0752  0.0106  0.0953
12638W        W32918   7.857   7.023   3.315  0.1228 -0.1175 -0.0653
12639W        W32919  16.985   6.588  13.231  0.0782 -0.0415 -0.1064
12640W        W32920   2.023   4.957  14.706 -0.2542 -0.0766 -0.0816
12641W        W32921   5.910  10.510   3.046 -0.1526  0.0366  0.0754
12642W        W32922   3.466  14.624  12.773 -0.3432  0.1973  0.0681
12643W        W32923   4.467   6.985   3.045  0.0510  0.3818  0.1919
12644W        W32924  11.887   6.085  15.532  0.1170  0.0513 -0.2405
12645W        W32925  13.020   7.879  13.714 -0.0391  0.2028  0.1055
12646W        W32926   9.142   8.271   4.744 -0.1078 -0.2429 -0.0200
12647W        W32927  18.216   5.405   2.392 -0.1398  0.1161 -0.1947
12648W        W32928   8.134  11.139   0.177 -0.2541 -0.2775  0.3411
12649W        W32929   2.870   5.868   0.163 -0.4073  0.1639  0.0699
12650W        W32930   5.966   5.270  14.440 -0.1010  0.0447  0.1226
12651W        W32931  15.032  12.521   3.980 -0.1892 -0.1623  0.0414
12652W        W32932   0.560  15.645  15.492  0.0833  0.1001  0.0521
12653W        W32933   9.974  11.162  12.903 -0.0395 -0.0125  0.0890
12654W        W32934   3.864  12.196  12.446  0.2799  0.0830 -0.0392
12655W        W32935   8.990   1.756  15.097  0.1698  0.0253 -0.0502
12656W        W32936   3.193   7.697  11.649  0.0708  0.0628 -0.3254
12657W        W32937  17.493   7.697   3.887  0.0621 -0.0436  0.0344
12658W        W32938  11.223  13.265   0.211  0.8447  0.0884 -0.1461
12659W        W32939  10.878  10.378   2.478 -0.0458  0.3292 -0.0355
12660W        W32940   0.211   1.005  15.887 -0.2467 -0.1597  0.0888
12661W        W32941   7.487  14.286  15.045  0.2423  0.0393  0.1360
12662W        W32942   5.035  10.549  13.690  0.0905 -0.0575 -0.0400
12663W        W32943  15.797  15.527  14.206  0.0803  0.1020 -0.0331
12664W        W32944  14.736   7.946  14.746 -0.1651 -0.2042  0.0664
12665W        W32945   4.268   1.755   3.292 -0.2299  0.2521 -0.1896
12666W        W32946   7.931  15.645   1.984 -0.0991 -0.0970 -0.0971
12667W        W32947  12.816  15.200   0.843 -0.0512 -0.0018 -0.0741
12668W        W32948   4.068   8.032   2.361  0.3066 -0.1000 -0.0898
12669W        W32949  17.613  17.277   2.998  0.3719  0.1155 -0.0221
12670W        W32950  16.280   4.067  13.572 -0.5549  0.2502  0.1473
12671W        W32951   4.513   7.505   3.223 -0.0291  0.0750 -0.1334
12672W        W32952  12.955   0.964   3.806 -0.0548  0.0675  0.1992
12673W        W32953   0.673   9.273  14.224  0.2326  0.1408 -0.0199
12674W        W32954  16.588  12.244   4.222 -0.1788  0.2388 -0.0254
12675W        W32955  11.436   0.411  14.019 -0.0573  0.0308  0.3136
12676W        W32956   2.373   9.779  13.542 -0.1096 -0.0734  0.0691
12677W        W32957   3.322   4.746   0.843  0.0409 -0.0905  0.3974
12678W        W32958   6.377   6.219  11.155  0.0010  0.0964  0.2905
12679W        W32959  12.265   4.471   0.131  0.2035 -0.0559  0.1359
12680W        W32960  16.037  16.452   4.039  0.1176 -0.1868 -0.0420
12681W        W32961  18.044   9.011   2.195  0.0045  0.2459 -0.1203
12682W        W32962   3.864   2.002  11.200 -0.2998 -0.1351  0.2498
12683W        W32963  11.191   7.264  12.530 -0.1479 -0.1197  0.0477
12684W        W32964  16.693   3.270  13.299  0.0468 -0.0063  0.3246
12685W        W32965   4.603  17.686   5.000 -0.0289  0.1453  0.1674
12686W        W32966   2.624  14.522  15.181  0.0388 -0.0855 -0.1763
12687W        W32967  10.143   3.917   1.444 -0.1095 -0.3673 -0.0612
12688W        W32968  15.654   7.066  11.803 -0.0063 -0.0955  0.2700
12689W        W32969   9.965  12.205  12.239 -0.2043  0.4971  0.2028
12690W        W32970  15.651   2.342   4.122 -0.1636 -0.1781 -0.2191
12691W        W32971   1.932  12.972   2.680 -0.0420 -0.0463 -0.2478
12692W        W32972   7.588  12.356   4.562 -0.0921  0.1583  0.0212
12693W        W32973  13.227  14.357  13.990  0.0577  0.2450  0.2408
12694W        W32974  10.031   3.857  11.942 -0.1743  0.0298 -0.5026
12695W        W32975  15.068   1.120  11.659 -0.0803  0.2140  0.1687
12696W        W32976  14.920  10.502  11.842  0.1263 -0.3665  0.0613
12697W        W32977   6.942   2.383  11.736 -0.1917  0.0370 -0.1650
12698W        W32978  11.405   9.359   3.868 -0.2336  0.1319  0.2525
12699W        W32979   7.819   6.702  14.551  0.0353  0.2649 -0.1138
12700W        W32980  14.383   5.748  12.591  0.3669 -0.1368  0.1847
12701W        W32981   1.506   9.503  13.465  0.3191  0.0175 -0.2315
12702W        W32982  15.785  13.067  15.221  0.3972 -0.0010 -0.0192
12703W        W32983  14.608  15.275  11.936  0.1597  0.0637 -0.2322
12704W        W32984   8.572  17.993  12.914 -0.0840  0.0173  0.1258
12705W        W32985  11.561  12.500   1.225 -0.0103  0.0300 -0.3183
12706W        W32986   6.752  15.034  15.477  0.2448  0.0545  0.3100
12707W        W32987   7.417   0.866  14.546  0.0204 -0.1406 -0.2369
12708W        W32988  14.087   7.718   1.131  0.1431 -0.2909  0.1364
12709W        W32989  11.875   0.061  14.606 -0.3166  0.1104  0.0843
12710W        W32990   0.282  16.816  13.965 -0.0250 -0.2680  0.0499
12711W        W32991   9.255   1.878  12.861 -0.0280  0.3303  0.1051
12712W        W32992   2.750   5.591  13.876  0.2103  0.0434 -0.3509
12713W        W32993  18.324   1.798  14.339 -0.2579  0.3882  0.0362
12714W        W32994   1.577   3.575  13.867  0.1730 -0.3870 -0.1062
12715W        W32995   2.078   9.248  10.490  0.0184  0.0264 -0.1031
12716W        W32996  13.884   6.049   2.757 -0.1268 -0.2712 -0.0546
12717W        W32997   8.343   1.632  13.241  0.2850 -0.3908 -0.3004
12718W        W32998   9.796   1.420   2.476  0.1548 -0.0332 -0.1272
12719W        W32999   4.732  16.626   3.132 -0.1449  0.1456 -0.0382
12720W        W33000   3.714   8.804   3.438 -0.1646  0.0405  0.2051
12721W        W33001   8.100  18.215   1.781 -0.0155 -0.0272  0.2303
12722W        W33002  14.023  11.213  13.072  0.0809 -0.0936 -0.1154
12723W        W33003   9.871  10.777  12.106  0.0820  0.1125 -0.0656
12724W        W33004   0.486   8.549  14.389  0.1003 -0.1757 -0.0673
12725W        W33005  13.425   6.472  13.094 -0.3366 -0.0164  0.2775
12726W        W33006   5.816  10.964  13.015 -0.1799 -0.0381 -0.0743
12727W        W33007   7.631  10.721   2.331  0.3054  0.3025  0.0663
12728W        W33008   1.844  17.716   3.615 -0.0307 -0.1507 -0.1504
12729W        W33009  10.622   0.279  14.355 -0.1831 -0.3114  0.1462
12730W        W33010  14.746  16.623   2.403 -0.0582 -0.2517 -0.0287
12731W        W33011   8.815   4.199  14.719 -0.2027  0.0109  0.2220
12732W        W33012   7.025   2.508  14.667  0.0427  0.0608  0.1013
12733W        W33013   7.843   8.993  12.176  0.2297 -0.0166 -0.2100
12734W        W33014   9.681   7.557  15.721 -0.0937  0.3585  0.0519
12735W        W33015   5.112   2.207  13.270  0.0131  0.0511  0.0839
12736W        W33016   5.410  17.202  15.297 -0.2263  0.0833  0.0281
12737W        W33017   0.271   7.678  11.762 -0.1610 -0.1907 -0.0509
12738W        W33018   7.431  10.075   3.674 -0.0447 -0.4392 -0.1278
12739W        W33019   3.090   1.550  13.344  0.1612  0.0126 -0.0198
12740W        W33020  12.146  10.686  11.111 -0.0520 -0.0031 -0.0806
12741W        W33021   4.053   1.605  13.303 -0.3555 -0.4838 -0.0576
12742W        W33022   6.265   4.266  15.131  0.1860  0.1213 -0.3867
12743W        W33023  16.254   5.921  15.336 -0.1211 -0.1873  0.0701
12744W        W33024   1.693  11.788   3.465  0.1750 -0.0777 -0.0618
12745W        W33025  11.850   0.050   5.490  0.3908 -0.0834  0.1315
12746W        W33026   1.136   5.984   2.322  0.0429  0.3351 -0.0617
12747W        W33027   4.102  17.504   3.459  0.0940 -0.0685  0.0092
12748W        W33028  14.883  16.543   0.814  0.0077  0.0216 -0.0467
12749W        W33029   8.536  12.316   1.882 -0.1336 -0.0919 -0.0477
12750W        W33030  11.005  12.849  15.929 -0.0603 -0.0907 -0.0276
12751W        W33031   7.250   9.049  15.577 -0.0562  0.0092 -0.1630
12752W        W33032   3.387   4.499   0.426  0.1340  0.0601 -0.1528
12753W        W33033  13.002   1.801   1.952 -0.2159 -0.2137 -0.3978
12754W        W33034   3.747   7.145  12.605  0.3343 -0.2657  0.0501
12755W        W33035   7.778  13.810  15.673  0.2646 -0.3224  0.1171
12756W        W33036   6.589  13.473   1.197  0.4022 -0.0558  0.0501
12757W        W33037  10.682  12.307   3.535  0.2465  0.0154  0.1929
12758W        W33038   5.935   9.915   0.348 -0.2703  0.2879 -0.0329
12759W        W33039  11.256   3.311   2.067  0.2213 -0.3532  0.1141
12760W        W33040  10.530   1.791   0.804  0.3863 -0.0288 -0.1614
12761W        W33041  12.706   0.495   0.572  0.0985  0.1844  0.0931
12762W        W33042  16.101   1.219   0.258 -0.0249  0.0427 -0.0033
12763W        W33043   5.177   6.268  11.342 -0.0182 -0.1761  0.0366
12764W        W33044  10.927   3.789  12.118 -0.0234 -0.1643  0.1328
12765W        W33045   9.350  16.595   1.371 -0.0227  0.1810 -0.0804
12766W        W33046  13.676  18.217   1.270 -0.1811 -0.0635  0.0624
12767W        W33047   3.226  14.128  14.614  0.0918 -0.0888  0.0291
12768W        W33048   2.329   2.053   4.115 -0.3927  0.0108 -0.0247
12769W        W33049  16.191   3.259  15.687  0.4258  0.1043 -0.0812
12770W        W33050  13.596   0.536   2.816  0.0213 -0.0086  0.1612
12771W        W33051   4.699   9.405  11.380  0.0250 -0.0454  0.2408
12772W        W33052   9.786   0.107   2.680  0.2116  0.1536  0.0100
12773W        W33053  10.390  13.125   1.645 -0.0125  0.1072  0.0266
12774W        W33054  11.457   2.057  12.129 -0.1524 -0.1498  0.1365
12775W        W33055   3.412   0.347  10.966 -0.0368 -0.3094 -0.1975
12776W        W33056  10.046   6.536   0.640  0.0504  0.0856 -0.1621
12777W        W33057  17.482   3.942  13.631 -0.1269  0.1582 -0.5526
12778W        W33058   5.123  16.782   1.273 -0.0615  0.1218  0.0244
12779W        W33059  17.718  18.106   1.440 -0.1439  0.0696 -0.2707
12780W        W33060  11.387   6.827   2.166 -0.2189  0.2370  0.1441
12781W        W33061  18.256   8.710   2.533  0.1261  0.1120  0.1142
12782W        W33062   8.132   9.077   0.715  0.2630  0.2684  0.3373
12783W        W33063  16.597   9.707   3.201 -0.0903 -0.1625 -0.0096
12784W        W33064  12.747   8.543   1.978 -0.0780  0.1614 -0.4653
12785W        W33065  10.039   5.764   3.078 -0.0580 -0.3839  0.1339
12786W        W33066  11.359   1.335  13.260 -0.0723  0.0018 -0.0340
12787W        W33067   7.207   8.266   4.381 -0.1090  0.1040 -0.0795
12788W        W33068   8.596  17.616   4.659  0.1411  0.1535  0.0284
12789W        W33069  12.479   6.801  15.716 -0.0785 -0.1879  0.0185
12790W        W33070   5.674  11.203  14.262  0.0372  0.0030  0.1158
12791W        W33071  14.510  15.522   1.005 -0.1566 -0.0546  0.1404
12792W        W33072  14.329   4.264  14.790  0.0168  0.2130 -0.0205
12793W        W33073  17.497  13.375  10.550  0.1279 -0.1469 -0.3336
12794W        W33074  11.441  11.568   4.961 -0.1955 -0.0286  0.1446
12795W        W33075   1.086   0.118   4.968 -0.0418  0.1290  0.1377
12796W        W33076   6.939  10.453  12.396 -0.3190 -0.3019  0.2213
12797W        W33077   5.563  11.569   2.146 -0.0342 -0.0009  0.0940
12798W        W33078   1.856  10.838  15.346 -0.0891  0.1975 -0.0775
12799W        W33079   0.839   6.826  13.287  0.0021  0.2222 -0.3201
12800W        W33080   2.668  15.813  14.584 -0.2288 -0.1307  0.0954
12801W        W33081   9.158  12.162   2.657  0.1439  0.0686 -0.4283
12802W        W33082   4.119   6.302  14.762  0.0520  0.1468  0.2205
12803W        W33083   8.943   8.545  15.497  0.0724 -0.1879  0.1872
12804W        W33084  17.201   3.146  14.091  0.0611  0.0859  0.1330
12805W        W33085   2.669  12.806   3.999  0.1717 -0.4361 -0.2548
12806W        W33086   6.702  16.535  13.907  0.0994  0.2046 -0.1055
12807W        W33087  10.309  12.952  11.596  0.2440 -0.0363 -0.1337
12808W        W33088  15.851   1.017   0.712  0.0976 -0.0413 -0.2403
12809W        W33089   7.990   7.214  14.671  0.1398  0.3980  0.0232
12810W        W33090   6.973   6.835   1.918 -0.0795  0.2132  0.1285
12811W        W33091   4.004   2.847   0.910  0.3328  0.3621 -0.2156
12812W        W33092  15.525  13.682  13.442 -0.0255  0.0564  0.0199
12813W        W33093  11.650   9.974   3.021 -0.2185 -0.1954  0.3044
12814W        W33094  11.366   6.937  13.830 -0.0513 -0.0162  0.0551
12815W        W33095  11.731   2.510   5.447 -0.0595 -0.0790  0.0950
12816W        W33096   3.480  12.710   2.309 -0.2948  0.0198  0.0405
12817W        W33097  12.269   8.731  14.439  0.0249  0.2045  0.1452
12818W        W33098   0.755  16.468   3.961  0.0218  0.0824  0.0529
12819W        W33099   4.478  12.306  13.488 -0.1558 -0.1321 -0.3539
12820W        W33100   8.341  13.377  12.925 -0.4224  0.0822 -0.0819
12821W        W33101   9.827  16.846   4.394  0.1810  0.0749 -0.0331
12822W        W33102  13.185   8.545   1.611 -0.0141 -0.3224  0.0280
12823W        W33103   0.785  10.062  13.783 -0.1427  0.1935  0.2997
12824W        W33104  13.412  11.905   3.089 -0.2571 -0.0597  0.3580
12825W        W33105   3.379  10.306  13.093 -0.2930  0.3945 -0.0515
12826W        W33106  16.248  15.662   1.614  0.3661  0.1814  0.1457
12827W        W33107  16.033   8.600  13.183 -0.0052  0.2842  0.0996
12828W        W33108   1.953   5.962   2.636  0.1391  0.3232  0.0187
12829W        W33109   0.764  10.046  15.242 -0.1751 -0.0445  0.2596
12830W        W33110   6.533  12.178  14.060 -0.0794  0.0343 -0.0029
12831W        W33111   3.352  10.818  14.130 -0.1338 -0.0098 -0.1723
12832W        W33112  14.846   4.281  13.204  0.5289 -0.2136  0.1466
12833W        W33113   6.674   8.440   1.355  0.2342  0.0976 -0.0794
12834W        W33114   6.176  12.408  13.764 -0.2447  0.0038 -0.0051
12835W        W33115   8.672   9.721   1.797  0.0375 -0.1591  0.1225
12836W        W33116   9.029   9.846  13.120  0.1040  0.1246 -0.1891
12837W        W33117   2.136   4.906   0.872 -0.0658  0.0344 -0.2086
12838W        W33118  16.301  14.550   1.541  0.1149 -0.0795  0.1898
12839W        W33119  10.562   9.192  13.227 -0.2513  0.2656 -0.1716
12840W        W33120   6.207   4.338   3.521 -0.1705 -0.1726 -0.4466
12841W        W33121  12.772   4.157   3.434  0.1853  0.0305  0.0632
12842W        W33122   2.405  17.395  12.669 -0.1062 -0.0495  0.1039
12843W        W33123  13.794  10.987   0.734  0.2595 -0.0954  0.0020
12844W        W33124   8.116  10.004   2.895  0.3148 -0.2356  0.1741
12845W        W33125   0.266   2.023   5.975 -0.0816  0.0941  0.4542
12846W        W33126   5.674   4.053  13.360  0.2353 -0.2797 -0.0061
12847W        W33127  16.901  16.306  13.126  0.2171 -0.0967 -0.1351
12848W        W33128  12.805  18.280   3.687 -0.1200  0.0772 -0.1795
12849W        W33129  13.538  17.544   2.894  0.0256  0.0448  0.0125
12850W        W33130  14.601  15.966   1.268 -0.2853 -0.1419  0.2354
12851W        W33131  15.949   9.222  12.535  0.0229  0.0116 -0.1525
12852W        W33132  12.362   4.045  11.864 -0.0640 -0.1132 -0.0975
12853W        W33133  10.900  10.826  11.718 -0.1273  0.0617 -0.0074
12854W        W33134  11.680   7.172  15.642 -0.0382 -0.0898 -0.0760
12855W        W33135  10.029   8.690   4.301 -0.0974  0.1699 -0.0986
12856W        W33136   7.033   0.999   4.232  0.2285 -0.2577 -0.0522
12857W        W33137  10.900   0.394  13.901 -0.0130 -0.3241  0.1042
12858W        W33138   7.527  17.336   3.566 -0.4537  0.0041 -0.3664
12859W        W33139  12.048   2.826   2.500  0.1001  0.0561  0.1149
12860W        W33140   7.969  17.614   4.392 -0.4075  0.0632  0.0472
12861W        W33141   2.203  10.428   1.897 -0.1625 -0.2382 -0.0240
12862W        W33142  14.223   1.673  12.773 -0.1444 -0.1978 -0.0659
12863W        W33143   3.918   3.197  14.341 -0.2113 -0.1208  0.1586
12864W        W33144  18.299  14.690  15.611 -0.0858 -0.0116 -0.1027
12865W        W33145   6.081  14.092  15.418 -0.0068  0.0742  0.1881
12866W        W33146  10.072   4.386  11.354  0.0264 -0.1470 -0.4655
12867W        W33147  12.149   3.707  11.231  0.1014  0.2057 -0.4842
12868W        W33148   1.598   4.086  15.521 -0.1065 -0.0526 -0.1676
12869W        W33149  12.162   8.310   0.227 -0.1444  0.3801  0.1614
12870W        W33150  13.842  12.003   2.843 -0.3258  0.2489 -0.1904
12871W        W33151  10.614  16.099  14.546 -0.3925 -0.0395 -0.0436
12872W        W33152   6.126  15.492  14.426  0.0086  0.0381  0.0658
12873W        W33153  13.354  15.695  11.585 -0.4208  0.0276 -0.1650
12874W        W33154  14.596  12.133  15.506  0.0411  0.0568 -0.1380
12875W        W33155   0.074   3.004   0.025  0.1914  0.0031  0.2809
12876W        W33156  14.088   0.876  15.677 -0.2058  0.1387  0.1754
12877W        W33157  17.700  17.879   0.265  0.3349  0.2126 -0.0631
12878W        W33158   5.081  11.526   1.013  0.1300 -0.2095 -0.0872
12879W        W33159  13.508  11.825  14.261  0.2820  0.0241  0.0793
12880W        W33160  17.782   7.550   1.292 -0.0120  0.1891 -0.0276
12881W        W33161   0.996   1.890  12.304  0.0379  0.0613 -0.0050
12882W        W33162   8.659  10.794  15.316  0.1727 -0.1407  0.3002
12883W        W33163   1.498   2.232   3.685 -0.1920  0.1392  0.1148
12884W        W33164   6.926  13.097   1.059  0.5201  0.0529 -0.0172
12885W        W33165   6.456  12.971   2.726 -0.2166 -0.3589 -0.0677
12886W        W33166   8.705  10.965   4.768 -0.3121 -0.1278 -0.0621
12887W        W33167   1.424  13.983   1.034  0.0514 -0.2867  0.0689
12888W        W33168  13.042  11.385  15.071  0.0769 -0.0804  0.5177
12889W        W33169   9.583   9.577  14.582 -0.0423 -0.3251 -0.0418
12890W        W33170   4.724  10.290  13.419  0.2115  0.4543  0.3376
12891W        W33171  17.104   9.040  12.955 -0.1102  0.1976  0.1156
12892W        W33172  15.146  11.816   2.824  0.2582 -0.1651 -0.1487
12893W        W33173  18.130   9.198  13.744 -0.0535  0.5156 -0.0227
12894W        W33174  16.584   7.383  13.739  0.3731 -0.1193  0.1004
12895W        W33175   3.980   1.272  13.690  0.2716 -0.0382  0.0046
12896W        W33176  10.458  10.846   1.729  0.0625  0.0165 -0.0386
12897W        W33177  12.376   1.025   0.594 -0.0503  0.0623  0.1572
12898W        W33178  14.615   0.701  15.663  0.0718  0.1065  0.1822
12899W        W33179   4.993  13.155   1.516  0.0244  0.0736 -0.1596
12900W        W33180   2.198   0.234   0.743 -0.0103  0.0686 -0.2327
12901W        W33181  12.959  13.428  14.047  0.2099 -0.0793  0.0257
12902W        W33182   2.243  10.192  13.821  0.1960 -0.0420 -0.0914
12903W        W33183   3.614   7.307   3.221  0.1229  0.0888 -0.0422
12904W        W33184  17.885  13.585  12.966  0.0139  0.0002  0.1011
12905W        W33185  12.800   4.831  14.179 -0.0852 -0.0626  0.2538
12906W        W33186   5.195  15.529  15.311 -0.1470  0.1788  0.0562
12907W        W33187  17.757  16.244  13.800  0.2881  0.1280 -0.1994
12908W        W33188   5.148  17.619  14.207 -0.0363 -0.0263  0.0062
12909W        W33189   8.850  16.784  12.775  0.0177  0.2566  0.1851
12910W        W33190  10.742   8.148  15.674 -0.0184 -0.0027 -0.0740
12911W        W33191  15.841   2.816   2.940  0.0899  0.0708 -0.1554
12912W        W33192   2.323  11.037  13.054 -0.1129  0.0987 -0.0014
12913W        W33193   0.813  18.312  12.984 -0.0396 -0.1945  0.2838
12914W        W33194  15.060  12.319   2.639  0.1483 -0.0681  0.0257
12915W        W33195  15.870  10.081  15.909 -0.2864  0.1346 -0.2028
12916W        W33196  13.617   6.280   0.054 -0.1862  0.2548 -0.2581
12917W        W33197   3.237  17.605  11.636 -0.1725 -0.1017 -0.1995
12918W        W33198  13.083   0.090  12.316  0.3161 -0.3613 -0.0306
12919W        W33199  15.203   2.351   2.507  0.1391 -0.0608 -0.0744
12920W        W33200   6.788   6.835  13.288  0.1723 -0.0789  0.1188
12921W        W33201  14.162   1.387  14.498  0.2452 -0.0440  0.1271
12922W        W33202   3.029   1.889  14.564 -0.2881  0.0555 -0.0657
12923W        W33203   0.019   7.085  15.523 -0.1235  0.1176 -0.0395
12924W        W33204  11.420   1.269   3.111  0.3289 -0.1779  0.1320
12925W        W33205   4.621  12.657   3.425 -0.0818 -0.3658  0.1989
12926W        W33206  17.838  17.508  14.799 -0.0112  0.1291 -0.0031
12927W        W33207   5.692   3.218  15.828  0.2491  0.0659  0.2269
12928W        W33208  13.698   4.868   0.637  0.4911 -0.0768  0.0890
12929W        W33209   8.905  13.435   3.657 -0.1334  0.1662 -0.0908
12930W        W33210   3.224  17.336  13.850 -0.0676  0.0399  0.0861
12931W        W33211  12.073  17.188  14.128  0.0655 -0.0591  0.1414
12932W        W33212  12.838   7.851  11.787  0.1561 -0.4076  0.0702
12933W        W33213   1.263   3.260   3.787 -0.3400 -0.0761 -0.0664
12934W        W33214   3.274   7.587  12.158  0.3443 -0.3296  0.2737
12935W        W33215  15.560   2.749   2.520  0.2846 -0.1715  0.0542
12936W        W33216   9.809   0.907   1.622 -0.0851 -0.0515  0.0304
12937W        W33217   8.260   5.827  15.782  0.2245  0.1871  0.4205
12938W        W33218   6.186   0.155  13.789 -0.1402 -0.2269  0.2159
12939W        W33219   8.827   0.436   1.231 -0.0858  0.0148  0.0668
12940W        W33220  15.687   1.837   1.061  0.2553 -0.0503  0.1001
12941W        W33221   1.678   2.017  12.104  0.1228  0.1916  0.2708
12942W        W33222   3.395   3.238   3.581  0.0829 -0.0665  0.3714
12943W        W33223   3.197   8.935   1.965  0.2700  0.0409 -0.0994
12944W        W33224   6.435  13.400  12.623 -0.2798 -0.2903 -0.0193
12945W        W33225   3.528   6.563  12.177 -0.1307  0.2017 -0.1270
12946W        W33226   2.360   4.785  15.081 -0.0860 -0.1350 -0.0820
12947W        W33227  14.292   3.248  14.480  0.0933  0.0166  0.0735
12948W        W33228   8.104  11.843   3.634 -0.1171  0.0880 -0.0247
12949W        W33229   9.026  10.217  14.777 -0.2266 -0.1228  0.1388
12950W        W33230  16.945   4.643  15.415 -0.1986 -0.0691  0.2011
12951W        W33231  17.696  11.575   4.074  0.0968 -0.1219  0.0984
12952W        W33232   5.106   4.757   3.212  0.0710  0.1935  0.1438
12953W        W33233   1.333   5.800  12.478 -0.0295 -0.2216 -0.1402
12954W        W33234  10.500   2.273  13.364 -0.3097  0.1824  0.1095
12955W        W33235   0.487  14.208  15.072  0.1828  0.1287 -0.1263
12956W        W33236   4.878   5.622  13.624 -0.2130 -0.0711 -0.3395
12957W        W33237  10.850   3.375   1.665 -0.0174  0.0867 -0.0487
12958W        W33238   7.442  16.558   1.142  0.0389 -0.2000  0.2463
12959W        W33239   0.560   0.258   3.234 -0.3190  0.0076  0.0666
12960W        W33240   4.813   9.759  14.296 -0.0566 -0.2466 -0.3313
12961W        W33241   5.974   6.881   3.490 -0.0858  0.1042  0.0357
12962W        W33242  10.718  10.223   4.960 -0.1994 -0.0473  0.2796
12963W        W33243   8.695  12.735   2.260  0.2112  0.0952 -0.1199
12964W        W33244   7.127   3.668  14.493 -0.1037 -0.0114  0.0542
12965W        W33245   3.158  14.840  14.333 -0.1189 -0.2832  0.1880
12966W        W33246   7.853   7.921   3.103  0.0258  0.0452  0.1716
12967W        W33247   9.854   9.220  15.386 -0.0635  0.0714  0.1045
12968W        W33248  14.392  17.658  15.810 -0.0468 -0.1726 -0.0503
12969W        W33249   2.073   6.889   0.673 -0.2677 -0.0369  0.0328
12970W        W33250  13.843   0.382  13.313 -0.1146 -0.1522  0.1066
12971W        W33251  12.134  16.922   2.307  0.2210 -0.1088  0.1824
12972W        W33252   6.309   1.565   0.145 -0.1447 -0.1135 -0.0557
12973W        W33253   0.259  11.015   0.314  0.4159 -0.0987 -0.2148
12974W        W33254  12.398   9.828  13.226 -0.1401 -0.1464 -0.1160
12975W        W33255   8.731  11.735   4.420 -0.1301 -0.0680  0.0616
12976W        W33256   8.757  16.390   4.419  0.0535 -0.1546 -0.3763
12977W        W33257  13.181   6.025   3.493  0.0117  0.0544  0.0932
12978W        W33258   7.174   2.568  13.334 -0.0855 -0.1628  0.0874
12979W        W33259   5.446  15.962  14.464 -0.1745  0.1330 -0.1335
12980W        W33260   2.321  11.343  12.089 -0.0800 -0.0393 -0.0502
12981W        W33261  10.847   9.089  10.892  0.2017 -0.1699  0.1688
12982W        W33262   8.444  11.922   4.761  0.0821  0.1938 -0.2786
12983W        W33263  14.498  12.595   4.045  0.1920 -0.2446 -0.2949
12984W        W33264   2.480   9.464   3.738 -0.0876  0.1428  0.0053
12985W        W33265   9.432   1.314  14.476 -0.0405  0.0041  0.1208
12986W        W33266  12.463   9.449   0.646  0.2223 -0.0468 -0.1856
12987W        W33267   1.619   5.379  15.798  0.0491  0.1031 -0.1822
12988W        W33268  12.101  16.637   1.152  0.2380 -0.0666 -0.3230
12989W        W33269   1.415   1.970   4.567 -0.4444 -0.1233  0.0744
12990W        W33270   0.973  12.738   0.336  0.2273  0.0338 -0.0731
12991W        W33271   9.980  18.045  11.857 -0.0066  0.0344  0.2277
12992W        W33272   9.547  14.226   1.908 -0.1937 -0.1042 -0.0376
12993W        W33273   8.504   9.170  11.380  0.0703  0.0471  0.1287
12994W        W33274   6.659   0.439   0.114 -0.1353  0.0065 -0.1555
12995W        W33275  13.049  17.436  15.044 -0.1502  0.1016 -0.0572
12996W        W33276   4.685  16.257  12.127 -0.0293 -0.1336 -0.0720
12997W        W33277   5.796   8.877  12.772 -0.1563 -0.2821  0.0596
12998W        W33278   9.908   5.450  15.274  0.1359 -0.0537 -0.0916
12999W        W33279   7.128   2.996   3.805  0.1465 -0.0213  0.0935
13000W        W33280  15.216   9.137  13.723  0.3903  0.1633  0.0559
13001W        W33281  14.479   3.853   1.078  0.1255 -0.2872  0.0755
13002W        W33282   5.932   6.917   2.105  0.1424 -0.0722 -0.0481
13003W        W33283   5.016   6.168   0.450  0.0633 -0.0319 -0.0692
13004W        W33284   6.538   5.806   0.785  0.0387 -0.0525  0.2249
13005W        W33285  18.170   0.533  12.309  0.2845  0.3508  0.2287
13006W        W33286   1.654   7.882  15.110 -0.0539  0.0310  0.0148
13007W        W33287   4.985  10.771  15.649  0.0928  0.1760 -0.1881
13008W        W33288   2.858   8.439   0.952 -0.0906  0.3080  0.1835
13009W        W33289   4.622   7.385   1.766 -0.3183  0.2869  0.0382
13010W        W33290  12.878   4.376  11.603 -0.4145 -0.1141 -0.1324
13011W        W33291  13.001   0.447   3.635  0.0636 -0.1661 -0.1561
13012W        W33292  16.207  14.021  15.244  0.1683  0.0178  0.0160
13013W        W33293   4.077  11.866  15.502  0.0347 -0.1508 -0.2204
13014W        W33294   4.170   6.172   3.212 -0.0435 -0.0547 -0.0013
13015W        W33295   1.781  18.270  11.999 -0.2393  0.0794 -0.0497
13016W        W33296  15.796  10.364  12.957 -0.0046  0.2536  0.2491
13017W        W33297  13.276   4.843   2.130  0.1429 -0.0259  0.1691
13018W        W33298   9.171   3.685  15.409 -0.3137  0.1186 -0.1151
13019W        W33299   8.855   4.696  15.427  0.1794  0.1429  0.1678
13020W        W33300  16.472  16.070  13.270  0.3710  0.0746  0.2449
13021W        W33301  17.895   7.285  13.856  0.2031  0.0205  0.0919
13022W        W33302   8.605   3.713  13.319  0.0392 -0.1181 -0.0524
13023W        W33303   4.367   0.673  12.190 -0.1465 -0.4879  0.4505
13024W        W33304  17.957   3.536   0.613 -0.0119  0.2201 -0.1832
13025W        W33305   6.533  18.216   4.183 -0.0350  0.0599  0.1115
13026W        W33306  16.944   2.911   2.995 -0.2181  0.2742 -0.2992
13027W        W33307   8.218  17.397   1.907 -0.2774  0.0340 -0.1409
13028W        W33308   7.584  14.009   1.488  0.0561  0.0970 -0.2474
13029W        W33309   8.239  16.482  12.610  0.0559 -0.0093 -0.0267
13030W        W33310  16.636   0.337   3.089 -0.0902 -0.2623 -0.1304
13031W        W33311  18.170  12.367  13.675 -0.0792 -0.0817  0.2845
13032W        W33312   4.478   1.745  11.854 -0.1646 -0.0904  0.0710
13033W        W33313   6.856  16.961   1.479  0.0788 -0.0882  0.2398
13034W        W33314  13.904   9.303   2.242 -0.0031 -0.0877  0.3069
13035W        W33315  10.975   8.174  13.031 -0.0331 -0.4263  0.2835
13036W        W33316  12.470   2.904  15.233 -0.2365 -0.2401 -0.0384
13037W        W33317   9.713  12.982   3.220 -0.1018  0.2491 -0.2621
13038W        W33318   0.146   9.129  15.031 -0.5368  0.1225  0.1296
13039W        W33319   3.313   5.458   4.257 -0.0341  0.0588 -0.0114
13040W        W33320   6.626   2.518   2.375 -0.0166  0.1241  0.0373
13041W        W33321   0.104   9.878  14.335  0.0751  0.0068 -0.2338
13042W        W33322  16.874  13.987  14.262  0.0232 -0.0215  0.0812
13043W        W33323  11.006   3.716   1.998  0.2190  0.1385  0.1150
13044W        W33324   9.497   7.816  11.622 -0.2137 -0.1647  0.0297
13045W        W33325  14.256  14.251  11.499 -0.2149 -0.0821  0.1076
13046W        W33326  18.176  11.709   3.982  0.2711 -0.0504  0.1783
13047W        W33327  11.073  17.474   1.424 -0.1034  0.0625 -0.0841
13048W        W33328   4.914   4.327  12.604 -0.1013 -0.1504  0.1049
13049W        W33329   7.703   0.428   3.261 -0.3241  0.1780 -0.1271
13050W        W33330   5.414   4.692  12.079 -0.1537  0.1287 -0.1278
13051W        W33331  11.704   6.620  13.539  0.1092  0.0384 -0.2619
13052W        W33332   8.699   9.265   1.607 -0.0840 -0.1423 -0.2092
13053W        W33333   1.206   0.077   2.856 -0.2915  0.1914 -0.2117
13054W        W33334  13.442   0.549  14.137  0.2168 -0.2387  0.1856
13055W        W33335   4.983  17.243   3.372  0.1012 -0.0362  0.2183
13056W        W33336   3.711   7.980   0.520  0.1243  0.1141  0.2942
13057W        W33337   1.802   2.558   4.145  0.3570  0.0726  0.0544
13058W        W33338  10.661   2.156  11.697 -0.0832  0.0003 -0.0870
13059W        W33339   5.188   1.732   1.115 -0.0834 -0.0638  0.2147
13060W        W33340   9.828   4.607  11.907  0.4673 -0.1631 -0.0400
13061W        W33341  11.618   2.352  15.146 -0.1933 -0.1467 -0.1332
13062W        W33342   4.562  10.656  11.955 -0.0352 -0.2657 -0.0354
13063W        W33343   0.832   5.187   1.794  0.0128 -0.0574 -0.2254
13064W        W33344   7.303   2.941   0.681  0.0619 -0.1378  0.1420
13065W        W33345   1.518  15.914   5.342  0.0609  0.2919  0.1636
13066W        W33346  11.993  16.242  13.109 -0.1200 -0.2238  0.0466
13067W        W33347   2.946  10.585  13.453 -0.1713 -0.2146  0.0328
13068W        W33348  15.977   8.368  15.197  0.1945 -0.0796 -0.4340
13069W        W33349   8.883   6.382   1.526  0.2198 -0.0055 -0.1261
13070W        W33350   3.306  17.592   1.059 -0.0288  0.1628  0.0797
13071W        W33351   4.278  10.827   2.420  0.1537 -0.1320 -0.0319
13072W        W33352   0.379   7.673  14.604  0.2126  0.1576 -0.0132
13073W        W33353   2.999   9.543  14.687 -0.2934  0.0679 -0.1408
13074W        W33354   4.121  14.290  15.311 -0.2918  0.2356 -0.1536
13075W        W33355  14.856   1.553  11.511  0.1991 -0.1237 -0.2474
13076W        W33356   6.740   9.299  13.103  0.1396  0.0615 -0.1819
13077W        W33357   7.397   4.931   3.480  0.1526 -0.2157  0.4596
13078W        W33358  16.671  15.482  12.629  0.0134  0.3225  0.2515
13079W        W33359  12.069   7.411  11.643 -0.4169  0.0721  0.1938
13080W        W33360   1.896   9.309   3.785  0.0986 -0.1666 -0.1378
13081W        W33361   4.066   9.989  15.669 -0.0010  0.2085 -0.0191
13082W        W33362   6.724   5.799  10.630 -0.0378  0.0873 -0.1497
13083W        W33363   7.592   7.299  13.973  0.3164  0.0714  0.0807
13084W        W33364   5.252   7.822  11.737  0.1498  0.2060 -0.0438
13085W        W33365  11.397  14.003  12.746 -0.1827  0.0340 -0.1669
13086W        W33366   7.533   4.278   0.203  0.2621 -0.1720  0.0421
13087W        W33367   7.488   4.156  11.599  0.3514  0.1583 -0.0845
13088W        W33368  11.772   4.607  15.736 -0.0188  0.0650 -0.0281
13089W        W33369  10.071  18.336  11.415 -0.3121 -0.0470 -0.2347
13090W        W33370   4.183  10.397   0.134 -0.0001 -0.1510 -0.1132
13091W        W33371   3.664  17.933  12.755 -0.3548  0.2405  0.1219
13092W        W33372   0.384   5.435  14.174  0.0045 -0.0559 -0.2908
13093W        W33373   3.139  17.330   2.850  0.3598  0.1860 -0.1806
13094W        W33374   3.631  13.620  15.396 -0.1141  0.2008  0.2234
13095W        W33375   6.263   1.519  13.582 -0.0162 -0.0018  0.1356
13096W        W33376   5.304   8.266  14.949  0.0856  0.1048  0.0625
13097W        W33377   1.389   9.476  15.881 -0.1733  0.1092  0.3688
13098W        W33378  18.152  17.651   4.054 -0.0111 -0.1081  0.0323
13099W        W33379  15.346   5.378  15.657 -0.1700  0.0243  0.0545
13100W        W33380   0.244  16.436   2.488 -0.1533 -0.0610  0.1568
13101W        W33381  12.971  18.167   2.735  0.1899 -0.1007  0.0204
13102W        W33382  17.523  12.873  12.235 -0.1487  0.1217 -0.1595
13103W        W33383   8.880   2.619  13.753 -0.0424  0.1091  0.0040
13104W        W33384  15.129   5.910   3.954 -0.2026 -0.2341  0.1628
13105W        W33385  10.834   0.738   3.740 -0.4393  0.2991 -0.1447
13106W        W33386  17.870  11.775  15.852  0.0552  0.0477  0.0267
13107W        W33387  14.910  18.275  11.570  0.1079  0.2633 -0.0570
13108W        W33388   2.742  11.145  11.814 -0.0596  0.0622 -0.0037
13109W        W33389   1.339   3.000  15.274  0.1954 -0.1833 -0.3399
13110W        W33390   2.183  10.259   0.600 -0.0485  0.1582  0.0367
13111W        W33391   2.829  16.686   3.833 -0.0905 -0.0340 -0.0756
13112W        W33392   2.135   4.979   2.508 -0.1332  0.1680  0.1307
13113W        W33393   6.236   0.436   0.533  0.2229  0.2310  0.0338
13114W        W33394   1.129   1.342   3.263  0.1460 -0.1230  0.0854
13115W        W33395   7.753   4.843  15.744 -0.2853 -0.0517 -0.0653
13116W        W33396  10.453  11.256   1.050 -0.1062  0.1145  0.0721
13117W        W33397  16.450   0.492   4.058 -0.1560  0.1133 -0.0999
13118W        W33398   2.993  11.787  12.857  0.0780  0.0873  0.0314
13119W        W33399  14.291  14.727   3.234  0.0076 -0.1166 -0.2154
13120W        W33400  17.335  14.761   1.315  0.1018 -0.1765 -0.1415
13121W        W33401   0.875   7.092  12.858  0.0740  0.0208 -0.0151
13122W        W33402   3.609   0.394   2.239  0.2126 -0.2205  0.0090
13123W        W33403   7.298   2.277  15.854  0.2573  0.0791 -0.0482
13124W        W33404  11.461  13.427   4.497 -0.0273  0.0032  0.0993
13125W        W33405  18.328   2.451   3.660  0.0918 -0.0735  0.0939
13126W        W33406   7.797   7.350  15.917 -0.0659 -0.0090 -0.0390
13127W        W33407   4.808   9.885   1.468  0.2416  0.2112  0.2329
13128W        W33408   2.303   1.583   0.267  0.1762  0.0441 -0.1848
13129W        W33409  10.580   9.621  14.795  0.1371 -0.1221  0.4619
13130W        W33410   0.449   7.423   3.470 -0.3670  0.0221  0.2903
13131W        W33411   4.667  16.674  11.421  0.2776 -0.1418 -0.1245
13132W        W33412  10.872   5.281  10.769 -0.1734 -0.2743  0.0118
13133W        W33413   6.837  10.503  13.705 -0.0887  0.2414  0.0314
13134W        W33414  10.053   4.941  14.679  0.2177  0.0862 -0.0121
13135W        W33415  10.740  11.855  13.420  0.0970  0.1420  0.0781
13136W        W33416  14.210   7.503   4.565  0.0124 -0.4908  0.1954
13137W        W33417   2.943  12.278  13.578 -0.2349 -0.1657  0.1867
13138W        W33418   4.824  12.517   2.130  0.2156 -0.0316 -0.4416
13139W        W33419  14.674   6.934  15.510 -0.0394  0.0094 -0.1060
13140W        W33420   4.293  14.510  13.599  0.2242  0.0297 -0.3270
13141W        W33421  12.838   5.998   0.635  0.1010  0.1631 -0.1376
13142W        W33422  14.603   8.268   1.765  0.2504  0.2639  0.2095
13143W        W33423  12.794  18.321  15.120 -0.2430 -0.0049 -0.0068
13144W        W33424   0.447  10.258   3.844  0.2232 -0.0188 -0.2626
13145W        W33425   2.470   5.050   0.487  0.0050  0.0379  0.0824
13146W        W33426  10.628   7.479   0.438 -0.0102  0.0234 -0.4653
13147W        W33427   5.604   2.411  11.466 -0.2998 -0.1525  0.0399
13148W        W33428   9.965  14.333   4.282 -0.3420  0.0581  0.1811
13149W        W33429   9.163   1.076  14.140  0.1659  0.0485  0.0558
13150W        W33430  12.730   6.455   2.523 -0.1800  0.1024 -0.0606
13151W        W33431   7.312  12.757  15.866 -0.3173 -0.1199 -0.2018
13152W        W33432   5.916   2.744   0.483  0.0475 -0.1848  0.0606
13153W        W33433  16.179   8.875  14.956  0.0073  0.1547  0.0453
13154W        W33434   1.262   5.623   3.094 -0.0415 -0.2917 -0.0484
13155W        W33435   6.389  14.591   0.320  0.1028  0.0949 -0.1429
13156W        W33436   6.845   8.953   2.544  0.0672  0.1709 -0.0060
13157W        W33437  13.964  15.816  12.725  0.1077  0.2396  0.0357
13158W        W33438   2.676   9.053   2.030 -0.0652  0.0605 -0.0065
13159W        W33439   3.848   5.021  12.857 -0.0626  0.0378 -0.0935
13160W        W33440  13.626   1.022   1.345  0.2159 -0.1025  0.0326
13161W        W33441  15.732   4.577   2.981 -0.0296  0.0635 -0.0851
13162W        W33442   9.842   5.126   0.335  0.1167 -0.2094 -0.1235
13163W        W33443   1.146   4.289   3.710  0.1722  0.2168  0.0590
13164W        W33444  17.584   9.383   3.528  0.1360  0.0125  0.1619
13165W        W33445   0.344  13.557   3.728  0.0236  0.0354  0.1124
13166W        W33446  16.012  18.291   0.011  0.0641 -0.2884  0.0968
13167W        W33447   2.424   6.275   1.301  0.1001  0.0326  0.1123
13168W        W33448  17.993   5.513  13.532  0.3218  0.1544  0.1100
13169W        W33449  14.465   3.423   4.304 -0.2630 -0.0950  0.0507
13170W        W33450   8.945   5.175  12.745  0.1695 -0.0725 -0.1369
13171W        W33451  14.180   4.259   3.801  0.1446  0.1379  0.2420
13172W        W33452   9.373   6.589  15.794 -0.1659 -0.1446  0.2798
13173W        W33453   5.404   6.094  12.196  0.0026  0.0426 -0.2781
13174W        W33454  16.544  16.926   1.647  0.1453  0.1698  0.1033
13175W        W33455  10.429  15.175   4.031  0.1728  0.0902  0.0818
13176W        W33456  17.950   6.106   0.747  0.0186  0.2283  0.2324
13177W        W33457  16.568  12.093  13.684  0.1927 -0.0834  0.2254
13178W        W33458  10.375   9.587   1.062 -0.2001  0.0328  0.3150
13179W        W33459  14.608   1.201  14.411 -0.0836  0.0244 -0.0863
13180W        W33460  15.017   8.148   0.993 -0.0706 -0.0033 -0.4681
13181W        W33461   5.679  11.767  12.363  0.1506  0.0418 -0.2982
13182W        W33462   1.526   4.525   2.917 -0.2673  0.0127  0.0669
13183W        W33463   1.574   2.630  13.896  0.0636  0.3003  0.3889
13184W        W33464  17.466  10.654   4.468  0.0043 -0.0860  0.1020
13185W        W33465   4.152   7.247   3.910  0.3328  0.1717 -0.1737
13186W        W33466  11.845  13.891   2.575  0.3995  0.2468 -0.0806
13187W        W33467  12.539   2.870   5.307 -0.1759 -0.3990  0.1774
13188W        W33468   3.604   6.276   1.725  0.0377  0.0618 -0.0291
13189W        W33469  15.016  11.598  12.536 -0.2502 -0.0681 -0.1392
13190W        W33470   7.229   1.266  11.984 -0.1191  0.1154  0.0885
13191W        W33471   3.803  14.633  15.886  0.0518 -0.1176  0.1673
13192W        W33472  12.878  17.047   4.139 -0.0032 -0.0979 -0.0645
13193W        W33473  12.068  13.520   4.653 -0.0173  0.1262  0.3192
13194W        W33474  10.294  13.502  12.057  0.1195 -0.0261 -0.3221
13195W        W33475  10.832  11.386  15.925  0.1539 -0.0875 -0.0400
13196W        W33476   0.472   7.791   0.018 -0.0069 -0.1957  0.2036
13197W        W33477  13.818  13.757  15.567  0.0245 -0.0320  0.0937
13198W        W33478  10.712   4.366  15.609 -0.3386 -0.0572 -0.1859
13199W        W33479  17.242   7.385   3.527 -0.0408 -0.1402 -0.1232
13200W        W33480  13.291   7.798   5.021 -0.0293  0.1284  0.1063
13201W        W33481   4.118   8.968  14.792  0.0159  0.0812 -0.1533
13202W        W33482   2.425   2.904  12.761  0.1000  0.2987 -0.1654
13203W        W33483   3.651   4.104  13.899 -0.0622  0.1230 -0.1438
13204W        W33484   6.631  14.186   2.734  0.6030 -0.5221 -0.2517
13205W        W33485   6.162  10.417   1.814  0.1824  0.3130 -0.3466
13206W        W33486   1.061  16.043  15.012 -0.3073 -0.1743 -0.3578
13207W        W33487   6.825  15.785   1.840 -0.2077 -0.0667 -0.3500
13208W        W33488  11.027   9.572  10.894  0.0471  0.1183 -0.0943
13209W        W33489  11.577  15.001  15.226  0.0793 -0.1754  0.2070
13210W        W33490  15.172   6.663   3.976  0.1078  0.0386  0.0237
13211W        W33491   2.533   1.581   2.011  0.3002 -0.1435 -0.0346
13212W        W33492   4.082   7.177   3.335  0.1073  0.3692  0.1226
13213W        W33493  12.402   3.043   3.829 -0.1229 -0.2409 -0.0587
13214W        W33494   5.639   5.638  11.331  0.1100  0.1924  0.1226
13215W        W33495   9.316  11.433  15.057 -0.0810  0.1535 -0.2584
13216W        W33496   2.392  15.419  14.310 -0.1671 -0.3530  0.0520
13217W        W33497  11.903  13.365   2.453 -0.0942 -0.1838 -0.1641
13218W        W33498   8.221   3.208   1.508  0.0557  0.0331 -0.1750
13219W        W33499   1.571   4.016   3.685 -0.2417 -0.0524 -0.2805
13220W        W33500  10.271   0.833   5.232  0.2675  0.2203  0.0315
13221W        W33501  10.172  17.130   1.516  0.0347  0.1333  0.0121
13222W        W33502   2.702  15.613   0.642  0.0694 -0.1492  0.3510
13223W        W33503  10.873   1.258  14.119  0.1294 -0.3208 -0.3204
13224W        W33504  13.494   3.483   2.090  0.0611 -0.0317  0.0678
13225W        W33505   2.126  15.030  14.513 -0.0268 -0.1121  0.1405
13226W        W33506   6.719  12.921  14.747 -0.0898 -0.1064  0.0876
13227W        W33507  16.494   8.497  15.209 -0.0048 -0.1510  0.4120
13228W        W33508  12.322   3.787  12.734  0.1184  0.0152  0.3546
13229W        W33509  15.003  15.113   0.037 -0.4282  0.1925  0.1638
13230W        W33510  13.443  11.169  13.532  0.0035  0.2172 -0.1798
13231W        W33511   6.250  17.146   0.726  0.0870 -0.0053  0.1288
13232W        W33512  14.425  18.265  14.863 -0.3134 -0.2157  0.0695
13233W        W33513   5.720  10.638   3.772  0.0651  0.1709 -0.4284
13234W        W33514  17.350   0.380  13.193 -0.2509 -0.2347  0.3878
13235W        W33515  17.513   8.822  13.121  0.0973 -0.1779  0.3158
13236W        W33516   6.232  11.945   4.007 -0.2221  0.0940 -0.0964
13237W        W33517   8.494   3.921   2.072 -0.2831  0.1538  0.4598
13238W        W33518  11.377  17.140   1.576  0.2482 -0.1479  0.1198
13239W        W33519  12.733   5.937  12.384  0.2585 -0.0412  0.0286
13240W        W33520   1.809   7.708  15.545  0.0399 -0.2231 -0.1148
13241W        W33521   7.979   2.970  15.724 -0.1993 -0.2243  0.0554
13242W        W33522   4.777  13.018   4.113  0.1675 -0.4365 -0.0112
13243W        W33523   0.544  13.759   0.991  0.1433 -0.1146  0.1440
13244W        W33524   9.588   8.366   3.551  0.3368 -0.0602 -0.0365
13245W        W33525   1.790   4.885   1.470 -0.4881  0.1433 -0.0099
13246W        W33526   9.973   8.274   2.588  0.2313  0.0073  0.0132
13247W        W33527   0.869   3.972   4.298 -0.1863  0.0791 -0.0865
13248W        W33528  13.509  11.118   3.427 -0.1610 -0.2781  0.1381
13249W        W33529   6.996  16.613   0.243  0.2111 -0.2939  0.1338
13250W        W33530  16.520  13.362   3.714 -0.3094  0.1790  0.0733
13251W        W33531  11.644   5.260  12.631 -0.1116 -0.2381  0.0579
13252W        W33532  15.627   8.930   3.072  0.1024 -0.2260 -0.1719
13253W        W33533  17.773  12.916   3.001 -0.1808 -0.1311  0.0583
13254W        W33534  17.591  13.433   4.254  0.0848  0.4721 -0.2227
13255W        W33535   2.159   0.142  15.367 -0.0339 -0.1591  0.0323
13256W        W33536  10.410  17.436  13.896 -0.2295  0.0080 -0.2928
13257W        W33537  14.019  18.216   3.778 -0.3142 -0.1882  0.0731
13258W        W33538   3.323  16.427  15.727 -0.0167 -0.0332  0.1062
13259W        W33539   8.873  16.486   1.192 -0.0459 -0.0821  0.3678
13260W        W33540   9.416   1.061   0.304 -0.0511 -0.0022  0.0238
13261W        W33541   4.105   4.530  14.591  0.0729  0.0803 -0.0294
13262W        W33542   0.618   5.464  12.024  0.0938  0.1143  0.0591
13263W        W33543  16.419  17.709  15.401 -0.2429  0.1805  0.1800
13264W        W33544   4.201   8.417  12.772 -0.3557 -0.0193 -0.0136
13265W        W33545   8.677  15.145   3.436 -0.1064  0.2361 -0.0019
13266W        W33546  11.654  17.936  14.601  0.3436 -0.0335  0.1711
13267W        W33547  14.691   3.600  15.364 -0.1586 -0.0243  0.0815
13268W        W33548  15.467   1.234  15.442 -0.1573 -0.1930  0.1800
13269W        W33549  12.087  10.412   0.393  0.1228 -0.2217  0.1680
13270W        W33550  14.219   3.939  15.129  0.0181  0.2960 -0.1019
13271W        W33551  18.128  18.170   0.030 -0.0126 -0.3532 -0.2648
13272W        W33552  15.612   2.553   3.301  0.0808  0.1619 -0.0996
13273W        W33553   5.522   5.976   0.545 -0.2393 -0.2504 -0.1597
13274W        W33554  13.741   6.085   3.299  0.0039  0.2496 -0.1079
13275W        W33555   1.935   6.113   1.282 -0.3690  0.0616  0.1790
13276W        W33556  16.443   1.878   0.722  0.1105  0.1960 -0.1099
13277W        W33557   0.052  14.397  12.740  0.2246 -0.0173 -0.1059
13278W        W33558   8.826   5.218   2.377 -0.3859 -0.1906 -0.2573
13279W        W33559  14.230  11.397  13.932  0.3939  0.1264  0.1340
13280W        W33560   3.244  10.023   3.326  0.0449  0.1411  0.2523
13281W        W33561  10.836  10.974   2.070  0.0367  0.1635  0.0772
13282W        W33562  13.274  17.938   3.016 -0.3687 -0.0787 -0.2021
13283W        W33563   4.053   7.205   0.520  0.0817  0.4232 -0.0393
13284W        W33564  17.170  16.162   2.777  0.0193 -0.1117  0.1068
13285W        W33565  14.981   8.284  12.478  0.2789  0.0330  0.0658
13286W        W33566  15.872   2.169  15.595  0.1791  0.1494 -0.0375
13287W        W33567   1.683  10.212  13.399 -0.0779 -0.1171  0.1300
13288W        W33568   7.440   8.401  12.281 -0.1296 -0.1637 -0.0946
13289W        W33569   2.946   7.882  12.448  0.0858 -0.4741  0.0211
13290W        W33570   6.116  14.150   0.363 -0.1626  0.2202 -0.0980
13291W        W33571   1.554  16.817   3.905  0.0822  0.0331  0.3400
13292W        W33572   4.098   6.784   2.558  0.0183 -0.1474 -0.0258
13293W        W33573   7.752   2.104  11.417 -0.0396 -0.0351  0.0857
13294W        W33574  15.601  12.262  15.892 -0.4177 -0.0664 -0.0232
13295W        W33575  14.555  15.293  13.442  0.2555  0.1538 -0.1247
13296W        W33576  15.215  17.907  13.590  0.1303 -0.3218 -0.3309
13297W        W33577  15.451   1.224   0.016  0.1364 -0.1563  0.0236
13298W        W33578  12.757  14.714  14.662 -0.2896  0.0583 -0.0010
13299W        W33579  12.400   3.987   3.008 -0.1867 -0.0182  0.0842
13300W        W33580  17.357   6.472  11.666 -0.0177  0.1390 -0.0785
13301W        W33581   5.883   6.298   3.436  0.0007  0.2462 -0.0208
13302W        W33582   7.406   8.634   3.158 -0.0264  0.0810 -0.0342
13303W        W33583  15.640  15.630   3.827  0.1684  0.3858 -0.0875
13304W        W33584   3.247  17.499   1.847 -0.0002 -0.2086  0.0829
13305W        W33585   0.252  16.393   3.412  0.1827 -0.3187 -0.0801
13306W        W33586  17.831  12.777   2.522 -0.1028  0.2150 -0.1276
13307W        W33587   0.691  14.591  13.810  0.0413  0.1707  0.1749
13308W        W33588  12.366   9.543   1.353  0.2980  0.0152 -0.3610
13309W        W33589  11.600  12.251  14.704  0.0877  0.2198 -0.1746
13310W        W33590  17.959   3.182   3.851 -0.2791 -0.0523  0.2135
13311W        W33591   0.179  15.878   3.984 -0.1707 -0.1276  0.0825
13312W        W33592  12.748  15.086  13.262  0.0440 -0.3381  0.1165
13313W        W33593   2.322  11.271  13.584 -0.0972 -0.0839 -0.0638
13314W        W33594   0.164  10.670  13.923  0.0605  0.0701  0.0786
13315W        W33595  16.362   8.109   1.650  0.1264  0.0723  0.2245
13316W        W33596   7.923  14.441   1.491  0.0481  0.1373 -0.1340
13317W        W33597   4.373  13.788   0.278 -0.0983  0.0115 -0.0096
13318W        W33598   5.619  10.776   2.373  0.1195 -0.0464  0.1926
13319W        W33599  10.647  16.829   1.843 -0.0782  0.1393 -0.2169
13320W        W33600  13.746  15.612   0.984  0.3638 -0.0236 -0.2244
13321W        W33601   3.333  17.788  15.272  0.1074 -0.0210  0.0457
13322W        W33602  16.642  17.763   2.104  0.2494  0.2883 -0.0580
13323W        W33603  17.789  10.421   0.892 -0.0776  0.1042 -0.1899
13324W        W33604   4.541   6.474  15.036  0.2576 -0.1196  0.0543
13325W        W33605   5.638  11.516  15.648  0.1481 -0.1143  0.0798
13326W        W33606   3.119   6.953  14.738 -0.1624  0.1006 -0.0473
13327W        W33607   6.993   9.102  12.225 -0.0542 -0.1144  0.0362
13328W        W33608  15.853  16.010   4.116  0.4120  0.1484  0.1206
13329W        W33609  16.622  12.864   3.681  0.0255  0.0899 -0.0226
13330W        W33610   8.602  15.577  15.047 -0.1698  0.1168  0.3008
13331W        W33611  15.708   0.391   3.085  0.0494 -0.3421 -0.2699
13332W        W33612   5.132   5.115  11.923 -0.1303 -0.1140  0.0954
13333W        W33613  14.532  11.754  15.767 -0.0581  0.1348  0.1115
13334W        W33614   8.833  16.581  14.641  0.1225 -0.0648  0.0281
13335W        W33615  13.443   9.742   4.745  0.1762 -0.0830 -0.1459
13336W        W33616  17.254  17.843   4.459 -0.0086 -0.5238 -0.1359
13337W        W33617  11.553   5.921  14.706 -0.3007  0.2669 -0.0514
13338W        W33618   7.226  16.870  14.496 -0.5623  0.2410 -0.0912
13339W        W33619   1.100  14.448   0.978 -0.2205  0.0320 -0.2038
13340W        W33620  10.689  17.338  11.375 -0.2921  0.1130  0.0358
13341W        W33621   2.711  10.998   4.180 -0.1426  0.1322 -0.0076
13342W        W33622   7.748   2.394   1.809 -0.0792 -0.1313 -0.0082
13343W        W33623   6.871   0.467  13.517 -0.2565  0.0756  0.1488
13344W        W33624   2.549   4.185  11.877  0.2346  0.2664  0.0441
13345W        W33625  17.510  14.664  14.701 -0.0463 -0.3267  0.1075
13346W        W33626  17.600  13.577   1.654 -0.1773 -0.0629  0.0304
13347W        W33627  16.874   6.525  12.675 -0.1583 -0.2304 -0.1853
13348W        W33628   6.973  11.342  15.499  0.0131  0.0552 -0.3557
13349W        W33629   9.787  11.924  11.341 -0.0406  0.1197  0.1527
13350W        W33630   6.330  12.934   3.973 -0.1777  0.0519 -0.0939
13351W        W33631   1.612  15.383   3.729  0.2637  0.0457 -0.0795
13352W        W33632   2.955  14.014  11.885  0.1323 -0.3383 -0.1296
13353W        W33633   0.542  12.015  12.790  0.0276 -0.1228 -0.0267
13354W        W33634   3.114  10.062   2.177  0.0238 -0.1514 -0.0487
13355W        W33635   3.560   8.154  14.654 -0.2152 -0.0759  0.1753
13356W        W33636   9.297   4.236   0.216  0.2008 -0.0639  0.0569
13357W        W33637   8.243  17.837  13.655 -0.0552 -0.1924  0.1073
13358W        W33638   6.145  10.361  14.464  0.0216 -0.3987 -0.0843
13359W        W33639  13.093   2.274   4.516 -0.1763 -0.2583  0.0184
13360W        W33640  17.106  15.620   4.654  0.0919  0.1264  0.1101
13361W        W33641   4.397  15.287   4.084 -0.0238  0.3282  0.0636
13362W        W33642   9.754   1.248   3.512  0.2352 -0.3600  0.1967
13363W        W33643   2.078   3.115  12.286 -0.0087 -0.3358  0.0820
13364W        W33644   8.545   4.636  11.390 -0.4405 -0.3824 -0.1596
13365W        W33645   0.570  14.918  12.258 -0.1390 -0.2232 -0.1614
13366W        W33646   8.476  10.177   5.038 -0.0435  0.2443 -0.1816
13367W        W33647   9.706  15.844   4.056 -0.0279  0.3087 -0.3107
13368W        W33648  15.747   8.728   1.107  0.0238 -0.1536  0.0469
13369W        W33649   8.045  11.654   4.552 -0.1082  0.2245  0.1552
13370W        W33650   1.119   3.320  12.264 -0.0547  0.1534  0.0165
13371W        W33651   7.693   1.598   0.597 -0.2676 -0.0723 -0.0287
13372W        W33652   1.866   8.355  11.044 -0.2765  0.0006 -0.2443
13373W        W33653  11.010   2.830   1.928 -0.0568 -0.3374 -0.0876
13374W        W33654  15.303   8.389   0.305 -0.0632 -0.1146  0.0769
13375W        W33655  13.792   0.598   1.488  0.0555  0.0058  0.3542
13376W        W33656  10.811  16.968   2.297 -0.1877 -0.0758  0.0546
13377W        W33657  13.776   5.128  13.083  0.0451 -0.3695  0.2742
13378W        W33658   2.830   0.131  15.846  0.1710  0.0689  0.2459
13379W        W33659  13.059  16.263  13.446  0.2060 -0.0604 -0.0708
13380W        W33660  15.586  12.363  13.725  0.0038  0.3177 -0.1134
13381W        W33661   9.536  13.691  11.737  0.2056  0.1931  0.2127
13382W        W33662  10.351  14.949   2.601 -0.0762  0.0371  0.1481
13383W        W33663   9.582  10.085  12.606 -0.1832  0.0731  0.0730
13384W        W33664   3.354  10.896   0.222 -0.0339  0.4372 -0.0355
13385W        W33665  13.790  16.839  12.482  0.0164 -0.1584 -0.0369
13386W        W33666  10.382  12.638   2.378 -0.0697  0.1214 -0.0156
13387W        W33667  16.930   4.057  12.026 -0.0703  0.3984 -0.2212
13388W        W33668  15.426   0.386  13.325  0.1957 -0.2234 -0.0324
13389W        W33669   2.723  14.028  15.550 -0.0738 -0.0004  0.0333
13390W        W33670   9.888   0.905  12.672  0.0405 -0.0011  0.2964
13391W        W33671  11.521  14.622  12.953 -0.0467  0.1559 -0.0784
13392W        W33672   7.898   8.789   4.899  0.3822 -0.0355  0.1013
13393W        W33673  13.081   3.763   2.007 -0.1132 -0.2814 -0.1053
13394W        W33674   6.715   4.203   1.089 -0.2819 -0.0621 -0.1477
13395W        W33675  11.347  17.477   2.047  0.4830  0.1247  0.0184
13396W        W33676   0.552   6.297   1.012  0.0443  0.2155  0.1127
13397W        W33677  17.965   4.035   0.770  0.1110  0.1677  0.0839
13398W        W33678  10.143  15.850   0.919 -0.0257  0.2140 -0.0359
13399W        W33679   9.814  14.702  13.477 -0.0122 -0.1274 -0.2977
13400W        W33680   5.873   2.759   2.024  0.0308 -0.4280  0.0636
13401W        W33681   9.285   6.068  13.422 -0.0975 -0.1460  0.2777
13402W        W33682  11.535  15.436   1.562  0.1567  0.1161 -0.2167
13403W        W33683  16.377  17.590   4.578  0.0002 -0.0823 -0.0652
13404W        W33684   0.571  11.301  12.959  0.1151 -0.0143 -0.1397
13405W        W33685   9.431   4.229   1.796 -0.1584 -0.0967  0.0834
13406W        W33686  10.114   2.543   3.951  0.1538  0.0706 -0.0121
13407W        W33687   2.065   7.187   1.086 -0.0299 -0.3245 -0.1639
13408W        W33688  10.291  17.949  13.636  0.1113  0.2731 -0.1158
13409W        W33689  14.800   1.038   2.524  0.3428 -0.1376  0.0665
13410W        W33690  14.320  16.913   3.197  0.3140  0.0363  0.0654
13411W        W33691   6.981   6.344  15.567 -0.1081  0.2474  0.1424
13412W        W33692   8.497  12.614   0.890  0.1131 -0.2243 -0.0674
13413W        W33693   0.445   3.297   3.192  0.2155  0.1124 -0.4321
13414W        W33694  11.109  17.905  14.428  0.0414  0.4513 -0.0765
13415W        W33695   2.946  15.092   3.027  0.3629  0.2166  0.2571
13416W        W33696   4.927   6.798   1.005  0.0887  0.0687 -0.0967
13417W        W33697  17.745  10.020   2.452 -0.0245 -0.0372 -0.2479
13418W        W33698   2.280   6.050   2.248 -0.0798 -0.0432 -0.3309
13419W        W33699   0.768   0.277   1.107 -0.1343 -0.0170  0.0295
13420W        W33700   7.123  11.234   4.379 -0.0117 -0.0423  0.1831
13421W        W33701  12.704  14.065  12.614  0.1288  0.5458 -0.1651
13422W        W33702  17.041  14.821  14.549  0.0790 -0.1732 -0.0377
13423W        W33703   9.180  11.549   4.154 -0.2081 -0.1016  0.3732
13424W        W33704  14.489   3.534   0.306  0.0390 -0.0422 -0.0684
13425W        W33705  10.189   2.793   2.763 -0.0793 -0.1818 -0.1440
13426W        W33706   9.118  13.954   3.581  0.1139 -0.0665  0.1729
13427W        W33707  13.613   7.690  14.364  0.1849  0.1205 -0.4476
13428W        W33708   2.452   9.217   1.192  0.0924 -0.0504 -0.0101
13429W        W33709  16.033  16.886  10.747 -0.1655  0.0534 -0.1866
13430W        W33710   6.607  12.604  12.797  0.0577 -0.3719 -0.0010
13431W        W33711  14.652  12.644  15.834 -0.0547  0.0287  0.0992
13432W        W33712  16.416   6.351  11.818 -0.4551  0.2249 -0.0666
13433W        W33713   4.773   5.128  12.269  0.2280  0.2162  0.0416
13434W        W33714  18.269  16.707   3.696 -0.2287  0.3275 -0.1832
13435W        W33715  17.684   4.088   3.755 -0.0755 -0.1863  0.2591
13436W        W33716   8.791  10.545  12.844  0.1961  0.0439  0.0288
13437W        W33717  11.996   9.558   4.909  0.2558  0.0203  0.0888
13438W        W33718   1.897  17.281   0.735  0.0538 -0.0113  0.4554
13439W        W33719  11.862   7.238   3.847  0.1035 -0.1863 -0.1343
13440W        W33720  10.629   6.440  12.215  0.1493 -0.2149 -0.1460
13441W        W33721   7.837  18.180  15.085  0.0061 -0.1015 -0.0685
13442W        W33722  17.844  18.148   4.755 -0.1950  0.4259 -0.1489
13443W        W33723   1.399  10.180   4.222 -0.0486  0.0136 -0.0225
13444W        W33724   7.048   7.300  14.669  0.0406 -0.0123  0.1014
13445W        W33725  15.779  16.075  12.437 -0.3043  0.0045  0.0376
13446W        W33726   7.968   2.604  14.866 -0.0866 -0.0420  0.0321
13447W        W33727  16.581   9.003  15.302 -0.1196 -0.1174 -0.2979
13448W        W33728  15.760   4.058   4.249  0.2464 -0.1428  0.0182
13449W        W33729  10.177   1.977  14.449 -0.1716  0.0322  0.1482
13450W        W33730  16.988   5.815   0.308 -0.0967  0.0029  0.2193
13451W        W33731  15.730  14.756  15.495  0.0033  0.1408 -0.2064
13452W        W33732  12.179  17.692   0.242 -0.0522 -0.3569  0.0709
13453W        W33733   6.817   2.694  13.669 -0.1581 -0.0577  0.1254
13454W        W33734   9.153  14.587  15.378 -0.0679 -0.0711  0.2268
13455W        W33735  13.189   7.074   0.190 -0.3065  0.0161  0.0972
13456W        W33736   9.152   4.087  12.039  0.1271  0.0238  0.2784
13457W        W33737   3.766   0.559  14.189  0.1430 -0.0793  0.2102
13458W        W33738  12.142  16.878  15.144  0.0751 -0.0723  0.0911
13459W        W33739  11.501   6.503  14.039  0.0618  0.1244  0.1369
13460W        W33740  13.692   5.354   3.417  0.0058 -0.1694  0.1297
13461W        W33741   1.724   1.621   0.482 -0.1474  0.2494 -0.1211
13462W        W33742  16.876   7.857  12.465  0.1210  0.1572  0.2081
13463W        W33743  12.495  13.600   4.538 -0.1797  0.2426  0.1834
13464W        W33744   2.123  10.587   3.212  0.2189  0.0496  0.1635
13465W        W33745   8.789   5.427   4.805  0.1570  0.1455  0.0506
13466W        W33746  14.860   4.090   5.460 -0.1968 -0.0494  0.0415
13467W        W33747   0.893  14.474  15.720  0.2709  0.0865  0.2515
13468W        W33748  10.305  13.103  14.720 -0.0788 -0.0524 -0.0223
13469W        W33749  14.313  11.679   4.457 -0.1245  0.0806 -0.1081
13470W        W33750  12.122   4.626   1.048  0.3277 -0.1692  0.0876
13471W        W33751   4.102   1.630  11.571  0.0651  0.0779  0.0516
13472W        W33752  13.410   7.993  14.740  0.0117  0.3572  0.1870
13473W        W33753   6.899  16.272  13.402  0.0604  0.0643 -0.2236
13474W        W33754  15.922   3.887  15.154 -0.2155  0.0842 -0.0959
13475W        W33755   6.312   8.299   3.204  0.1798 -0.0486 -0.0192
13476W        W33756  14.618   0.938  13.580 -0.0273  0.2597 -0.0013
13477W        W33757   1.748   3.429  13.355 -0.0329  0.0758 -0.0678
13478W        W33758   0.975  18.028  12.109  0.0757 -0.1684  0.0137
13479W        W33759  17.333   9.503  14.889 -0.2301 -0.2044 -0.0014
13480W        W33760   1.762   3.736   4.920  0.1985 -0.2165 -0.1205
13481W        W33761   1.996   1.647   4.027  0.0193  0.3501  0.5969
13482W        W33762  16.005   0.254   3.873 -0.2090  0.3369  0.3797
13483W        W33763   7.469  13.509   1.650  0.2330 -0.1133  0.4315
13484W        W33764  17.063   5.571   2.924  0.0391  0.2342  0.1800
13485W        W33765  11.483   1.138   2.179 -0.1966 -0.1317 -0.0484
13486W        W33766  16.918  17.860   3.283  0.1529 -0.0772 -0.0463
13487W        W33767   0.708   3.491   0.525  0.0958 -0.1602 -0.2512
13488W        W33768   2.011   6.848   0.002 -0.0386 -0.1383  0.0011
13489W        W33769  16.897  16.258  12.321  0.1457 -0.2295 -0.1817
13490W        W33770   2.324   9.143   4.572  0.1368  0.2871 -0.2410
13491W        W33771   5.326  11.491   4.187 -0.0218 -0.0448 -0.2119
13492W        W33772   8.988  10.161   1.289 -0.0208 -0.0445  0.3220
13493W        W33773   9.053  16.444  14.092 -0.2478  0.0835 -0.0184
13494W        W33774  10.977   2.059   0.787 -0.1373 -0.3100  0.0222
13495W        W33775  16.645   4.347  14.020 -0.3066  0.0889  0.4771
13496W        W33776   3.636   4.999  15.553  0.0835  0.1064 -0.2102
13497W        W33777   6.536  11.723   4.355 -0.0582  0.4319  0.1009
13498W        W33778   7.968   3.855   0.302 -0.2019 -0.1154 -0.1238
13499W        W33779  14.479  10.461   2.261 -0.1022 -0.1263 -0.0801
13500W        W33780   4.479  14.149  13.882 -0.1893  0.2786 -0.1915
13501W        W33781  13.357   3.359  14.116  0.0337  0.2838  0.2150
13502W        W33782  17.379   4.422  12.127 -0.0652 -0.1031  0.0118
13503W        W33783   1.870  17.157  14.822  0.0702  0.1142 -0.1140
13504W        W33784   6.040   1.244   2.911  0.2739 -0.1515 -0.0014
13505W        W33785  10.502  17.491  14.390  0.1442  0.1956  0.0713
13506W        W33786   4.599  13.101  13.899  0.0629  0.0068  0.2583
13507W        W33787   8.690  15.710  13.404 -0.1013  0.2693  0.2295
13508W        W33788  16.068   7.822   3.337 -0.0217 -0.2225 -0.1192
13509W        W33789   9.865   6.768   0.210  0.1519  0.0402 -0.1718
13510W        W33790   9.003   5.734  13.813  0.1319 -0.0663 -0.0741
13511W        W33791  13.970  16.022   2.398  0.2529  0.1694  0.2521
13512W        W33792  12.981   8.407   3.729  0.1290  0.0007 -0.0746
13513W        W33793   7.930   6.200  13.829 -0.1572  0.0398 -0.4141
13514W        W33794   4.629   8.646  11.621 -0.0491  0.0919 -0.0361
13515W        W33795   7.007   3.877   1.246 -0.1628  0.0611 -0.1867
13516W        W33796   1.203   7.122  14.841 -0.0528  0.1588  0.1889
13517W        W33797  15.427   8.251   4.309 -0.1189 -0.1913  0.2073
13518W        W33798   3.072  15.744   3.795  0.2810 -0.0580  0.0311
13519W        W33799   2.619  16.987  12.539 -0.0790  0.1872  0.1946
13520W        W33800   5.834   3.755   4.003  0.2991  0.3059  0.2578
13521W        W33801  17.868  12.296   2.862 -0.2908  0.2479 -0.0967
13522W        W33802   6.417  11.029  11.984 -0.1140 -0.2561  0.1904
13523W        W33803   9.489  10.458   0.525  0.3357 -0.1766 -0.0856
13524W        W33804  16.195  14.681  14.018  0.0717 -0.0855  0.0886
13525W        W33805  14.681  11.011   0.564 -0.1012  0.1291 -0.0905
13526W        W33806   7.327  10.416  13.980  0.3881  0.3891 -0.1797
13527W        W33807   8.484   4.981  12.681 -0.1551  0.1561  0.0943
13528W        W33808  16.523  17.094   2.801 -0.0459  0.0364 -0.0977
13529W        W33809  16.625   4.045   3.697  0.0487  0.3466  0.2490
13530W        W33810   4.990  10.427   3.381  0.2650  0.2963  0.2428
13531W        W33811   5.476   0.546  11.478  0.1593  0.0640 -0.1304
13532W        W33812   3.475  11.036  15.690 -0.2076 -0.3598 -0.0288
13533W        W33813  17.020   3.153  12.867  0.0330 -0.1004 -0.0552
13534W        W33814  12.301  16.601  12.291 -0.0056 -0.1179  0.2654
13535W        W33815   9.969  17.541  13.744 -0.0503  0.2276 -0.1362
13536W        W33816  10.379  10.465  15.258 -0.2318 -0.0272  0.2891
13537W        W33817  11.503   4.639  11.091 -0.0882 -0.0743  0.1534
13538W        W33818  17.913  10.214  14.560  0.1633 -0.2063 -0.2025
13539W        W33819  13.296  16.471   3.977  0.3496 -0.2404  0.1059
13540W        W33820   0.450  12.925   2.137  0.2099 -0.0563 -0.2109
13541W        W33821   7.302  16.672   1.629 -0.0369  0.0342 -0.2751
13542W        W33822  10.421   5.181  14.508 -0.0824 -0.2306  0.0394
13543W        W33823   6.423  14.202  14.329 -0.1900 -0.1000 -0.0485
13544W        W33824   9.353  13.864   2.662 -0.2082 -0.0101 -0.1260
13545W        W33825  14.969   1.283  15.514 -0.1967  0.2698  0.3089
13546W        W33826   2.490   7.930   0.046 -0.0234 -0.1995  0.0399
13547W        W33827   4.817  11.120   0.029  0.1141 -0.2837  0.3304
13548W        W33828  17.415   3.716   0.466 -0.1912 -0.1564  0.2222
13549W        W33829   9.937  11.080   4.516 -0.3067 -0.0868  0.1623
13550W        W33830   2.092   3.520   1.735 -0.0066 -0.0341  0.0602
13551W        W33831   4.440   5.898   3.566  0.1401  0.1598  0.4627
13552W        W33832   9.395  11.027   0.696 -0.2219 -0.1726 -0.0747
13553W        W33833   8.516  14.888  13.255 -0.0631 -0.1735 -0.0656
13554W        W33834   9.413   7.620   0.322 -0.2024 -0.2595  0.2691
13555W        W33835   6.416   9.220   1.159  0.2986 -0.0087 -0.0091
13556W        W33836   3.196   6.266  14.625 -0.0235 -0.3666  0.0787
13557W        W33837   9.595  12.891   1.962  0.0570 -0.0276  0.1365
13558W        W33838  10.004  13.320  13.559 -0.4024  0.1186 -0.1254
13559W        W33839  10.301   1.091   1.601 -0.2395 -0.0785  0.0147
13560W        W33840  12.353   4.618  12.433  0.0003 -0.0241  0.1165
13561W        W33841   1.814   1.103   2.208  0.0559  0.0531  0.0909
13562W        W33842   7.139  15.217   5.017  0.2317  0.2882 -0.0558
13563W        W33843  14.750  16.443  14.847  0.1247 -0.1098  0.2205
13564W        W33844  16.953  11.601  14.625  0.2234 -0.2405  0.1787
13565W        W33845   8.859  17.487   5.877  0.1585  0.2102 -0.1492
13566W        W33846   6.106  15.555  15.274  0.0855  0.1645 -0.1472
13567W        W33847   2.313  16.222  12.157  0.0593  0.1817 -0.1900
13568W        W33848  12.401   3.244   1.972 -0.0690 -0.1412 -0.1754
13569W        W33849   9.583   1.687  15.308  0.0170  0.1130 -0.1731
13570W        W33850   0.536   5.919   5.625  0.2373  0.0121  0.1331
13571W        W33851   7.176  18.147   1.885  0.0812  0.3437 -0.1102
13572W        W33852   8.204   3.088  13.590  0.0467  0.1685 -0.1719
13573W        W33853   1.485   1.793  11.636  0.0151  0.4201 -0.1092
13574W        W33854  15.357  15.169  14.907  0.0171  0.2288  0.2583
13575W        W33855   9.080   1.422   2.932 -0.1520  0.1561 -0.0454
13576W        W33856  17.140  17.397   4.231 -0.1346 -0.0118 -0.0975
13577W        W33857  12.510   7.971  13.878  0.0660 -0.1273  0.1037
13578W        W33858  14.240  14.001   3.817  0.1318  0.0673  0.1089
13579W        W33859   9.262  13.421   5.017 -0.0449 -0.1035 -0.3373
13580W        W33860  15.094  16.074  14.905 -0.2061  0.2182  0.1112
13581W        W33861   3.695  11.763  11.570 -0.0252 -0.0151  0.2597
13582W        W33862   0.266  10.105  13.096 -0.1884 -0.1081  0.1263
13583W        W33863  15.355  16.021   4.129 -0.1824 -0.2034 -0.0472
13584W        W33864  13.564   9.197  14.480 -0.0267 -0.0159  0.0559
13585W        W33865   5.111   6.021   3.736 -0.1872  0.0597 -0.0512
13586W        W33866  10.041   5.907  14.498 -0.2340 -0.0201 -0.1921
13587W        W33867   3.195   5.951   1.498 -0.2369 -0.0566  0.2922
13588W        W33868  16.457   3.781  12.089 -0.1106 -0.0323  0.0343
13589W        W33869   7.409  14.084   3.988  0.0707  0.0785 -0.0761
13590W        W33870  13.646  11.366  14.468 -0.1549 -0.0324 -0.1661
13591W        W33871   5.541  11.096   4.462 -0.1610 -0.2678 -0.2899
13592W        W33872  13.538   3.302  15.037 -0.0167 -0.0500 -0.0960
13593W        W33873   8.057   7.116   2.355 -0.0634 -0.1175  0.1962
13594W        W33874   3.129  12.926  11.458  0.0222 -0.1218 -0.0967
13595W        W33875   1.085  14.687  12.529 -0.0168 -0.2861 -0.2111
13596W        W33876   5.886   2.195  14.519  0.0107  0.0882 -0.0563
13597W        W33877  16.164   3.593  12.419  0.0415  0.0489 -0.4298
13598W        W33878  18.135   9.138  13.269 -0.0860  0.3090 -0.1648
13599W        W33879   7.085   5.396  11.768  0.0991 -0.1815  0.0257
13600W        W33880  15.568  12.121  12.759 -0.1749 -0.0274  0.1676
13601W        W33881  17.342  17.819   3.968 -0.1759  0.2403 -0.0403
13602W        W33882  14.053  15.349  14.750 -0.4384 -0.1220 -0.0173
13603W        W33883   2.396   7.683   1.827 -0.0264 -0.1142  0.0703
13604W        W33884   6.743  10.727   1.201  0.1754  0.1197 -0.3814
13605W        W33885  17.895  10.966  13.744 -0.0945 -0.1884 -0.2566
13606W        W33886  15.246  17.604   0.507 -0.0992  0.0036 -0.0747
13607W        W33887   8.035  18.103   1.216  0.1913 -0.1842  0.1574
13608W        W33888   4.077  10.446   1.827  0.0076 -0.2127 -0.1549
13609W        W33889  10.235   1.353  13.690 -0.1879 -0.0271  0.2236
13610W        W33890   5.733   4.421  12.903 -0.0019 -0.0425  0.0677
13611W        W33891  14.073  14.529   2.049  0.0868 -0.0911  0.2078
13612W        W33892   1.374   7.721  13.707  0.0779 -0.0805 -0.1624
13613W        W33893   4.043  11.979   1.463 -0.2041 -0.1666 -0.1877
13614W        W33894  10.555   6.251   1.287  0.1756  0.3616  0.0075
13615W        W33895  13.106   4.196   3.805  0.3721 -0.0248 -0.0234
13616W        W33896  14.817  16.985   2.868  0.0556  0.2340 -0.0799
13617W        W33897   2.609   3.756   1.704 -0.0830  0.0725 -0.2586
13618W        W33898  10.443  16.777   3.650 -0.0209 -0.2611  0.0733
13619W        W33899   1.633  12.288  11.375  0.1317 -0.1891 -0.0297
13620W        W33900  12.259   5.097  12.534  0.0639  0.1573 -0.3158
13621W        W33901  17.813   7.908  12.323  0.0721 -0.0986 -0.2790
13622W        W33902   2.507   8.131  13.632  0.0001 -0.2344 -0.1079
13623W        W33903  13.868  13.280  15.816 -0.3407 -0.2044 -0.1646
13624W        W33904   2.503   5.995  15.672  0.1317  0.3506  0.0170
13625W        W33905   0.785   1.425  13.841 -0.2177 -0.2224  0.0238
13626W        W33906   6.754   2.756  11.930  0.2456 -0.0505  0.1066
13627W        W33907   6.755  17.859   1.837  0.0076  0.2387 -0.0976
13628W        W33908   1.027   5.066   1.334  0.0091  0.3017 -0.0677
13629W        W33909   8.715  10.396  13.768 -0.2579 -0.1520 -0.2805
13630W        W33910   5.386   8.675  15.171  0.0534 -0.3600 -0.0953
13631W        W33911   3.700  14.256  13.148  0.1000  0.1192  0.0651
13632W        W33912  16.362   8.127  12.540  0.0815  0.2036  0.1833
13633W        W33913   4.810   5.894  14.390 -0.1828 -0.1185 -0.0705
13634W        W33914   4.470   3.825   4.320  0.0705 -0.1493 -0.1310
13635W        W33915   2.380   8.862  12.953  0.0974  0.0140  0.1284
13636W        W33916  12.839  10.614  12.982  0.1337 -0.0955  0.0595
13637W        W33917   3.003  14.467   4.455  0.1865 -0.0161 -0.1749
13638W        W33918   8.674  14.354   3.628 -0.1457  0.1051 -0.1740
13639W        W33919  15.042   8.668   1.770  0.2599  0.0420 -0.0947
13640W        W33920   9.896  13.472   0.564  0.1248  0.3080 -0.2660
13641W        W33921   9.086  11.393   2.746 -0.1035 -0.0627  0.0868
13642W        W33922   2.134   4.699   1.908  0.0795  0.0640 -0.0658
13643W        W33923   2.885   4.179   1.578  0.1142 -0.1572  0.2532
13644W        W33924  15.465  13.767   0.181 -0.2562  0.1932 -0.0810
13645W        W33925   2.650  10.365  14.221  0.2285 -0.2899  0.0739
13646W        W33926   7.918   0.179  14.177  0.1568 -0.1296  0.0241
13647W        W33927  15.200   6.775   2.929  0.0138 -0.2810 -0.1313
13648W        W33928  16.898  16.661   3.067 -0.0057 -0.0201 -0.2626
13649W        W33929  10.399  15.287  15.205 -0.1153 -0.0392  0.1295
13650W        W33930   0.383   3.105  12.812  0.0095  0.2691 -0.0464
13651W        W33931   5.572  10.712  12.233  0.0924  0.0190 -0.2133
13652W        W33932   9.302   5.855  14.237  0.0367 -0.0087  0.2794
13653W        W33933   0.373   8.067   0.588 -0.4272  0.1442  0.1217
13654W        W33934   6.065   1.163  12.717 -0.0559  0.1473  0.1509
13655W        W33935   9.623   7.742   3.026 -0.0568  0.2299 -0.4797
13656W        W33936   2.717  17.313   3.110 -0.1146 -0.0234  0.1300
13657W        W33937   2.036  10.026  15.714  0.0961  0.0180  0.0486
13658W        W33938  14.720   9.635  15.702 -0.2858  0.1830  0.2355
13659W        W33939  11.583   2.663   3.660  0.1759  0.0731 -0.0141
13660W        W33940   0.050  12.790  13.966  0.1301 -0.1465  0.2036
13661W        W33941   2.099  14.748   1.348 -0.0979 -0.3879 -0.0132
13662W        W33942  17.704  14.168   2.495  0.0165 -0.2256  0.1018
13663W        W33943  13.811   2.539  13.480  0.2981 -0.4192  0.0909
13664W        W33944  13.983  12.344   4.710  0.0761 -0.0022 -0.0847
13665W        W33945   1.093   1.074  12.078  0.2209 -0.3143  0.0213
13666W        W33946   8.649  18.051  12.402 -0.4977  0.0561  0.0351
13667W        W33947  12.346   0.148  15.907 -0.1049 -0.2876  0.3161
13668W        W33948   0.741   6.351   2.003 -0.0861 -0.3429  0.1369
13669W        W33949  18.091  10.763  14.774 -0.0456 -0.2187  0.1281
13670W        W33950   2.449   8.116   2.320 -0.1492 -0.2414  0.2099
13671W        W33951   5.588  14.302  11.343  0.2309 -0.1239 -0.1273
13672W        W33952   5.902   8.316  12.020 -0.3043 -0.0575 -0.1054
13673W        W33953   3.455  13.293   2.987  0.0761  0.0557 -0.1273
13674W        W33954   0.586  15.369  12.004  0.0719 -0.0039  0.3379
13675W        W33955  13.681   6.913   1.274  0.1356  0.3300 -0.1939
13676W        W33956   2.328   8.592   1.339 -0.0496  0.0463 -0.0650
13677W        W33957  12.697   4.172   2.543  0.0072 -0.0542  0.1003
13678W        W33958   6.211   1.568  11.483  0.0103  0.0757 -0.1252
13679W        W33959  11.584  13.540   2.060  0.0192  0.2706  0.1935
13680W        W33960   0.591   1.297   1.937  0.0968  0.0005 -0.1603
13681W        W33961  13.298   0.709   1.076 -0.2092  0.0859  0.2255
13682W        W33962   6.419   2.107   4.944 -0.2057  0.0789  0.1461
13683W        W33963   1.722  17.113  11.260 -0.0066  0.0141 -0.0391
13684W        W33964  14.182  15.261   1.590 -0.0451 -0.0776  0.0478
13685W        W33965   3.301   1.246  15.929  0.0086  0.3229  0.1289
13686W        W33966  16.849  15.423   1.088 -0.1108  0.1234  0.0058
13687W        W33967   7.018   7.762   2.002 -0.2830  0.0182 -0.1913
13688W        W33968  12.907  17.640   2.439  0.1422 -0.0678 -0.1398
13689W        W33969  10.988   4.874   2.375  0.1770  0.2528  0.0003
13690W        W33970   8.571  14.231   1.447  0.3400 -0.0353  0.2667
13691W        W33971  12.019   6.830  15.519 -0.2280  0.0261 -0.2625
13692W        W33972   6.740   2.940   2.683 -0.1999  0.1943  0.4355
13693W        W33973  18.225   4.740   3.950  0.0143  0.0843  0.0170
13694W        W33974   6.296  11.044  12.841 -0.0021 -0.1824 -0.3754
13695W        W33975  11.609  13.556   3.749 -0.2072 -0.1403  0.1833
13696W        W33976  17.184  17.922  12.001  0.0005  0.2418 -0.3180
13697W        W33977  15.955   9.972   2.827  0.1791  0.1756  0.1196
13698W        W33978  16.940  12.542  11.621  0.1337 -0.1246 -0.0386
13699W        W33979   3.188   6.898   0.654 -0.4366  0.2473 -0.1113
13700W        W33980  14.266   7.286   1.533 -0.0788  0.1695  0.0928
13701W        W33981  15.969  15.902   1.187 -0.3150 -0.2568 -0.2871
13702W        W33982  13.333  11.142   1.983 -0.0344  0.1405  0.3556
13703W        W33983  13.602  13.966  13.822  0.0593  0.0813  0.0920
13704W        W33984  14.320   1.398   1.984  0.0434 -0.0859 -0.0966
13705W        W33985   4.468   9.219   3.262  0.3090 -0.4319 -0.2426
13706W        W33986  17.355   4.509  15.640 -0.4856  0.0378 -0.0470
13707W        W33987   0.879  11.946   3.053  0.1636 -0.1125 -0.0893
13708W        W33988  16.696  12.579   1.985 -0.2700  0.0172 -0.0944
13709W        W33989   4.039   2.905  12.210  0.1486  0.1856 -0.3151
13710W        W33990  14.494   7.266   0.268  0.2270  0.1359  0.3132
13711W        W33991  12.572   5.526  12.988 -0.5439 -0.2328 -0.0030
13712W        W33992   3.161  16.482   2.557  0.0673  0.0625 -0.0983
13713W        W33993  16.522  17.028  14.394  0.1107 -0.2574  0.2192
13714W        W33994   9.330  17.125  12.219  0.1390  0.1169  0.4309
13715W        W33995   8.655   9.803   4.700  0.0708  0.0505  0.0488
13716W        W33996   6.629   9.419   3.038 -0.0695 -0.0508  0.0973
13717W        W33997  11.103  13.979  15.341  0.3875  0.1466  0.1937
13718W        W33998   7.467  14.643  11.334  0.0708 -0.1767 -0.0058
13719W        W33999  13.398  18.057  13.612  0.1007 -0.0515 -0.0082
13720W        W34000   7.661   0.246   4.174  0.2651 -0.1103  0.0933
13721W        W34001   5.284   5.697   2.247 -0.3066 -0.0151  0.2014
13722W        W34002  12.607   8.315  11.737 -0.1509  0.4350  0.0731
13723W        W34003  17.855  14.039  15.292  0.0974  0.0476  0.2060
13724W        W34004   7.624   6.369   4.234  0.0780 -0.0315  0.0058
13725W        W34005   8.202  17.025   1.565  0.0470  0.1239 -0.3167
13726W        W34006  16.866  16.192   0.676 -0.0672 -0.1034  0.1709
13727W        W34007  17.132   3.513  13.646 -0.0183  0.1031  0.1707
13728W        W34008  14.898   1.586  12.023 -0.1021  0.0164 -0.1768
13729W        W34009   7.068   7.830  14.446  0.1230  0.3014 -0.0708
13730W        W34010   6.675   5.442  15.938 -0.3031  0.0038  0.2304
13731W        W34011   4.657  13.482  11.756 -0.0651  0.0479  0.2490
13732W        W34012   7.948   5.980   3.835  0.1926  0.3278  0.1483
13733W        W34013  13.918  12.464   4.250 -0.0206  0.1340  0.0434
13734W        W34014   1.507   1.028  14.788 -0.1910  0.2200 -0.2282
13735W        W34015   8.662  13.361   0.169  0.5786  0.0478  0.1263
13736W        W34016  16.608  11.364   1.175  0.0707  0.2599 -0.2307
13737W        W34017   7.422  11.114   0.184 -0.1966  0.0042  0.0084
13738W        W34018   6.819   8.344   0.237 -0.1533 -0.0371 -0.0575
13739W        W34019  15.956  16.293  14.693  0.1242 -0.1064  0.0604
13740W        W34020  10.094   7.029  11.570 -0.0557  0.1702  0.0339
13741W        W34021   8.410   9.700  13.225 -0.4562  0.2087  0.0515
13742W        W34022  15.949  17.815  15.630  0.2447  0.0492 -0.1772
13743W        W34023   3.261   7.935  15.650  0.0663 -0.0281 -0.0092
13744W        W34024  12.595   1.418   0.754  0.0469 -0.1058  0.0018
13745W        W34025  17.559   5.352  11.403  0.3906  0.0701 -0.0875
13746W        W34026   8.378   6.076  12.877 -0.0383 -0.1786  0.1687
13747W        W34027   5.618   0.001   1.358 -0.2154  0.1017  0.0643
13748W        W34028   6.618   6.715  11.644 -0.0853 -0.0931  0.3855
13749W        W34029   7.380   2.468  11.378 -0.0601 -0.1837 -0.2935
13750W        W34030  14.073  11.173  14.346 -0.1671 -0.0433 -0.3374
13751W        W34031   6.337   3.588   2.329  0.1176 -0.1939  0.0041
13752W        W34032  13.291   3.014   1.873 -0.2538  0.0069 -0.1446
13753W        W34033  15.958   8.233  14.232  0.3348  0.1496 -0.0982
13754W        W34034   7.352  12.909  12.428 -0.2878  0.2291  0.1007
13755W        W34035  10.983   4.905   3.732 -0.1561 -0.1588 -0.0607
13756W        W34036   9.402  14.316  14.793 -0.0805  0.0578 -0.2708
13757W        W34037   5.236   9.341   4.987  0.0319 -0.4810 -0.0797
13758W        W34038   6.082   3.926  11.642  0.0180  0.2302  0.1433
13759W        W34039   6.227  13.101   0.267 -0.0060  0.0199 -0.2363
13760W        W34040  11.341   1.398   4.779  0.0229  0.0997 -0.2543
13761W        W34041  10.340  15.891   1.799 -0.1275 -0.0924 -0.2020
13762W        W34042   0.732  10.670  14.629  0.2121 -0.3049 -0.3760
13763W        W34043   1.781  10.807   3.988 -0.0023  0.4051 -0.0419
13764W        W34044   3.520  10.608  12.723 -0.0955  0.1494 -0.1987
13765W        W34045   5.346   0.318   0.026 -0.1432 -0.4212 -0.0056
13766W        W34046  17.825   8.739  15.354 -0.2652 -0.0790 -0.3789
13767W        W34047  14.153  12.427   1.239 -0.0061  0.1676 -0.1049
13768W        W34048  10.926   1.150  12.918  0.0651 -0.1944 -0.1037
13769W        W34049   7.849   7.636  14.929  0.2185  0.2035 -0.0653
13770W        W34050   0.757  13.553   3.444 -0.2987  0.1694  0.1050
13771W        W34051   8.395  11.675   2.744 -0.2019  0.0701 -0.0970
13772W        W34052   4.098   0.584   0.358  0.1893 -0.0607  0.0934
13773W        W34053  16.884   1.053  15.692  0.0202  0.0278  0.0458
13774W        W34054  12.424   1.311   3.546  0.0204 -0.1054  0.2721
13775W        W34055   0.367   5.942  13.294  0.0355 -0.2811 -0.5413
13776W        W34056  12.063  14.865   0.136 -0.3136 -0.0464  0.0776
13777W        W34057  16.896   9.198  14.536  0.0358 -0.2207 -0.0237
13778W        W34058  14.647  12.198  14.927  0.1368 -0.2025 -0.1397
13779W        W34059  10.354  13.411   5.063 -0.0726 -0.2076 -0.0974
13780W        W34060   6.463   6.717  14.676 -0.0689  0.2264 -0.1299
13781W        W34061  15.629   6.712   2.186  0.0205 -0.1993 -0.0518
13782W        W34062  13.209   2.875  12.132 -0.1435  0.0222  0.4503
13783W        W34063   5.213   4.194  12.949  0.1844 -0.0625  0.0854
13784W        W34064  13.598   0.371   0.522  0.1103  0.0163 -0.0129
13785W        W34065   3.520   5.068  13.928 -0.0892  0.3095  0.0461
13786W        W34066   2.409   7.741  14.464 -0.2568 -0.0568  0.0733
13787W        W34067   3.870   3.925  11.940  0.1030 -0.1223 -0.0123
13788W        W34068   7.237   6.821  12.476  0.3035  0.1887 -0.1117
13789W        W34069   3.048  11.511   3.514 -0.3336  0.2068 -0.1316
13790W        W34070   0.838   6.735   3.438 -0.1022  0.0480  0.4272
13791W        W34071   8.420  13.060  13.319  0.1669  0.1448 -0.1241
13792W        W34072   0.682   2.916   2.011  0.1909 -0.1217  0.2097
13793W        W34073  15.393   3.362  11.655 -0.1614 -0.4363 -0.0540
13794W        W34074  10.400   3.930  15.567  0.2507  0.0468 -0.0980
13795W        W34075   4.088   7.210   1.572  0.0303  0.2976  0.1200
13796W        W34076   7.414   6.802   3.907 -0.0158 -0.0300  0.2736
13797W        W34077   3.148   2.763   3.617  0.1487 -0.0207  0.3312
13798W        W34078  12.887  13.027   0.783 -0.1047 -0.2090  0.1427
13799W        W34079   2.280   0.727   1.930  0.0759  0.1474  0.0131
13800W        W34080  12.074  10.882   3.007 -0.1758  0.1125  0.0549
13801W        W34081   2.613   3.242  15.241 -0.0874 -0.1112  0.1677
13802W        W34082   3.748   3.077   1.378  0.0194  0.1343 -0.0499
13803W        W34083   1.590   0.221   4.832  0.2761 -0.1649  0.0983
13804W        W34084  11.669  16.686  15.372 -0.1365 -0.1768 -0.0783
13805W        W34085   9.135  14.540   2.963 -0.1200  0.1277 -0.2059
13806W        W34086   9.274   3.550  14.154 -0.0395 -0.2653 -0.2741
13807W        W34087  15.487   1.464  14.766  0.0135 -0.1621  0.1572
13808W        W34088   5.181  15.793  13.317  0.0476 -0.0734 -0.0779
13809W        W34089   5.975   8.062  12.897 -0.1871  0.1088  0.0619
13810W        W34090  12.228   5.022  13.557  0.0328 -0.3577  0.0025
13811W        W34091  15.510   0.570   1.606 -0.0162 -0.0330  0.2420
13812W        W34092  11.418   4.502  12.015 -0.0392 -0.1467 -0.2192
13813W        W34093   3.093  12.236   4.029 -0.1685 -0.1192  0.0138
13814W        W34094   2.602   9.582   4.333 -0.2476 -0.0054 -0.2590
13815W        W34095   1.961   0.815  14.609 -0.0786 -0.1018  0.0228
13816W        W34096  13.068   2.900  13.988 -0.5249 -0.3804 -0.2385
13817W        W34097   9.699   6.232   4.149  0.0507 -0.0905 -0.1760
13818W        W34098  15.813  11.278   4.318  0.0411 -0.3756  0.3687
13819W        W34099   7.008   7.410   3.292 -0.0742 -0.1980  0.0825
13820W        W34100  10.456  16.483   0.225  0.3049 -0.1043 -0.0147
13821W        W34101  18.248  10.711   3.518  0.1715  0.0299 -0.1376
13822W        W34102   5.325   0.264   3.896  0.2031  0.0942  0.1468
13823W        W34103  14.633  11.340   3.266  0.1136  0.0461  0.2616
13824W        W34104  13.625  12.248  15.150 -0.1839 -0.1909 -0.1440
13825W        W34105  17.008   0.523   3.991  0.0095  0.2030 -0.0570
13826W        W34106   5.178   0.886   3.166  0.3247  0.3309  0.0050
13827W        W34107  12.395   3.985  14.469 -0.2008  0.0278 -0.0631
13828W        W34108  15.814   8.042  15.555  0.1945 -0.2213 -0.1000
13829W        W34109   2.791   2.241   2.802  0.0774 -0.0773 -0.0980
13830W        W34110  17.083   0.519   1.644 -0.1208 -0.0793 -0.2380
13831W        W34111  16.711  11.832   0.276 -0.0450  0.1470 -0.1715
13832W        W34112  11.115   0.323  14.350 -0.3414  0.0169 -0.1901
13833W        W34113  12.724  18.013  12.232 -0.0174  0.0539 -0.2455
13834W        W34114   5.851   8.689  15.312 -0.1410  0.2224  0.1778
13835W        W34115   2.893   0.943  13.475 -0.2090  0.1103  0.1322
13836W        W34116  13.768   4.849   1.200  0.1827 -0.2619  0.1415
13837W        W34117   6.694  17.819   3.276  0.0573 -0.1155  0.0475
13838W        W34118  17.218  12.693   0.742 -0.2391 -0.0564  0.0316
13839W        W34119  14.071   7.830  14.398 -0.3543  0.0948  0.3295
13840W        W34120  11.679   2.111   1.957  0.3235  0.1544 -0.2193
13841W        W34121   4.447  13.192   3.784  0.1745 -0.2168  0.0733
13842W        W34122   7.126  16.775  13.458 -0.2483  0.1435  0.0951
13843W        W34123   5.693   7.114   3.109  0.0039  0.0973  0.1566
13844W        W34124   3.594   3.917   2.642  0.0413  0.0143  0.2431
13845W        W34125   7.889   5.246   2.766 -0.1155  0.1101 -0.4263
13846W        W34126   4.218  17.982   0.189 -0.1578 -0.0444  0.2421
13847W        W34127   3.218   0.054   2.959 -0.2424  0.1278 -0.3215
13848W        W34128  15.760  13.449  14.720 -0.2533 -0.0165 -0.3102
13849W        W34129   7.300  12.541  12.045  0.0625  0.0492  0.0609
13850W        W34130  17.077   9.030   3.449  0.0140 -0.1295 -0.0646
13851W        W34131   4.736  17.244   1.073 -0.0415 -0.1062 -0.1932
13852W        W34132   5.348  16.311  15.918  0.1862  0.1156 -0.2920
13853W        W34133  16.248   8.545   4.485 -0.0329 -0.1720 -0.2324
13854W        W34134   4.122   8.582  11.516  0.1142  0.0268 -0.0254
13855W        W34135  12.605   1.552   3.988 -0.1585 -0.1093 -0.1306
13856W        W34136   4.284  15.076  15.672  0.3248  0.0349  0.3536
13857W        W34137  18.236  15.721   0.993 -0.2403 -0.1174  0.2670
13858W        W34138   3.573  14.259   0.423 -0.1235  0.1711  0.2229
13859W        W34139   6.128  10.542   4.080  0.0841  0.1737  0.0495
13860W        W34140   9.094  18.030   2.644  0.0628 -0.1397  0.0063
13861W        W34141   5.442  11.274   2.513 -0.0347 -0.2710 -0.3098
13862W        W34142  14.358   2.254   2.521  0.3024 -0.1959 -0.4544
13863W        W34143  11.004   3.222  11.294  0.0204  0.1036  0.1162
13864W        W34144   5.289   4.742  14.576 -0.0451  0.5258  0.0130
13865W        W34145  17.497   5.759  15.657 -0.5253 -0.1125  0.0896
13866W        W34146   0.301   7.672  12.362 -0.0281  0.2836 -0.0872
13867W        W34147   7.982   4.248   1.845  0.1803  0.2642 -0.2096
13868W        W34148  18.221  14.233  13.975  0.0622  0.2237 -0.1384
13869W        W34149   7.219  16.979   4.255  0.0039  0.1228 -0.2450
13870W        W34150   1.439   5.960   2.719  0.0608  0.0463 -0.2002
13871W        W34151  17.097  15.694   3.812 -0.0810 -0.1039 -0.0887
13872W        W34152   6.352   7.215  11.920 -0.3138 -0.2493 -0.3485
13873W        W34153  11.531   0.113   3.995 -0.2814  0.0030  0.0278
13874W        W34154  15.562  17.825   4.050 -0.2093  0.1643  0.1296
13875W        W34155  11.270   3.272  15.090 -0.0044 -0.0102  0.1063
13876W        W34156   7.195  16.052   3.841 -0.0644 -0.3002  0.2906
13877W        W34157   4.684  12.279  11.662  0.1565 -0.0463  0.1905
13878W        W34158  10.222   1.124   4.208 -0.1120 -0.1624  0.0258
13879W        W34159   3.818  17.935   0.552  0.0655  0.0322 -0.0660
13880W        W34160   5.356   3.893  13.811 -0.1391  0.0828  0.1013
13881W        W34161  15.306  12.251  11.880  0.2700 -0.2358  0.3374
13882W        W34162  17.979  12.034  12.328 -0.1773 -0.1543 -0.1488
13883W        W34163   2.676  10.541   1.846  0.3507  0.1592 -0.0415
13884W        W34164  16.711   0.951   1.711 -0.2074  0.1346  0.0513
13885W        W34165   4.489  14.192  14.986 -0.0176 -0.0396 -0.0398
13886W        W34166   5.031   2.995   3.232  0.2430 -0.3754  0.0306
13887W        W34167  12.454   9.931   1.053  0.2570 -0.0164 -0.0639
13888W        W34168  14.974   7.701  11.788 -0.2024  0.1349 -0.1911
13889W        W34169  12.674   8.924  13.409 -0.3109  0.1062  0.3580
13890W        W34170   7.876  15.792   3.033  0.2823  0.1154 -0.3463
13891W        W34171  13.396  13.517  13.623  0.0859  0.1978  0.0266
13892W        W34172   3.317  14.733  15.085 -0.1368  0.0427  0.0301
13893W        W34173   1.925  17.327  14.361  0.0319 -0.0936  0.0362
13894W        W34174   8.769   8.926  13.174 -0.1186  0.0194  0.1271
13895W        W34175  13.352   9.490   5.801  0.0039 -0.1662  0.0177
13896W        W34176  11.502  11.970  12.924  0.3705  0.1135 -0.0352
13897W        W34177   6.239  12.105   0.263 -0.1647 -0.1334 -0.1848
13898W        W34178   1.056   7.773   5.479 -0.1871 -0.0148  0.0739
13899W        W34179   6.074  12.984   3.074  0.0762  0.1074  0.2484
13900W        W34180   6.344  15.753   1.830  0.0434 -0.0992 -0.1137
13901W        W34181   0.524   0.648   4.157  0.0351 -0.0192  0.0953
13902W        W34182   9.167   1.455  15.434  0.0171  0.1409 -0.1044
13903W        W34183   0.565  16.616  13.467  0.2178 -0.0295  0.1271
13904W        W34184   2.719  10.549  15.785 -0.1958 -0.2411  0.1826
13905W        W34185   1.707   6.913   3.496 -0.0283  0.1598  0.2101
13906W        W34186  12.251   5.005   2.239 -0.1916  0.1499  0.0349
13907W        W34187   3.130  17.195   1.285 -0.0612 -0.1625 -0.0985
13908W        W34188   5.200  16.724   3.089 -0.0752  0.2555 -0.3138
13909W        W34189  15.666   2.183  13.155  0.2798  0.0790 -0.5299
13910W        W34190  17.229  11.853  15.413  0.3178  0.0950 -0.0267
13911W        W34191  14.889  12.008  14.543 -0.0700 -0.0161  0.0755
13912W        W34192  11.916   0.104  11.663 -0.0612 -0.3709  0.2338
13913W        W34193   9.794  17.136  12.050  0.1455  0.2738 -0.1280
13914W        W34194   8.368   7.044   5.376  0.3476  0.0834 -0.2188
13915W        W34195   8.179  18.330   0.591 -0.3481 -0.0686  0.2614
13916W        W34196   9.297   0.847  12.130  0.0983 -0.2477  0.3129
13917W        W34197  12.815   8.776   3.334  0.1543  0.3723 -0.1483
13918W        W34198   9.840   0.888   3.978  0.0667 -0.1394 -0.4409
13919W        W34199   9.844   9.141  14.049  0.2699 -0.1528  0.1139
13920W        W34200   9.810  12.976  12.775  0.1225 -0.1632  0.1195
13921W        W34201  14.338   6.998   3.870  0.3029 -0.2099  0.0685
13922W        W34202  15.141   4.047  14.610 -0.1961  0.0595 -0.2372
13923W        W34203   7.679  13.137  13.910  0.1256 -0.0388  0.0733
13924W        W34204   9.593   3.386   0.714  0.1262 -0.0427  0.0728
13925W        W34205  11.202   5.215   5.133 -0.0202 -0.3487 -0.0925
13926W        W34206  14.807   0.898  15.254 -0.1579  0.1755  0.2646
13927W        W34207  10.932  15.058  13.451  0.2508  0.1536  0.0830
13928W        W34208  16.807  13.186  15.896 -0.1456 -0.0073  0.0692
13929W        W34209   1.984   5.505  13.333 -0.0285 -0.3767  0.0538
13930W        W34210  12.375  18.005   4.883  0.1767  0.0056 -0.0299
13931W        W34211  13.275   5.623  14.207  0.1373 -0.1294  0.0398
13932W        W34212  14.134  16.195   2.876  0.1464  0.2590  0.0607
13933W        W34213  12.663  16.760  10.462 -0.1919 -0.0839  0.0698
13934W        W34214  16.614  15.723   0.686 -0.0477 -0.0795 -0.0728
13935W        W34215   3.145   4.525   1.254 -0.0775 -0.0107  0.1745
13936W        W34216  10.609  15.419   1.726 -0.0186  0.0663  0.1089
13937W        W34217   6.008  15.989   4.029 -0.2354  0.0822  0.2670
13938W        W34218   8.473  11.185  14.979 -0.0820 -0.0947  0.1769
13939W        W34219  13.065   2.069   1.465  0.0341  0.0468 -0.0165
13940W        W34220   0.991   3.392  11.566 -0.1294 -0.0530  0.2536
13941W        W34221   6.220   5.750  12.642  0.1697 -0.1482  0.0091
13942W        W34222  12.486   3.695   1.187 -0.2133 -0.1081 -0.1635
13943W        W34223  14.855   6.946   0.504 -0.0458  0.0041 -0.2507
13944W        W34224   6.661  14.421   1.538  0.3324  0.0136  0.0807
13945W        W34225   5.434   4.371   3.369 -0.1954  0.0149  0.1421
13946W        W34226  13.603   6.662   0.391 -0.0513 -0.1136 -0.1570
13947W        W34227  13.462  15.667  12.842 -0.1661  0.0655  0.0709
13948W        W34228   3.702  16.512  13.497 -0.2400 -0.0784  0.0063
13949W        W34229   3.747   8.788  13.775  0.1653  0.1990  0.0150
13950W        W34230  17.176   0.909  10.954 -0.0607 -0.1802 -0.0767
13951W        W34231   4.718  11.277  12.557 -0.0312  0.0679 -0.2067
13952W        W34232  17.341  13.518   0.490  0.1849  0.0869 -0.2377
13953W        W34233   4.871   0.393  12.792 -0.1422 -0.0453  0.0880
13954W        W34234  17.721  10.172   0.036 -0.1403 -0.2761  0.0425
13955W        W34235  14.684  13.261  13.773  0.0091 -0.0036  0.1179
13956W        W34236  12.783  13.277  13.022  0.0336 -0.0621 -0.1131
13957W        W34237   3.920   0.742   0.818 -0.0038  0.1602 -0.1255
13958W        W34238  17.935   1.575  13.511  0.2038  0.1656  0.0338
13959W        W34239   5.559  14.036   2.777  0.0957  0.1941  0.1197
13960W        W34240   0.812   1.442  13.279  0.0993  0.1986 -0.1136
13961W        W34241   4.173  12.409  13.095  0.0616  0.1939 -0.0549
13962W        W34242  16.158  15.613   4.223  0.4359 -0.1618  0.3314
13963W        W34243   3.746  16.743   4.009  0.0378 -0.2774  0.1110
13964W        W34244  11.385   0.600  12.742  0.0673 -0.0605  0.2012
13965W        W34245  17.791  16.880   4.216 -0.1104  0.2988 -0.1798
13966W        W34246  17.299   0.020  12.856  0.1810  0.1271  0.1957
13967W        W34247   9.249   1.151   4.628 -0.1641 -0.2176 -0.2447
13968W        W34248   0.085   0.398   0.111  0.0781  0.2346  0.1652
13969W        W34249   6.356  11.248  10.608 -0.0965  0.0521  0.1649
13970W        W34250   0.842   5.891   3.194 -0.0744 -0.0130  0.1722
13971W        W34251   6.351   8.421   2.329  0.0431  0.2645  0.2563
13972W        W34252   6.350  16.411  14.888 -0.0785  0.2450  0.0892
13973W        W34253  17.018   7.587   4.070  0.0236 -0.0584 -0.2954
13974W        W34254   4.056  12.799   3.640  0.0568  0.1361  0.2392
13975W        W34255   4.549  10.792  15.334  0.1595  0.0854  0.3062
13976W        W34256   0.518  10.491   1.748 -0.0563  0.3461  0.0453
13977W        W34257   1.946   6.895   2.398  0.1064  0.0032 -0.0938
13978W        W34258   0.836  11.624  12.434 -0.1386  0.0479 -0.2115
13979W        W34259   9.508   2.437   0.790 -0.2901 -0.0640 -0.0544
13980W        W34260  15.786   1.951   2.554  0.0141 -0.0045 -0.0908
13981W        W34261   9.869  12.941  15.430  0.0007 -0.1204 -0.1351
13982W        W34262   4.439  17.358   4.174 -0.0147 -0.3352 -0.2152
13983W        W34263   1.305   6.319   1.885 -0.1946 -0.0780  0.1895
13984W        W34264  11.211   3.820  13.825  0.2147  0.1130  0.3579
13985W        W34265  11.246  16.876   2.638 -0.0866 -0.2827 -0.0378
13986W        W34266  15.748   1.786  13.492 -0.1017  0.3053 -0.5064
13987W        W34267   0.136   5.916   0.886  0.2872 -0.3486  0.2026
13988W        W34268  12.424   2.659   4.207  0.1841 -0.2534 -0.0122
13989W        W34269   0.092   1.370  15.018  0.3396  0.1237 -0.2157
13990W        W34270  13.277   6.381  14.642 -0.0880 -0.1503  0.0962
13991W        W34271   5.893  12.262   4.152  0.1456  0.1005  0.0716
13992W        W34272   7.723  15.348   4.271  0.0780  0.1305  0.1075
13993W        W34273   1.226  16.098   0.454 -0.1193  0.1992  0.2229
13994W        W34274   2.106  11.857   0.224  0.0695 -0.1058 -0.0545
13995W        W34275  15.423   0.092   0.208 -0.4355  0.0267  0.3691
13996W        W34276   3.875  13.362  14.887  0.0922 -0.0087  0.0436
13997W        W34277   7.768   3.989  13.257 -0.0220 -0.1055  0.2837
13998W        W34278  13.221   6.579   0.749 -0.0997  0.3204  0.0752
13999W        W34279   1.659   0.839   1.271 -0.2575  0.2160  0.0291
14000W        W34280  11.234  15.686   4.846 -0.3118 -0.2395  0.1034
14001W        W34281   1.153   9.185   3.129  0.1927  0.2315  0.0720
14002W        W34282   7.937   4.181  13.684  0.2866 -0.2542 -0.0155
14003W        W34283  15.374   8.988   2.075 -0.1392  0.0477  0.1366
14004W        W34284  15.728   2.878  11.632  0.3820 -0.0332 -0.1563
14005W        W34285  14.586  14.832  12.153 -0.1825  0.0934  0.1336
14006W        W34286   4.942  17.805  12.059  0.2861 -0.2835  0.0432
14007W        W34287  18.254   6.506   2.539  0.0469  0.0913  0.0561
14008W        W34288   1.017  16.967   2.249  0.0137 -0.1919 -0.1366
14009W        W34289   5.663  13.091   4.435  0.0887  0.0634  0.2282
14010W        W34290  14.393  17.744   2.504  0.1767  0.1662 -0.0781
14011W        W34291  10.014   9.807   4.303  0.0269 -0.0373 -0.2837
14012W        W34292   2.156   6.279  11.918  0.2710  0.2362 -0.1603
14013W        W34293   0.163  11.215   4.212  0.2772  0.2455  0.2741
14014W        W34294  13.933   4.325  11.140 -0.2935 -0.1058  0.0826
14015W        W34295  10.256   6.737  12.524 -0.1193  0.1734 -0.0315
14016W        W34296   6.683  15.482  14.478 -0.2416  0.0009  0.0397
14017W        W34297  18.028  13.158  13.960  0.1675  0.2057  0.4648
14018W        W34298  13.979   8.254  12.684 -0.0667  0.0633  0.0378
14019W        W34299   4.822  15.538  14.930  0.0984  0.1030 -0.2500
14020W        W34300   9.494   8.657   0.374  0.0515  0.1194  0.2015
14021W        W34301   3.589   0.380  11.964  0.1176  0.2734  0.0085
14022W        W34302  17.723   4.322   3.230  0.4251  0.0329 -0.0888
14023W        W34303  17.157   5.328  13.880  0.0340  0.1863 -0.1758
14024W        W34304  11.559  12.096   4.823  0.2056 -0.2168  0.1699
14025W        W34305  12.506   2.961   2.457 -0.1772  0.3267  0.3992
14026W        W34306   1.867   8.345   2.812  0.2998  0.0190  0.1662
14027W        W34307  12.787  11.515   3.871  0.1442  0.0035 -0.1613
14028W        W34308   3.178   6.716   3.742  0.3956 -0.1811  0.3043
14029W        W34309   1.448  16.587  12.482  0.2456 -0.1041 -0.1965
14030W        W34310  12.474   3.395  13.520 -0.4208  0.0132  0.1338
14031W        W34311   2.730   1.546  14.655  0.0819  0.0666 -0.1606
14032W        W34312   4.855   8.430   0.113  0.0275 -0.0325 -0.1658
14033W        W34313   4.662  14.523   3.621  0.2394 -0.1550  0.0408
14034W        W34314   4.005   3.758   2.905 -0.1799  0.2454 -0.2923
14035W        W34315   4.392   6.490   2.876  0.0688  0.0467  0.0146
14036W        W34316   7.661  13.307  12.312 -0.0318 -0.1403 -0.1852
14037W        W34317  17.483   0.822   3.154 -0.1373  0.1533  0.2091
14038W        W34318   5.094  11.790   1.399 -0.2141 -0.2967 -0.0003
14039W        W34319  11.781  11.500  15.800  0.1301 -0.2070  0.1063
14040W        W34320   4.529  11.588  15.684 -0.0441 -0.0525  0.3184
14041W        W34321  11.557   6.240   0.357  0.1990 -0.1900 -0.1305
14042W        W34322   7.702  10.394   2.757  0.2936  0.1082  0.1837
14043W        W34323   1.554   7.383  11.105 -0.2530 -0.0486  0.0564
14044W        W34324   4.381  17.332   4.643  0.1358 -0.0343 -0.0540
14045W        W34325   8.695  15.815  12.794  0.1025  0.1094 -0.0971
14046W        W34326   4.207  10.297  12.260  0.0846 -0.2441  0.0328
14047W        W34327   7.155  10.325  11.971 -0.2021 -0.0076  0.1949
14048W        W34328   1.317   0.546   0.958 -0.2780  0.2911  0.0355
14049W        W34329   9.575   1.242   2.054  0.1568 -0.2748  0.1784
14050W        W34330  14.735   2.725   0.681  0.0346 -0.1346  0.1559
14051W        W34331  12.370   0.515  11.442 -0.0022 -0.1297 -0.1672
14052W        W34332   6.010   4.877   1.253 -0.2356 -0.1402 -0.1993
14053W        W34333  17.828   8.417   3.836  0.1206 -0.2506 -0.2794
14054W        W34334   9.238   2.709   4.412 -0.1835  0.0937  0.3860
14055W        W34335   2.746   5.614   0.625 -0.0069 -0.0869  0.1113
14056W        W34336   5.505   1.058   0.417  0.0998 -0.2116 -0.2177
14057W        W34337   6.190  17.100   0.002 -0.1406 -0.0297 -0.1210
14058W        W34338   1.398   3.691  15.792 -0.1259  0.3809  0.1454
14059W        W34339  10.187  17.968   3.434 -0.2410 -0.0217  0.5649
14060W        W34340   7.248   3.355   2.616  0.0548 -0.1367 -0.0364
14061W        W34341   8.642   0.151   0.390  0.1005  0.1889 -0.1628
14062W        W34342  10.419  11.167   4.920 -0.0174  0.0257 -0.0632
14063W        W34343  15.955   9.705  13.485 -0.2194 -0.3193 -0.4014
14064W        W34344  16.233   9.398   3.573 -0.1604 -0.1935 -0.0557
14065W        W34345  14.441   6.995   4.499 -0.0453  0.0705  0.0541
14066W        W34346   8.012  10.881  13.427 -0.0697  0.0014  0.1129
14067W        W34347   2.320  10.394   0.084 -0.0976 -0.0425 -0.3295
14068W        W34348   5.052  12.503   2.894  0.0979  0.0636  0.1694
14069W        W34349  15.574   3.911   1.970 -0.2611  0.0321 -0.0754
14070W        W34350   0.459  13.178  13.333  0.1695 -0.1361  0.1262
14071W        W34351   0.809   5.502   2.193 -0.1549  0.0808 -0.0940
14072W        W34352   8.621   5.331   3.298 -0.2459 -0.2919 -0.0291
14073W        W34353   8.980  14.720   3.424  0.0534 -0.0218  0.0171
14074W        W34354   2.178   9.864   4.367  0.1318 -0.1318 -0.2416
14075W        W34355   8.492   3.518   1.076 -0.1139  0.0634  0.0441
14076W        W34356  14.864   3.229   2.806 -0.0462  0.0205  0.0070
14077W        W34357   0.156   5.414   3.813 -0.0506  0.1311 -0.1801
14078W        W34358   9.032  18.257   1.191  0.1301 -0.1578  0.1978
14079W        W34359  16.970   1.366  13.830  0.0817  0.1467  0.2076
14080W        W34360   9.092   4.740   1.763 -0.3957 -0.0892 -0.1609
14081W        W34361   8.337   4.731   3.738  0.1167  0.2258 -0.2843
14082W        W34362  12.784   8.832  14.531 -0.0299  0.3711  0.0587
14083W        W34363  15.329   0.594   0.134 -0.3241  0.1569  0.1626
14084W        W34364  15.839  18.312  11.973  0.0548 -0.0290  0.0385
14085W        W34365  13.878   1.137   2.265  0.2301 -0.0428 -0.2346
14086W        W34366  16.352   7.780  13.876 -0.0436 -0.3681 -0.3203
14087W        W34367   1.228  14.973   3.838 -0.1143 -0.1639 -0.0023
14088W        W34368   1.841  11.313   4.135 -0.1541 -0.0119 -0.1059
14089W        W34369  11.319   4.978   3.216 -0.0721  0.0758  0.2037
14090W        W34370  13.118  11.105  14.188 -0.1199  0.1097  0.1130
14091W        W34371  11.323   4.695  13.518  0.1422 -0.0124 -0.2062
14092W        W34372  17.146   2.114  14.854 -0.0262  0.0912  0.1929
14093W        W34373  17.305   5.431   4.302 -0.0899  0.1515  0.0827
14094W        W34374   0.942  10.174   4.004 -0.1451  0.0548  0.0725
14095W        W34375   7.692   8.023  15.203 -0.0098 -0.1470 -0.2812
14096W        W34376  12.211  11.820  14.881 -0.3748  0.1650  0.1229
14097W        W34377   7.395  11.953   2.203  0.2150 -0.1385  0.0325
14098W        W34378   8.205  11.280   4.256  0.0163 -0.1894 -0.0524
14099W        W34379   7.988   8.863   0.278  0.0330 -0.0932  0.2995
14100W        W34380  16.666  10.599   4.266 -0.0958 -0.0886 -0.0443
14101W        W34381  16.558   7.227  14.905  0.1847 -0.0294  0.3866
14102W        W34382  16.869  17.948  15.508  0.1219  0.1129  0.0463
14103W        W34383  18.082  10.788  15.470  0.2196 -0.2162  0.0422
14104W        W34384  14.679   0.569   1.540 -0.1233  0.0599  0.1986
14105W        W34385  16.056   7.416   0.215  0.0722 -0.2612  0.1973
14106W        W34386  11.624   7.534  14.021 -0.0138 -0.0469 -0.2238
14107W        W34387   3.888   0.215  13.821 -0.0481 -0.1989  0.2208
14108W        W34388  17.207   5.212  13.007 -0.1787  0.1498  0.2866
14109W        W34389  15.851  12.502   3.714  0.3111 -0.0291 -0.3318
14110W        W34390   0.469   4.702   2.616 -0.0773 -0.0469  0.3196
14111W        W34391  14.601   3.608  13.633 -0.0789  0.0478 -0.1619
14112W        W34392  16.283   8.835  13.603  0.0326  0.1516 -0.1766
14113W        W34393  10.153  14.807  12.759  0.0070  0.0815 -0.0382
14114W        W34394   1.621   0.000   5.298 -0.0385  0.1622 -0.0562
14115W        W34395   5.964   0.632   1.476 -0.0003 -0.0050 -0.1558
14116W        W34396   4.220   6.568  12.942 -0.0452 -0.0364  0.2821
14117W        W34397   6.613  17.143   4.565 -0.1902  0.1035 -0.0201
14118W        W34398   6.316  17.095   1.550 -0.1464  0.1528  0.3960
14119W        W34399  10.901   1.750  15.493  0.4180 -0.1060 -0.0264
14120W        W34400  14.459  13.018  13.369 -0.0737 -0.0501 -0.0760
14121W        W34401   8.504  13.406   1.229  0.0442  0.0891 -0.1933
14122W        W34402   7.392   6.584  14.786  0.1194 -0.1545  0.0485
14123W        W34403  12.503  13.130  12.015 -0.1123 -0.0411  0.2875
14124W        W34404   4.889  17.298  12.058  0.1395  0.2362  0.0658
14125W        W34405   8.982   2.547   1.509  0.3419  0.2027  0.2229
14126W        W34406   7.982  12.127   4.834 -0.1960  0.3734  0.0290
14127W        W34407   1.743  16.275  12.223 -0.0962 -0.3278 -0.2291
14128W        W34408  16.248   9.756  15.254 -0.1124  0.0127 -0.1189
14129W        W34409  15.368   0.019  12.268 -0.2002 -0.1519  0.3441
14130W        W34410  10.174  14.679  14.920 -0.0070 -0.1424  0.1383
14131W        W34411  17.730  11.351  15.191  0.0469  0.0839 -0.0014
14132W        W34412  14.176   8.965  13.664  0.1561 -0.0570  0.0335
14133W        W34413   4.987  16.451   2.233  0.2109  0.0639  0.1068
14134W        W34414   8.182   5.130  12.330 -0.3901  0.0544 -0.1125
14135W        W34415   3.374   6.970  12.283 -0.0775 -0.0077  0.0222
14136W        W34416   4.719  12.082  15.747 -0.3325 -0.0325 -0.1662
14137W        W34417   2.608  11.691   2.191  0.1703 -0.0032  0.1962
14138W        W34418   9.654   2.354   4.060  0.2191 -0.1189  0.2766
14139W        W34419  11.119  18.254   3.753  0.0642 -0.0699  0.1989
14140W        W34420  14.409  14.371  13.760  0.1615  0.1053 -0.1125
14141W        W34421   9.210  17.625  12.433  0.1265 -0.0176 -0.2442
14142W        W34422  17.411  17.124   1.795 -0.0692 -0.0787  0.0403
14143W        W34423  12.325  17.663  15.352 -0.0372  0.0089  0.1704
14144W        W34424   3.488   1.797   3.447  0.0602 -0.2322  0.1032
14145W        W34425  15.500  15.039   1.625  0.1275 -0.0672  0.1439
14146W        W34426   9.411  10.503   2.978  0.1531  0.3935  0.0021
14147W        W34427  12.273   8.926   2.412  0.1005 -0.1913 -0.2678
14148W        W34428   2.899  12.296  15.157  0.2626 -0.0050  0.0398
14149W        W34429  16.332   5.249   4.107 -0.2440 -0.2219 -0.2213
14150W        W34430  15.895   8.141   1.876 -0.0151 -0.0251  0.0381
14151W        W34431   7.262   0.132  13.940  0.0168  0.0288  0.0275
14152W        W34432  13.169   5.065   0.568 -0.1334  0.2894 -0.2696
14153W        W34433  11.538  16.568   2.909 -0.1846  0.2269  0.0744
14154W        W34434  14.157   1.878  15.666 -0.2015 -0.2435  0.0620
14155W        W34435   9.358   2.732   2.273 -0.4287  0.0156  0.0772
14156W        W34436   1.822   6.297  13.632  0.4594  0.1303 -0.1653
14157W        W34437   9.538   4.289   0.679  0.1491 -0.0907  0.0794
14158W        W34438  14.541  16.176   0.794  0.0410  0.0290 -0.1549
14159W        W34439   3.687   8.523  14.246  0.0516 -0.0097 -0.0512
14160W        W34440   9.269  14.905   2.660 -0.1722 -0.3781  0.0891
14161W        W34441   2.558  13.096   4.398  0.0317  0.2970  0.1552
14162W        W34442  16.216   6.423   5.935 -0.0082  0.1553 -0.2311
14163W        W34443   6.855  18.185  14.601 -0.0301  0.0863 -0.2234
14164W        W34444   0.845  11.969  13.683 -0.1604  0.1252 -0.2585
14165W        W34445  11.585   3.685  13.432  0.0159 -0.0362  0.2075
14166W        W34446   2.631   2.105  14.082  0.0850  0.2746 -0.0368
14167W        W34447   3.547  12.787   1.803 -0.1541  0.0051  0.0130
14168W        W34448   3.718   3.352  13.357 -0.0081  0.0407  0.1306
14169W        W34449  13.879   4.062  14.477 -0.0265  0.0107 -0.1269
14170W        W34450   6.736   3.050   0.975  0.1902 -0.3114 -0.2143
14171W        W34451   6.946  16.472   1.268 -0.1715 -0.1241  0.0142
14172W        W34452  15.814   6.896   4.805 -0.0236  0.2981  0.2730
14173W        W34453   6.340  14.873  11.324  0.1148 -0.0418  0.2002
14174W        W34454   7.120  11.504  14.368  0.2514  0.1554  0.0686
14175W        W34455  17.285  11.206  10.835 -0.1986 -0.3208 -0.1478
14176W        W34456   2.436   8.612  15.189  0.1767  0.1085 -0.3060
14177W        W34457  13.174   7.210   2.978  0.0868  0.0347  0.1130
14178W        W34458   2.251  18.199   0.311 -0.0106 -0.2332 -0.4381
14179W        W34459   4.198   0.011   2.946 -0.0814  0.4471 -0.2358
14180W        W34460   0.614  11.898   4.266  0.0032 -0.0661  0.1566
14181W        W34461   7.680   6.553   0.193 -0.0344 -0.2224  0.0528
14182W        W34462   8.863  15.171   1.854 -0.3221  0.0356 -0.1131
14183W        W34463  14.721  18.117   4.575  0.3133 -0.0739  0.2185
14184W        W34464   4.551  11.547  13.041 -0.0324 -0.1075  0.0965
14185W        W34465  13.113  14.429   0.385 -0.1673  0.3043  0.2131
14186W        W34466   5.234   2.376  11.882  0.2055  0.2637 -0.2652
14187W        W34467  11.119  10.303   0.671  0.1034 -0.0262  0.0128
14188W        W34468   6.682  10.437  14.548 -0.1246 -0.2742 -0.1574
14189W        W34469  14.944   0.040   0.949 -0.3105 -0.1438 -0.0998
14190W        W34470  12.941   9.504   1.921 -0.0860 -0.2329 -0.1725
14191W        W34471   9.573   8.461   4.595  0.0692 -0.0029  0.1642
14192W        W34472  10.399   0.280  15.676  0.3301  0.2807 -0.3346
14193W        W34473  16.996   5.412  14.747  0.1567  0.0184 -0.1052
14194W        W34474   3.401  13.662  11.765  0.4549 -0.1094 -0.3649
14195W        W34475   7.137  14.029   3.575 -0.1505 -0.0093 -0.0288
14196W        W34476   9.929  18.223   1.609  0.1665 -0.1812 -0.1745
14197W        W34477   9.741  16.174  12.016  0.3449  0.2764  0.0432
14198W        W34478   7.987   1.437  14.002  0.1019  0.4911 -0.3190
14199W        W34479   6.006   9.415  12.103 -0.3516  0.0713 -0.2826
14200W        W34480  15.439   4.353   3.845 -0.1538 -0.0878 -0.1661
14201W        W34481   6.653  12.015  12.688 -0.0893 -0.2204  0.0015
14202W        W34482  14.666  17.461  14.512  0.2288 -0.1699 -0.1851
14203W        W34483   8.835   7.644  15.038  0.2208 -0.1032 -0.1907
14204W        W34484  17.738   2.094  13.486  0.0413 -0.0206 -0.0995
14205W        W34485   2.460  15.178   0.622 -0.0565  0.1080  0.3495
14206W        W34486  10.640   1.035  13.749 -0.0331  0.3852 -0.1845
14207W        W34487  10.128  13.319  12.525 -0.1080 -0.0381  0.0582
14208W        W34488   9.321  10.001  14.335 -0.2179 -0.0144 -0.1669
14209W        W34489  17.908   0.441   2.035  0.0108  0.0492 -0.2701
14210W        W34490   0.428   6.164   3.343 -0.1747 -0.1074 -0.1291
14211W        W34491   5.810   6.212  14.241  0.0059  0.0059 -0.0850
14212W        W34492   1.088   0.099  12.429 -0.1056  0.0828 -0.1417
14213W        W34493   9.706   2.464  14.338 -0.4189 -0.0794  0.0665
14214W        W34494  14.800   7.038   4.938 -0.4036 -0.0907  0.3656
14215W        W34495   8.314   7.587  13.913  0.2031 -0.2510 -0.0670
14216W        W34496  17.416  17.337   1.211 -0.0879  0.2517  0.1127
14217W        W34497   7.602  17.168   5.086  0.1057 -0.1299 -0.3982
14218W        W34498   6.903   3.281   0.563  0.0658  0.0553  0.1353
14219W        W34499   5.810   4.412  14.801 -0.0560  0.6125 -0.0847
14220W        W34500   5.410   4.632   0.593  0.1637 -0.0586  0.3421
14221W        W34501   3.877   2.755   4.575 -0.0799 -0.1371 -0.0942
14222W        W34502   4.688  14.322   4.097  0.4227 -0.0931 -0.2041
14223W        W34503  16.567   5.408   2.925  0.0863  0.1577 -0.1531
14224W        W34504   6.247   8.898  12.294 -0.1035 -0.0996 -0.1739
14225W        W34505   6.571  17.319   1.142  0.0389  0.1880  0.1119
14226W        W34506   1.659   5.054  13.674  0.2633  0.2863  0.0022
14227W        W34507  16.357   4.101   1.078  0.0676  0.2553  0.2501
14228W        W34508   6.341  15.404   3.456  0.1975 -0.0123  0.2232
14229W        W34509   6.820  13.106  13.759  0.3884 -0.1930  0.2026
14230W        W34510   6.647  14.740  15.013 -0.1438  0.1213 -0.0182
14231W        W34511   4.254  11.525  14.683  0.1381 -0.3400 -0.1576
14232W        W34512  10.257  11.689  12.240  0.0039 -0.3036 -0.1511
14233W        W34513  17.269  11.113   3.341 -0.1070  0.1635 -0.0693
14234W        W34514  16.757  14.238  11.632 -0.0567  0.1069 -0.1667
14235W        W34515   6.934   3.390  13.121  0.3430  0.2334  0.1900
14236W        W34516   6.881   5.296  12.876 -0.2798 -0.3094  0.3309
14237W        W34517   1.964   5.129   0.231  0.2513 -0.1947  0.0102
14238W        W34518  15.200   5.740  14.611 -0.2286 -0.1202 -0.0812
14239W        W34519  10.767   0.434  15.362 -0.0178  0.1740 -0.0969
14240W        W34520  16.431  12.216   2.172  0.1854  0.0815  0.1573
14241W        W34521  15.051   6.338  14.895 -0.4759 -0.1059 -0.3254
14242W        W34522  11.673  15.332   2.708  0.0457  0.1405  0.0972
14243W        W34523  17.857   4.741  15.549 -0.1062 -0.0232  0.2528
14244W        W34524   2.749   8.617   0.082 -0.0326 -0.1347 -0.2997
14245W        W34525   3.355   4.635  15.723  0.0502 -0.1672  0.1526
14246W        W34526   6.458   0.081   2.860 -0.0835 -0.2585  0.4673
14247W        W34527   3.102   0.187   0.421  0.1672  0.1301  0.2141
14248W        W34528   5.688   1.800  11.375 -0.0732 -0.1950 -0.4390
14249W        W34529  13.820   6.406   3.818  0.0301 -0.0440 -0.1436
14250W        W34530   6.000   0.096  12.132 -0.0570 -0.1880 -0.0854
14251W        W34531  13.231   5.722   4.515 -0.0834 -0.0259 -0.0284
14252W        W34532  13.959  16.182  15.521  0.2739 -0.1327  0.0316
14253W        W34533  16.136   3.442  14.929 -0.0470  0.1221 -0.0006
14254W        W34534   3.757   2.848   3.583 -0.2417  0.0310 -0.2954
14255W        W34535  12.437  11.989   3.259 -0.1711  0.0959 -0.1693
14256W        W34536  13.484  17.458   5.483  0.0608  0.0432  0.0005
14257W        W34537   6.608  13.341  12.164 -0.1237  0.2226  0.1126
14258W        W34538  14.374  10.808   5.981 -0.0971  0.2342 -0.3253
14259W        W34539   7.879  11.223   2.341  0.2136 -0.1415  0.0499
14260W        W34540   5.312   3.092   4.433 -0.2988  0.0436 -0.3649
14261W        W34541  15.123   8.137  11.939  0.1326 -0.1101 -0.2829
14262W        W34542   3.884   5.418  15.370 -0.1592 -0.0313  0.3576
14263W        W34543   0.171  18.261  14.686 -0.2157  0.0560 -0.1698
14264W        W34544   9.742   0.418  13.978 -0.0347 -0.0308 -0.3375
14265W        W34545  12.651  17.338  15.460  0.0001 -0.0921 -0.0458
14266W        W34546  15.283   2.610   0.940 -0.1307  0.2557 -0.2229
14267W        W34547   4.121   7.143  12.996  0.0647 -0.2491  0.3064
14268W        W34548   5.065  14.377  13.549  0.4414 -0.2439 -0.0295
14269W        W34549  16.563   5.093   3.580  0.3565  0.0179 -0.0104
14270W        W34550  15.995   2.767   2.191  0.0323  0.3633 -0.0821
14271W        W34551   0.697   1.380   5.050  0.0195 -0.1015 -0.0715
14272W        W34552  13.949  16.893   3.540 -0.2880  0.1208 -0.0468
14273W        W34553  17.074  16.637  13.536  0.3309  0.0191 -0.0060
14274W        W34554  17.377  15.903  11.823  0.2490  0.0296  0.0371
14275W        W34555   6.194   4.531   4.000  0.2943  0.2250  0.0404
14276W        W34556  14.905  12.950   0.900 -0.0653 -0.0867  0.0527
14277W        W34557   2.151  13.902  11.652  0.0002  0.0090  0.2118
14278W        W34558   5.985  17.558   2.001  0.3057 -0.1000  0.2985
14279W        W34559  11.016   7.174  13.524  0.0850 -0.1983  0.1273
14280W        W34560   8.861  18.221  14.309 -0.0285  0.0695  0.1941
14281W        W34561  13.184  10.417   3.659 -0.0188  0.0915 -0.1868
14282W        W34562   6.127  11.759   0.878 -0.2408  0.0542  0.0466
14283W        W34563   4.483  14.069  12.361 -0.4329  0.1368  0.0664
14284W        W34564   6.435   1.337   1.110 -0.2088  0.0653 -0.3310
14285W        W34565  17.446   1.977   2.490 -0.3114 -0.1706  0.0138
14286W        W34566  14.919  13.500   2.940  0.0000 -0.1562  0.2669
14287W        W34567  16.191   6.611  10.723 -0.0058  0.2029 -0.0654
14288W        W34568   1.453  16.094   2.544 -0.0521 -0.1683 -0.2610
14289W        W34569  10.687   6.538   4.228  0.0495  0.1200  0.0540
14290W        W34570  12.675  16.149   1.031 -0.1528 -0.1744 -0.1355
14291W        W34571  11.281  10.197  15.572 -0.2629 -0.1227 -0.3051
14292W        W34572   9.057   8.535  11.076 -0.3629 -0.2631  0.4767
14293W        W34573   5.322  12.098  14.142 -0.1940 -0.2261  0.1851
14294W        W34574   0.245  10.803  14.718 -0.0673 -0.2075 -0.1812
14295W        W34575  12.454  15.744   3.674  0.0417  0.3290  0.0416
14296W        W34576   5.894   5.702   1.990  0.0937 -0.0440  0.0065
14297W        W34577  13.909   0.140   3.034  0.0254 -0.0159 -0.0329
14298W        W34578  15.751  16.034  15.489  0.0813 -0.0182  0.1081
14299W        W34579   4.627   6.386  13.313  0.2742  0.1515 -0.1210
14300W        W34580  12.231   8.415  12.605 -0.1756 -0.0143 -0.1035
14301W        W34581   6.888  17.227  13.435 -0.1455 -0.0672  0.0410
14302W        W34582  15.022   5.780   1.585  0.1417  0.0003  0.0124
14303W        W34583  16.095   6.932   3.655  0.1492  0.1107  0.0429
14304W        W34584   1.329   4.014   2.343 -0.0135  0.1378  0.1054
14305W        W34585  16.811  14.527  14.263  0.0230  0.1725 -0.0850
14306W        W34586  15.728   1.595   1.503  0.0277 -0.0337 -0.1598
14307W        W34587  14.117  14.239   4.250  0.1364 -0.1015 -0.1082
14308W        W34588   7.132   5.546  15.711  0.0639  0.0212  0.0249
14309W        W34589  17.323  15.529   1.403 -0.0131 -0.2185  0.2626
14310W        W34590  18.154  16.078   1.806  0.4711  0.1060 -0.0348
14311W        W34591  14.539  11.821  13.711 -0.1994 -0.3651 -0.1233
14312W        W34592  11.447  18.289  14.338 -0.2500  0.0665  0.0268
14313W        W34593   2.693  18.108  14.099 -0.0570 -0.1421  0.1420
14314W        W34594  16.630  12.466   0.846  0.0130 -0.1504  0.1415
14315W        W34595   0.751   6.921  15.118 -0.0452 -0.0559  0.0211
14316W        W34596   4.421  12.667   3.946 -0.0137 -0.1708 -0.2204
14317W        W34597   9.179  15.216   3.410  0.3085  0.0099  0.0137
14318W        W34598   3.878  14.678   4.116 -0.3358 -0.0169  0.0579
14319W        W34599   3.567   4.158  14.419  0.1328 -0.0627 -0.0970
14320W        W34600  17.192   2.469   4.322 -0.2729 -0.0445  0.3575
14321W        W34601   6.901  13.455   4.333  0.0418 -0.2061 -0.1122
14322W        W34602  12.395   3.524   4.105  0.0492 -0.2797  0.2123
14323W        W34603  13.738   1.878   3.151 -0.1545  0.3823  0.3899
14324W        W34604   0.024   8.639  12.984  0.0456 -0.1284 -0.1369
14325W        W34605  17.527   8.102  14.872 -0.0357 -0.1452  0.0789
14326W        W34606  15.936  18.191   4.115  0.1772  0.1197 -0.1415
14327W        W34607   9.608   9.377   2.206  0.1550  0.0178  0.2495
14328W        W34608  14.574   8.365  12.160  0.0148 -0.2566 -0.0562
14329W        W34609  12.030  11.408   1.629  0.1158  0.0430  0.3493
14330W        W34610  16.948   8.505   1.092 -0.1643 -0.1360 -0.0924
14331W        W34611   5.961  14.103   3.090  0.0571 -0.1087  0.2800
14332W        W34612   5.292   8.474  10.547  0.1020 -0.1120 -0.0295
14333W        W34613  16.857  13.171   1.873 -0.3930  0.0645 -0.0967
14334W        W34614  17.962   9.377   4.770  0.3291 -0.0892 -0.0491
14335W        W34615   9.540  16.711  12.009 -0.0126  0.1031  0.6107
14336W        W34616   8.679  17.929   2.288 -0.1296  0.2755 -0.2522
14337W        W34617   3.734   5.920   3.301 -0.0177 -0.1995  0.1107
14338W        W34618   4.904  17.668   3.669  0.0815  0.1445 -0.2262
14339W        W34619  14.210   3.782  12.545 -0.0963  0.1110  0.0290
14340W        W34620  15.548  14.917  12.501  0.1664  0.0603 -0.2856
14341W        W34621   8.085   9.495  15.530 -0.3929 -0.2628 -0.2175
14342W        W34622  14.803   9.317  12.481  0.0787  0.1908  0.1453
14343W        W34623  10.652   6.637  14.954 -0.0839 -0.0557 -0.2562
14344W        W34624   7.497   7.751   3.510  0.0298  0.2581 -0.1518
14345W        W34625  13.395   8.470  15.115 -0.0819  0.2027 -0.1728
14346W        W34626  17.614  11.443   0.232  0.0796 -0.0155 -0.0088
14347W        W34627   9.339   4.394  12.360  0.2820 -0.2437  0.0675
14348W        W34628   9.440  10.501  11.176  0.0352  0.0198 -0.0084
14349W        W34629  12.745  15.574   1.945 -0.1767  0.0169  0.4176
14350W        W34630   1.409  16.436   2.935  0.0784  0.2593 -0.3925
14351W        W34631   2.468  15.017   2.226 -0.0145 -0.1612  0.1705
14352W        W34632  10.286   0.709  15.420  0.1634  0.1323  0.0089
14353W        W34633   6.022   7.906  10.839 -0.2010  0.2635 -0.2026
14354W        W34634   6.758   4.269  13.106 -0.0998 -0.1797  0.0686
14355W        W34635  15.817   6.714  15.818  0.2016  0.3474 -0.2361
14356W        W34636   8.992   0.550   4.027  0.0116 -0.1223 -0.3054
14357W        W34637  14.738  10.008  12.802  0.2439 -0.2147  0.4259
14358W        W34638  13.862  16.480   2.069  0.1263  0.0373  0.0553
14359W        W34639  10.009   0.128  13.148  0.1743 -0.3031 -0.0819
14360W        W34640   1.689  14.911   3.485  0.1800  0.3548  0.1180
14361W        W34641   8.536  15.927   0.594  0.4331 -0.0392 -0.1244
14362W        W34642   1.355   6.292  14.254 -0.0491 -0.1386  0.2987
14363W        W34643  12.477  16.922   0.886 -0.2330  0.3215 -0.0039
14364W        W34644   1.431   8.999  11.483 -0.1507  0.0526 -0.2956
14365W        W34645  10.556  16.836  12.650 -0.2090 -0.0904 -0.1655
14366W        W34646   5.259  10.801   0.690 -0.1521 -0.0919  0.0169
14367W        W34647   1.517   8.902  15.547  0.0878 -0.1298  0.0506
14368W        W34648   4.525  13.461   2.759  0.1414  0.1352 -0.0637
14369W        W34649   0.740   5.950  11.933 -0.2413  0.1884 -0.2281
14370W        W34650  14.591  14.227  15.866 -0.4081 -0.1406 -0.1322
14371W        W34651  15.689   7.321   3.922 -0.1432 -0.0181 -0.0109
14372W        W34652  16.066   3.944  14.391 -0.0524  0.1458 -0.2518
14373W        W34653  18.183   9.357   0.061 -0.1328 -0.2688  0.0162
14374W        W34654   0.014   7.871   1.308 -0.2200  0.1226 -0.1794
14375W        W34655   4.466  17.464  11.316 -0.0227  0.4270  0.1188
14376W        W34656   8.411   8.355  11.589 -0.1347 -0.1381 -0.1274
14377W        W34657  12.698  18.054  11.239 -0.2337  0.0031  0.2153
14378W        W34658   2.459  16.130  13.570 -0.3883  0.1105  0.0785
14379W        W34659   4.857   2.688   2.307 -0.2437  0.2235  0.1515
14380W        W34660   5.369  14.089  14.706 -0.2999  0.2174 -0.1118
14381W        W34661   0.492   9.157   1.780 -0.2078 -0.2396 -0.0115
14382W        W34662  12.377   1.090   1.072  0.1137  0.0024  0.0493
14383W        W34663  10.398  10.473   2.647 -0.0701  0.0184  0.0097
14384W        W34664  14.570  16.847  14.594  0.0179 -0.1821 -0.1137
14385W        W34665  15.445   4.864  15.569 -0.0646 -0.0677 -0.2099
14386W        W34666   0.388  13.711  14.803 -0.1569 -0.0211 -0.0654
14387W        W34667   0.864   3.456   3.612 -0.2051 -0.0413  0.0224
14388W        W34668   2.097   4.855   4.149 -0.1728  0.0503  0.0469
14389W        W34669   1.959   5.278   1.131  0.0450 -0.1534  0.1695
14390W        W34670  12.178  10.488   2.403  0.0936 -0.1947 -0.0862
14391W        W34671   2.492  12.861  13.620 -0.0960  0.0030  0.2499
14392W        W34672   3.834   5.732  12.550  0.1194 -0.2261 -0.0558
14393W        W34673   1.346   5.543  13.820 -0.0456  0.0254  0.2099
14394W        W34674   4.427  12.132   4.258 -0.0521  0.0785  0.0829
14395W        W34675   0.675   4.630   0.279 -0.2266 -0.2268  0.1804
14396W        W34676  13.529  14.488  15.504  0.0776  0.1891 -0.3163
14397W        W34677  15.513   8.771  13.707  0.0863  0.1609  0.1810
14398W        W34678   3.645  11.384   1.129  0.4807  0.1346  0.1414
14399W        W34679  12.658  15.615   2.532  0.0239  0.1718  0.1559
14400W        W34680  13.168  14.122   2.827  0.2278  0.1400  0.2052
14401W        W34681   3.247   8.642  12.864  0.0109  0.1467  0.1463
14402W        W34682   7.648   8.939  15.263 -0.3200 -0.3128  0.0784
14403W        W34683   2.554   2.430  13.726 -0.0635  0.1909 -0.0671
14404W        W34684  17.353  16.939  15.422 -0.2799 -0.1164  0.0592
14405W        W34685   0.661   1.413   4.071  0.0237  0.0545 -0.1793
14406W        W34686   0.273   0.945  15.155 -0.0075  0.1504  0.1157
14407W        W34687   3.576  12.949   4.498 -0.1296 -0.0741  0.0434
14408W        W34688   8.734   0.961  14.409  0.1200  0.2664  0.0437
14409W        W34689   8.658  12.149  11.580 -0.2727  0.0731  0.3637
14410W        W34690  11.675  10.106   3.553  0.1221 -0.1410 -0.1290
14411W        W34691   7.944   3.936  14.546 -0.2888  0.1406 -0.2544
14412W        W34692   0.665   9.521   1.369 -0.2759  0.0055  0.0927
14413W        W34693  16.340  10.367   4.556 -0.2755 -0.2961  0.0486
14414W        W34694   3.814  11.794   3.622  0.0052 -0.1073  0.2406
14415W        W34695   7.182   5.408  12.456  0.2823  0.0030  0.0538
14416W        W34696   2.788   4.596  14.851 -0.1103 -0.2937  0.2767
14417W        W34697  10.689  11.420   3.394 -0.2327  0.3004 -0.0970
14418W        W34698   4.986   0.709   1.387 -0.1517 -0.1824  0.1698
14419W        W34699  16.899   2.770  14.155 -0.0716 -0.1772 -0.1810
14420W        W34700  10.928   4.477   0.211  0.0332  0.1182 -0.2390
14421W        W34701   0.459   5.994   0.535 -0.2283 -0.1254 -0.0569
14422W        W34702   6.247  14.678   2.499 -0.3564 -0.1228 -0.2435
14423W        W34703   4.288   9.310   4.188 -0.0250 -0.1572  0.1249
14424W        W34704   5.092  10.595  12.022  0.2304 -0.0076  0.2148
14425W        W34705   3.730   3.061   0.415 -0.1381  0.0235 -0.0675
14426W        W34706   3.623  16.950   4.952 -0.1568  0.0579  0.1357
14427W        W34707  13.628   4.321   3.169 -0.1354  0.0256  0.1787
14428W        W34708  16.406  18.225   1.991 -0.0559 -0.1896  0.0621
14429W        W34709   7.298   7.224  15.728 -0.2227 -0.1044  0.1881
14430W        W34710   7.706   1.112  15.782  0.2064 -0.0355  0.3683
14431W        W34711  13.407  12.827   1.168  0.0589  0.1875 -0.1122
14432W        W34712  12.091   2.909   3.476  0.3275 -0.1617 -0.0586
14433W        W34713   0.360   9.411  12.467  0.0105 -0.3160  0.1307
14434W        W34714  11.129   6.829   4.239 -0.1007 -0.2021  0.0600
14435W        W34715   5.534  16.130  13.461  0.0433 -0.1831  0.2916
14436W        W34716  15.206  11.838  12.945  0.0467  0.2093  0.2862
14437W        W34717   5.617   7.698   3.104  0.0130 -0.0997 -0.0999
14438W        W34718   0.499   4.518  11.786  0.0324 -0.0423  0.2000
14439W        W34719   7.195   8.185   1.360 -0.0654 -0.2585  0.3217
14440W        W34720  18.331  10.193  14.837  0.2236  0.2191 -0.1138
14441W        W34721   7.425  13.593  11.922  0.0969 -0.4253  0.0178
14442W        W34722   5.925   5.805  11.748 -0.1881  0.1693  0.3223
14443W        W34723  17.787   0.027   2.337  0.1424 -0.3794  0.4705
14444W        W34724  12.992   3.791   2.483 -0.4607  0.0121 -0.1919
14445W        W34725  13.256   9.708   0.722  0.4741  0.1050  0.0904
14446W        W34726  11.774   4.632  11.643  0.0591  0.2181  0.0946
14447W        W34727  13.501  17.934   5.538  0.0671 -0.1766 -0.1134
14448W        W34728  14.325  14.805  12.613  0.0581 -0.1553  0.0288
14449W        W34729  14.633   6.104   4.140  0.2392 -0.2592 -0.2676
14450W        W34730   1.054  12.105  12.541  0.2151 -0.1354 -0.1316
14451W        W34731   0.104   7.338  13.412  0.2046 -0.1093  0.0219
14452W        W34732  18.259   1.894  13.798 -0.0748  0.0012  0.1631
14453W        W34733  10.657   3.509  13.061  0.2008 -0.2419  0.2335
14454W        W34734  13.335  15.233   4.360  0.3802  0.0550  0.0408
14455W        W34735  15.582  12.195   4.633  0.1672  0.3203  0.3385
14456W        W34736   1.981   9.375  13.612  0.2259 -0.1834 -0.0433
14457W        W34737  18.193   7.485  15.271 -0.0381  0.1506 -0.2508
14458W        W34738   9.794   3.183  10.162  0.0401  0.0416 -0.2396
14459W        W34739   8.547   8.808  15.475  0.0894  0.2917 -0.3755
14460W        W34740  15.113  12.916   1.354  0.0462 -0.1606  0.1475
14461W        W34741  13.335  17.103  14.673  0.0576  0.2536 -0.1613
14462W        W34742   0.507  13.436   2.559  0.0255 -0.3862 -0.1539
14463W        W34743   0.505  18.238   0.772 -0.0560  0.1773  0.1918
14464W        W34744   3.301   1.313   2.569 -0.0866  0.2506  0.0423
14465W        W34745  18.046   0.299   3.699  0.0303  0.4206  0.1224
14466W        W34746  10.466   7.357  15.193 -0.3043  0.3810  0.0199
14467W        W34747   1.810   5.036   2.113  0.0228 -0.2591 -0.1850
14468W        W34748   3.392  16.696   2.139  0.0310  0.0586  0.0853
14469W        W34749   0.070  17.472   0.569 -0.3545  0.1334  0.0089
14470W        W34750   2.625   2.209  14.540  0.3113  0.0042  0.2647
14471W        W34751   4.183   3.474   3.360 -0.3195 -0.2426 -0.4329
14472W        W34752   9.307  15.311  15.747 -0.1354  0.0781 -0.0705
14473W        W34753  17.263   0.890  14.065  0.2102 -0.2047  0.1460
14474W        W34754  11.140  17.034   4.727  0.1988 -0.0541  0.3140
14475W        W34755  12.662  10.726  15.834 -0.0902  0.0172 -0.0290
14476W        W34756   1.069   2.026  11.847 -0.4097  0.1269 -0.0729
14477W        W34757   7.797   3.227   1.813 -0.2445 -0.2864  0.2597
14478W        W34758   8.214   6.025  14.277 -0.0082  0.1473  0.1069
14479W        W34759  17.118  15.959  15.660 -0.2551 -0.1986  0.3423
14480W        W34760  15.073  11.398   3.099 -0.2317 -0.1297 -0.1503
14481W        W34761   1.914  12.251   3.295 -0.1140  0.1035 -0.0606
14482W        W34762   2.166  15.072  14.020  0.2200 -0.2056  0.2264
14483W        W34763   7.314  14.469   2.211 -0.2882  0.1317  0.1973
14484W        W34764   4.598   6.876  13.646  0.2715 -0.0003  0.0925
14485W        W34765   5.199   0.061  12.508 -0.3632 -0.4296 -0.6114
14486W        W34766  16.270   7.252   4.750 -0.0312  0.1257 -0.0706
14487W        W34767   3.063   9.327   0.615 -0.2920  0.1365  0.1791
14488W        W34768   9.085   3.275  12.573 -0.0173  0.3854  0.0510
14489W        W34769  10.478   5.666  12.779 -0.1901  0.0825  0.0480
14490W        W34770  10.936  16.608  13.833  0.2580  0.0177 -0.2606
14491W        W34771   1.478   9.970  15.796  0.3165  0.0398 -0.1928
14492W        W34772  15.256  13.722   3.225 -0.0207 -0.1265  0.1350
14493W        W34773   0.105   2.238  11.690 -0.1996 -0.1503 -0.0159
14494W        W34774  15.644  13.863  12.961  0.0752  0.0506  0.1028
14495W        W34775  16.999   0.458  13.669 -0.0919 -0.0603 -0.2394
14496W        W34776   7.562   0.595  15.714 -0.0231 -0.0757  0.2609
14497W        W34777  14.131  11.750   1.833 -0.3063  0.0662  0.1180
14498W        W34778  10.624  14.057   2.051  0.1416 -0.0221 -0.0669
14499W        W34779  11.121   0.262   2.968 -0.3004 -0.0839 -0.2852
14500W        W34780   4.449  14.890  12.749 -0.2136  0.0854 -0.0093
14501W        W34781  11.613   7.627   2.221  0.0031  0.2690 -0.0472
14502W        W34782  18.191  10.255   0.280  0.1396 -0.1623  0.0820
14503W        W34783   0.130   0.231  13.622  0.1534  0.1276  0.2006
14504W        W34784   9.204  15.085  12.869 -0.3067 -0.2183 -0.4983
14505W        W34785   0.567   2.075  12.036 -0.0928 -0.1550  0.1359
14506W        W34786   2.866  14.866  12.277  0.0723 -0.2713  0.0034
14507W        W34787  12.850  15.403   5.041  0.1858 -0.1704 -0.1609
14508W        W34788   9.665   9.904   0.403 -0.1374  0.1948 -0.1441
14509W        W34789  16.005  15.651  12.381 -0.0687  0.1497 -0.2984
14510W        W34790  12.520  17.866  11.687  0.1494  0.0070 -0.1824
14511W        W34791   6.691   4.290   3.738 -0.0581 -0.0868  0.1009
14512W        W34792  10.800  10.708   0.301 -0.0219  0.0673  0.1333
14513W        W34793   9.971   9.532   0.304 -0.2328 -0.0180 -0.1353
14514W        W34794   2.918  15.376   3.417 -0.4057  0.3880 -0.1318
14515W        W34795   7.845  12.849  12.385 -0.2729  0.0068  0.5348
14516W        W34796   0.019   6.808  14.121 -0.0451 -0.0453  0.1458
14517W        W34797  18.010   9.228  15.139  0.1676 -0.1527 -0.3789
14518W        W34798   9.350  15.050  13.734 -0.2125 -0.1538 -0.0215
14519W        W34799   8.882   9.548  12.385 -0.1801  0.1477  0.0325
14520W        W34800   5.448  17.878   2.899  0.0627 -0.0962 -0.2087
14521W        W34801  16.155   0.952   1.768 -0.2538 -0.0743  0.2283
14522W        W34802   2.501   8.803   0.903  0.3969 -0.0204 -0.0299
14523W        W34803   9.678   9.781  15.791 -0.4494  0.2233 -0.1535
14524W        W34804  10.762  15.668   5.233  0.0378  0.1694 -0.2114
14525W        W34805  12.701  18.218   0.778 -0.4679 -0.0114 -0.0018
14526W        W34806   1.030   0.575   4.053  0.1526 -0.2180  0.4375
14527W        W34807   5.808  12.808   2.176 -0.0893  0.1577 -0.0024
14528W        W34808  17.031  14.589  15.582 -0.2885 -0.2304  0.0161
14529W        W34809   1.146  12.727  12.125 -0.1550 -0.0026 -0.0304
14530W        W34810  11.012   0.162   4.530 -0.0840  0.1628 -0.2104
14531W        W34811   8.562  11.229  14.443 -0.0460 -0.0760 -0.3163
14532W        W34812   3.930   9.525   1.612 -0.0546 -0.1540  0.4184
14533W        W34813  10.219   1.996   9.927 -0.0756 -0.0059  0.0653
14534W        W34814  10.812  11.764   2.816 -0.0351  0.3998  0.1311
14535W        W34815  13.178   8.920  13.774  0.1945 -0.2312  0.1186
14536W        W34816  14.595  18.141  12.025  0.2454 -0.3053  0.0383
14537W        W34817   8.137  11.194  15.347  0.1343 -0.0099 -0.1398
14538W        W34818  16.918  11.061   2.593  0.2138  0.0763 -0.0409
14539W        W34819   4.363   3.349  14.444  0.2105 -0.2279  0.0941
14540W        W34820   8.006   3.369  12.531 -0.2802 -0.1675  0.0612
14541W        W34821   7.024   5.104   3.812 -0.0495 -0.1872 -0.0851
14542W        W34822  13.948   6.967   0.207 -0.0450  0.0702  0.0904
14543W        W34823  15.546  15.321  13.804  0.2383 -0.0381 -0.1647
14544W        W34824   9.540  10.870  13.525 -0.0793 -0.1138  0.0419
14545W        W34825   4.949  12.395   0.820  0.0589 -0.0811 -0.2958
14546W        W34826   5.488  11.057  14.736  0.0274 -0.3540  0.1912
14547W        W34827  17.453  10.531   0.371  0.6853 -0.0555  0.3189
14548W        W34828  14.670  15.600  11.555 -0.2024 -0.2939  0.2712
14549W        W34829   5.042   6.071  11.808  0.1135  0.0728 -0.0765
14550W        W34830  16.021   7.694  14.266 -0.0127  0.0867  0.1400
14551W        W34831   4.982  12.690   3.790 -0.3221  0.2296 -0.1041
14552W        W34832   2.231   7.198   2.678  0.0947 -0.0076 -0.0271
14553W        W34833   2.121  13.206   4.057 -0.1481 -0.1266 -0.0777
14554W        W34834   0.609  12.431   1.725  0.1632 -0.1665  0.0354
14555W        W34835   1.266  10.551  12.139  0.2238 -0.0542 -0.0597
14556W        W34836  10.286   0.505   5.621 -0.1210 -0.1688 -0.0910
14557W        W34837   4.630   9.723  13.511  0.1989  0.2937 -0.4252
14558W        W34838   9.351  16.405  13.517 -0.0622  0.2911 -0.1938
14559W        W34839  15.369  11.559   4.457  0.0791  0.2188 -0.1016
14560W        W34840   9.751  10.536   3.329  0.0241  0.0385 -0.0703
14561W        W34841   8.855   6.115  11.448  0.1772  0.1825  0.1404
14562W        W34842   8.618   8.631   0.080  0.0988  0.0848  0.0973
14563W        W34843   2.716   8.331   1.467 -0.1023 -0.0954 -0.0572
14564W        W34844  15.214  10.795   3.294 -0.1024  0.1824  0.0472
14565W        W34845   8.265  13.058   0.945  0.0314  0.0608 -0.0140
14566W        W34846   6.913  11.011   3.934 -0.2450  0.0295 -0.2057
14567W        W34847  13.760   4.059  12.699  0.2700 -0.0656  0.3020
14568W        W34848  13.338   0.811  11.104 -0.0648  0.0554 -0.3358
14569W        W34849  14.511   0.647   4.369 -0.0065  0.0615  0.2437
14570W        W34850  16.447   5.647   0.532  0.0536 -0.0680 -0.1200
14571W        W34851  11.017   6.256   4.486  0.1921 -0.0768 -0.0268
14572W        W34852   5.884   3.941  15.100  0.3803 -0.0063  0.2539
14573W        W34853   0.898   9.647  14.939 -0.0175 -0.3495 -0.0086
14574W        W34854   4.668   6.710   4.487 -0.0872 -0.0786  0.2968
14575W        W34855  14.017   4.873  14.017 -0.0642  0.0351 -0.1483
14576W        W34856   9.419   8.871  10.893  0.0732 -0.0588  0.2683
14577W        W34857   3.638  13.143   3.687 -0.1647 -0.1585  0.0243
14578W        W34858  12.914  17.571  12.232  0.2680  0.1865 -0.0992
14579W        W34859   5.983  12.284  15.812  0.0741 -0.2179 -0.0301
14580W        W34860  12.042   8.935  10.637 -0.1670 -0.0759 -0.1065
14581W        W34861   4.244   4.561   3.188 -0.1168 -0.0737 -0.1546
14582W        W34862  13.276   9.422   2.550 -0.0014  0.1062  0.0403
14583W        W34863   1.601  14.808   1.178  0.0956 -0.1673  0.0473
14584W        W34864   0.342  16.262  13.917 -0.1031 -0.0323 -0.3027
14585W        W34865   6.808   6.235  11.371 -0.0240  0.0562  0.1242
14586W        W34866  12.099   4.995  11.615  0.1933 -0.2207 -0.0622
14587W        W34867  10.231  10.493  14.724 -0.1509 -0.0740  0.1582
14588W        W34868  12.438  13.822  14.904  0.3030  0.1395 -0.0274
14589W        W34869  14.135   0.462  12.720 -0.0058  0.2126 -0.4275
14590W        W34870  15.780   7.994   0.388 -0.0515  0.6570  0.0659
14591W        W34871   7.299   1.987  15.334  0.0492  0.2286  0.0611
14592W        W34872   0.245  15.241  13.110 -0.2946 -0.1007  0.1448
14593W        W34873  13.783   9.139   5.268 -0.0085  0.0368 -0.0756
14594W        W34874  15.909   6.444   4.278 -0.1737  0.2105 -0.0633
14595W        W34875  10.667  13.532  15.367  0.0319 -0.0162  0.4943
14596W        W34876  10.677   2.222  15.417 -0.4355  0.0235  0.2711
14597W        W34877  13.434  10.526  13.009  0.0447  0.1748 -0.1324
14598W        W34878  17.567   4.839  10.668 -0.6948  0.0088 -0.0720
14599W        W34879   1.770   7.173   3.878 -0.1887  0.3443  0.0444
14600W        W34880  15.841   3.527  14.534 -0.4085 -0.0914 -0.3185
14601W        W34881  14.740  15.736   3.507  0.2963 -0.4134  0.0558
14602W        W34882   3.489   4.063  12.391 -0.3039  0.2533 -0.4193
14603W        W34883   7.442  15.457   2.916  0.3685  0.0512  0.0973
14604W        W34884   5.105  13.632   0.875 -0.0296  0.1231  0.1026
14605W        W34885   8.764  11.843  15.589  0.0377  0.1496  0.0349
14606W        W34886  10.312   9.418   4.412 -0.3628  0.1994 -0.0005
14607W        W34887   6.678  13.462   4.788 -0.1057 -0.2014  0.0825
14608W        W34888   8.289   4.485   0.842 -0.0773  0.0740  0.0222
14609W        W34889  14.719   7.426   2.348  0.2342 -0.1104 -0.2586
14610W        W34890   3.763  10.573  15.905  0.1020  0.2506  0.0005
14611W        W34891   7.482   4.301   3.524 -0.0704  0.1735 -0.1849
14612W        W34892   9.562  14.709   2.180  0.1911 -0.0072 -0.2513
14613W        W34893   7.236   1.762   1.425  0.1112 -0.0802  0.3107
14614W        W34894   4.387  10.311  15.228  0.0762 -0.0715 -0.0566
14615W        W34895   9.649   8.647  12.754 -0.0504 -0.1357 -0.0689
14616W        W34896   0.039  12.131   4.092 -0.1923  0.2798 -0.0817
14617W        W34897  15.681   1.073  15.006 -0.0286 -0.1805 -0.2339
14618W        W34898  10.646  12.135  14.701  0.1582 -0.0605 -0.0794
14619W        W34899  15.082  15.526   3.953  0.0752 -0.0712  0.1279
14620W        W34900  14.083   5.544   4.723 -0.0239 -0.0611  0.0705
14621W        W34901  10.478   1.687  11.784  0.0837 -0.0010 -0.0763
14622W        W34902   4.289  14.907   2.149  0.0357 -0.1006  0.0314
14623W        W34903  11.689  17.803   2.179 -0.0901 -0.0903  0.2863
14624W        W34904   4.255  17.320  15.566  0.0241 -0.0586 -0.1286
14625W        W34905   5.119   1.258   2.861  0.0713 -0.1052 -0.1783
14626W        W34906   7.897   4.039  11.340 -0.1419  0.2034 -0.0801
14627W        W34907  11.544  10.501   0.781 -0.0098 -0.0338  0.1127
14628W        W34908  17.965  14.055   0.432  0.1979  0.1050 -0.1940
14629W        W34909   7.629   4.649   3.164 -0.1760  0.2174  0.0987
14630W        W34910   2.587   4.421   3.363 -0.0425 -0.3523 -0.1224
14631W        W34911   1.686   1.054   4.577 -0.0475  0.1232 -0.1372
14632W        W34912  14.392   0.959  11.033  0.2061 -0.1278  0.3588
14633W        W34913   0.381   7.897   4.383 -0.2275 -0.2316 -0.2425
14634W        W34914  14.275  17.775   3.667  0.2775 -0.2064 -0.3126
14635W        W34915   3.337  13.818   0.144  0.0619 -0.0722  0.0250
14636W        W34916  11.979   9.696   1.018  0.0905  0.0069 -0.1270
14637W        W34917  11.681  16.519   4.088  0.2760 -0.1174 -0.0852
14638W        W34918   1.239   2.582   2.498  0.1226  0.0308 -0.0579
14639W        W34919   4.222  15.711  15.494  0.0177  0.0203  0.0465
14640W        W34920   3.745  17.916   3.611 -0.0324 -0.1577 -0.0924
14641W        W34921  14.133  10.899  12.632 -0.2106  0.2001 -0.0155
14642W        W34922  15.813  15.705  12.856 -0.2132  0.2701  0.0992
14643W        W34923  15.245  10.644  15.522  0.0089 -0.2527 -0.2699
14644W        W34924   6.438   8.735   2.692 -0.2311 -0.2289  0.0249
14645W        W34925   7.410   9.350   2.133 -0.1040 -0.4588  0.0452
14646W        W34926   4.615  15.605  13.995  0.1118  0.0366  0.0975
14647W        W34927  15.696  13.146   4.310 -0.1339 -0.4038 -0.2367
14648W        W34928   5.928   1.126  15.170  0.2528  0.1378 -0.0405
14649W        W34929  14.743   0.645   2.029 -0.0047 -0.0385 -0.1057
14650W        W34930  18.209  15.193  14.487  0.0930  0.2380  0.1599
14651W        W34931   8.754  14.727   2.637 -0.1267  0.1205 -0.0894
14652W        W34932  12.079  18.066  15.786 -0.0402  0.3322  0.1270
14653W        W34933   9.621   5.554   0.695 -0.0581  0.0227  0.0857
14654W        W34934   2.903  17.897   0.922  0.1717 -0.2831  0.0035
14655W        W34935  11.109  17.443   2.465 -0.1705 -0.2069  0.0428
14656W        W34936  18.148   4.467  14.168  0.0666 -0.0416  0.0983
14657W        W34937   7.179   3.230   0.140 -0.0201  0.1994 -0.0080
14658W        W34938   5.619  14.225   0.198 -0.1642 -0.0660 -0.2566
14659W        W34939   6.063  12.564  11.632 -0.1630  0.0659  0.0552
14660W        W34940  14.632  16.660  12.582 -0.2110 -0.0360  0.3527
14661W        W34941   6.874  12.925  12.176 -0.1273 -0.2099 -0.0644
14662W        W34942  11.748   5.046   2.301 -0.0142  0.2412  0.0682
14663W        W34943   2.936   3.605  14.440 -0.2010  0.3163  0.0572
14664W        W34944   1.883   7.474  12.416 -0.1539  0.0319  0.0672
14665W        W34945  11.170   0.536  12.295 -0.0230  0.0793 -0.2123
14666W        W34946   3.683   1.732   0.461  0.1879 -0.0654  0.2202
14667W        W34947   2.610  10.669   3.336 -0.1249  0.2175  0.2094
14668W        W34948  12.737   0.863  11.732 -0.3531  0.0090  0.0568
14669W        W34949   3.252  10.977  12.535 -0.0227  0.0686  0.0219
14670W        W34950   7.722  15.893  11.928  0.0513  0.0768 -0.1009
14671W        W34951   3.393  10.077  12.536  0.0697  0.1132  0.0991
14672W        W34952   4.836   7.386   2.213  0.0564  0.2256  0.1316
14673W        W34953   5.152  16.006   0.745  0.0994 -0.1693  0.3232
14674W        W34954   4.006  17.496   0.479 -0.0744 -0.0193  0.1934
14675W        W34955   9.380   2.918  11.190  0.0713 -0.0112  0.1341
14676W        W34956  14.526   6.085  15.394  0.1622 -0.0590 -0.1665
14677W        W34957  12.531  16.984  12.929 -0.2517  0.1546  0.2556
14678W        W34958   5.519   7.328  15.807 -0.4692 -0.1812 -0.0005
14679W        W34959  14.083   8.120  12.218  0.2388 -0.1179 -0.2000
14680W        W34960  11.174   7.285  13.034  0.0924 -0.2987 -0.3696
14681W        W34961  13.684   5.139  15.899 -0.0124  0.1628 -0.0980
14682W        W34962   6.981  12.791  11.692 -0.1002  0.0488 -0.0416
14683W        W34963   6.367   0.785  12.661  0.2594  0.1372 -0.1976
14684W        W34964  14.934  14.454  12.150  0.1523 -0.0820  0.0037
14685W        W34965   8.154   9.883   0.445  0.0919 -0.0455 -0.0370
14686W        W34966  16.342  14.038   3.164  0.1654 -0.0606  0.2160
14687W        W34967  16.040  15.027  13.747 -0.3089 -0.1042 -0.0931
14688W        W34968  12.790  13.901  15.844  0.3345  0.1003 -0.2222
14689W        W34969   0.429   6.823  12.932  0.1673  0.0872 -0.3097
14690W        W34970   1.325   9.135  12.659 -0.0717 -0.0792  0.4661
14691W        W34971  14.196   5.115   1.905 -0.0927  0.2243  0.1686
14692W        W34972   0.665  10.476  15.538  0.0819  0.0217 -0.0828
14693W        W34973  18.114  16.509  15.640 -0.1633 -0.1612 -0.1877
14694W        W34974  15.647  16.729  14.834 -0.0620  0.1768 -0.6011
14695W        W34975  17.593  10.020  12.093 -0.1024  0.1952  0.0869
14696W        W34976  16.671  15.568   2.013  0.0879 -0.2167  0.1877
14697W        W34977   8.564  16.948  13.410 -0.2743  0.0462 -0.2910
14698W        W34978   7.498   6.710   1.257 -0.3453  0.0619  0.0044
14699W        W34979  14.049  15.674   4.267 -0.2688  0.1913  0.1679
14700W        W34980   9.486  12.581  15.500 -0.0998  0.1166  0.0273
14701W        W34981  16.041   5.169   1.130 -0.0225  0.2495  0.0235
14702W        W34982  12.388   2.678  11.202  0.5162 -0.0997  0.2701
14703W        W34983   4.991  12.241  13.481  0.1249  0.6118 -0.0883
14704W        W34984  16.668  11.180   1.680  0.0144 -0.1295  0.1551
14705W        W34985   8.696  18.253  15.331 -0.3470 -0.0062  0.0675
14706W        W34986  18.124  15.024   1.577  0.0676  0.0591 -0.1578
14707W        W34987   1.577   2.276  14.636  0.0108 -0.3177 -0.2360
14708W        W34988   3.568  10.097   1.426 -0.1768 -0.0511  0.1032
14709W        W34989  18.116   0.146   2.664 -0.0105  0.0663 -0.3969
14710W        W34990   1.459  15.117   0.381 -0.0259 -0.0513 -0.0066
14711W        W34991  12.807  11.898  13.502  0.1709  0.0826  0.3026
14712W        W34992   9.510  13.321  13.250  0.0301  0.0007  0.0521
14713W        W34993   2.540   2.814  15.910 -0.1454 -0.0551 -0.0068
14714W        W34994   4.976  12.639   1.281 -0.3174 -0.1771 -0.0802
14715W        W34995   1.553   2.749  15.750  0.1860  0.2237 -0.1130
14716W        W34996   4.040  11.105   0.775  0.2121  0.1141 -0.1408
14717W        W34997   8.482   8.042  13.185  0.2961  0.0213 -0.1350
14718W        W34998   8.442  10.155   3.444 -0.0494  0.0186  0.2112
14719W        W34999   9.393  17.365   2.853  0.2290  0.0193 -0.0311
14720W        W35000  16.026  12.311  11.805 -0.3016  0.3804 -0.0362
14721W        W35001  15.187  10.786   4.582  0.0533 -0.2439 -0.2860
14722W        W35002  14.920   3.725   4.270  0.1287  0.1161  0.0756
14723W        W35003  16.928   3.892   0.414 -0.1155 -0.3391 -0.0168
14724W        W35004  16.449   5.516  13.536 -0.0007 -0.2190  0.1377
14725W        W35005  13.346  15.553   1.975  0.0994 -0.2770  0.1541
14726W        W35006  14.542  15.014   1.382 -0.1462  0.0445  0.1915
14727W        W35007  13.793  17.691  11.827 -0.0673  0.2036  0.0392
14728W        W35008   0.890  14.035  13.284  0.0641 -0.1674 -0.1690
14729W        W35009   6.382  13.089   1.524 -0.0178 -0.0908 -0.2605
14730W        W35010  10.356   9.648  13.563  0.1503 -0.3524  0.1093
14731W        W35011  17.152   3.218  14.940  0.0210 -0.2059  0.3053
14732W        W35012   0.290  15.966   2.422  0.0174  0.1201 -0.0037
14733W        W35013   1.452  14.066  12.601 -0.2296 -0.0811  0.3317
14734W        W35014   5.205   0.958  15.914 -0.1889  0.0687  0.0667
14735W        W35015  17.874  10.413   3.321  0.0092 -0.1864 -0.0141
14736W        W35016   3.073   4.725   2.349 -0.2596 -0.2452  0.0813
14737W        W35017  12.860   9.462  15.368 -0.3387 -0.2637 -0.2375
14738W        W35018   1.205  11.109   4.766 -0.0960  0.1265  0.0034
14739W        W35019  13.252   2.417  14.789 -0.1680  0.2159  0.0360
14740W        W35020  16.720   5.674   1.952  0.1765 -0.0310 -0.1984
14741W        W35021   7.160  18.086   4.870  0.1797  0.1092 -0.2132
14742W        W35022  15.640  10.511   1.616  0.0592  0.1200 -0.1260
14743W        W35023  12.606  17.746  12.643  0.2678 -0.0014 -0.1633
14744W        W35024   5.971  17.352  14.011  0.1709  0.0889 -0.0013
14745W        W35025   6.624   5.081   0.317  0.1512 -0.1419 -0.1690
14746W        W35026   5.224  17.853   0.544  0.4959 -0.1085  0.0340
14747W        W35027   0.776  13.518  13.165  0.0864 -0.2362  0.1660
14748W        W35028   4.835   5.533   3.881 -0.2321 -0.3558  0.1884
14749W        W35029  10.652  16.235   4.416 -0.0316 -0.1149  0.2785
14750W        W35030   1.977  12.616  15.625 -0.0552  0.0480  0.1245
14751W        W35031  13.772   3.423  12.746  0.0427 -0.0673 -0.0889
14752W        W35032  12.712  12.291   2.301 -0.3620 -0.0406  0.0343
14753W        W35033   3.634   2.795  12.475  0.0208 -0.2378 -0.1609
14754W        W35034  13.396  16.708   3.459  0.0833 -0.0290  0.0791
14755W        W35035  17.023   9.324   1.114  0.1745  0.1538  0.1026
14756W        W35036  15.624  11.197  13.670  0.1300  0.0073 -0.1916
14757W        W35037   0.416   9.849   0.845 -0.1719  0.0186 -0.0649
14758W        W35038   7.715   5.372   2.322 -0.0152  0.1451 -0.1550
14759W        W35039   9.667   4.655  14.981  0.2012  0.1144 -0.0756
14760W        W35040  15.608  15.692  15.161 -0.1244  0.3518  0.0970
14761W        W35041  14.689  17.802   3.879  0.0406 -0.2129 -0.0896
14762W        W35042  14.148   4.972  15.937 -0.0590  0.0674  0.1817
14763W        W35043   8.843  12.469   0.546 -0.1834 -0.1114  0.0965
14764W        W35044  16.202  16.047   3.753 -0.1266  0.0760 -0.1455
14765W        W35045  12.102   2.054  12.058  0.1894  0.2065 -0.0377
14766W        W35046  11.821  12.474  12.305  0.0788 -0.1282 -0.1744
14767W        W35047  16.208   4.410  13.182 -0.1533  0.0546 -0.2917
14768W        W35048  10.188  15.445   3.082  0.0137 -0.2110 -0.1776
14769W        W35049  11.995   1.925  14.365  0.1648 -0.0424 -0.2080
14770W        W35050  18.076   2.687  14.717  0.0329 -0.0900 -0.0375
14771W        W35051  12.462   9.467  12.909 -0.0391 -0.2211  0.0636
14772W        W35052   9.591  11.015   2.081 -0.1023 -0.0632  0.1350
14773W        W35053   7.272   2.020  11.597  0.2531  0.0407 -0.3085
14774W        W35054  15.952   2.664   4.522 -0.2795  0.1593 -0.2016
14775W        W35055  17.049  16.908   0.976 -0.1196 -0.1736 -0.0191
14776W        W35056   5.220   4.348   2.924  0.1006  0.3292 -0.0102
14777W        W35057   5.590  11.496   0.243  0.0213 -0.0381  0.1568
14778W        W35058   3.998   7.664   1.299 -0.2666 -0.1683  0.1926
14779W        W35059   7.410  16.357  12.055  0.0053 -0.2164  0.0051
14780W        W35060   1.985   1.116   2.687  0.1612  0.0427 -0.1184
14781W        W35061  14.018   7.112  13.518  0.2380 -0.1643  0.2884
14782W        W35062   0.938  18.290  14.112 -0.1933 -0.4041  0.0901
14783W        W35063   5.336   0.555  13.811 -0.0184  0.2840  0.1539
14784W        W35064  10.454   0.555   4.831 -0.1170 -0.0154  0.1284
14785W        W35065  18.212   5.835   0.445  0.0263  0.0246 -0.1147
14786W        W35066  11.847  17.055   5.672 -0.1857 -0.0043  0.2165
14787W        W35067   8.771  12.453   0.029 -0.3210  0.2449  0.1942
14788W        W35068  14.734   1.999   5.404  0.3508  0.0185  0.3536
14789W        W35069  12.620   3.620   2.197  0.1874 -0.1765 -0.3281
14790W        W35070  17.447   7.763  13.263  0.0229  0.0819 -0.0230
14791W        W35071   9.648   1.159  13.148 -0.0842 -0.1528  0.0442
14792W        W35072  13.056   4.714  13.749 -0.1897 -0.2716 -0.1457
14793W        W35073   3.180   3.650   3.517  0.0281  0.0154  0.0601
14794W        W35074   4.926   3.827   0.224 -0.2412  0.1392  0.1285
14795W        W35075   6.290   1.540   2.485 -0.2173 -0.0674  0.1155
14796W        W35076  15.020  11.874   1.661 -0.1049  0.1053  0.1159
14797W        W35077  17.050   3.173   1.119  0.0225  0.1879 -0.0601
14798W        W35078  13.714   5.194   2.009  0.2840 -0.2623 -0.2355
14799W        W35079  11.346  15.485   4.079  0.3672 -0.0361 -0.0243
14800W        W35080   4.788   3.067   1.371  0.2099 -0.1255  0.4584
14801W        W35081   8.996   8.984  12.295  0.2500 -0.1318 -0.1242
14802W        W35082  16.466  11.097   3.467  0.1754  0.0339  0.1710
14803W        W35083   8.356  10.632   3.401  0.1436  0.0740  0.1262
14804W        W35084  13.308  18.053   1.565  0.1633 -0.2856 -0.1196
14805W        W35085   0.962  14.918  14.768 -0.1746 -0.1778  0.3140
14806W        W35086  14.181   3.269   0.789  0.0540 -0.0331 -0.2310
14807W        W35087  14.342   7.123  12.412 -0.0350 -0.1478 -0.2584
14808W        W35088  16.232   3.053  14.578  0.1226 -0.0710  0.0534
14809W        W35089  10.750   9.286  11.784 -0.1898  0.1316 -0.0110
14810W        W35090  14.366   1.538  13.231  0.2359  0.0365  0.0132
14811W        W35091  16.169  11.902  11.535  0.0209 -0.1046 -0.1859
14812W        W35092  11.826  15.487   4.044 -0.0562 -0.3427  0.3245
14813W        W35093   2.564   3.484   2.548 -0.0443  0.0561 -0.0232
14814W        W35094  12.666  15.960  15.230  0.1256  0.2109 -0.0969
14815W        W35095   5.950  16.741   3.336 -0.1022  0.0859 -0.0758
14816W        W35096  13.634   3.736   0.348  0.0572  0.0734 -0.3045
14817W        W35097  12.124   4.734  13.122 -0.1120  0.0594 -0.0059
14818W        W35098   3.237   7.975   2.862 -0.2058  0.1488  0.3096
14819W        W35099   0.576   3.541  15.510  0.1251 -0.0173  0.0573
14820W        W35100  11.274   7.400   1.532  0.0144 -0.3481 -0.1137
14821W        W35101   3.696  13.633   3.746  0.1109 -0.2450 -0.0393
14822W        W35102   7.157   5.061   2.180  0.0508  0.2705 -0.0646
14823W        W35103  15.165   9.235  12.849  0.0973 -0.0487  0.1479
14824W        W35104  11.759   9.759  13.982  0.3602  0.0522 -0.0217
14825W        W35105  13.204   4.546  14.189 -0.2237 -0.2369 -0.0296
14826W        W35106   4.694   2.920  14.247  0.0124 -0.2273 -0.3371
14827W        W35107   5.882   9.197  15.482  0.0131 -0.3643  0.0889
14828W        W35108  10.488   3.556   1.333  0.2758  0.2147 -0.0654
14829W        W35109   6.302  14.643   3.047 -0.1151 -0.0698  0.1656
14830W        W35110  13.642   1.833  13.913 -0.0859  0.0106 -0.2672
14831W        W35111  10.746  13.833  14.977 -0.0635 -0.2511 -0.2886
14832W        W35112   8.219  17.824  12.341 -0.1660  0.2200  0.0419
14833W        W35113  11.926  13.822   0.172 -0.0121 -0.1204 -0.1714
14834W        W35114   2.680   9.605   4.823 -0.0767  0.0326  0.1293
14835W        W35115  10.339   0.739   3.882  0.0829 -0.1117 -0.1391
14836W        W35116  13.018  12.579   2.064 -0.0003  0.0086 -0.0203
14837W        W35117  14.754   2.527   2.736  0.1307  0.1022 -0.1102
14838W        W35118   7.295  11.778  13.940  0.0951 -0.1963  0.2828
14839W        W35119   7.337   7.344   4.337  0.1737  0.2756  0.1403
14840W        W35120   1.225  18.026  12.762  0.2359 -0.0110 -0.0141
14841W        W35121  11.872   9.543   5.377  0.1263  0.1995 -0.0417
14842W        W35122   9.556  15.910  15.720  0.0885  0.0420 -0.0611
14843W        W35123  16.304  13.070   2.686  0.3110 -0.2267 -0.1368
14844W        W35124  14.580  14.777  11.660  0.2098  0.0649 -0.1624
14845W        W35125  14.141   0.019  15.770 -0.0048 -0.1060  0.2624
14846W        W35126  15.516  11.139   3.408 -0.0346  0.1488  0.0415
14847W        W35127   6.410   1.146  12.256  0.1817 -0.0592 -0.4920
14848W        W35128   6.070  13.404  11.905  0.2610  0.3748  0.3026
14849W        W35129  16.234   1.574  12.802  0.1217 -0.2643  0.1749
14850W        W35130   6.966  15.227   2.738 -0.0715  0.1865  0.3255
14851W        W35131  17.825   2.066  14.044  0.1938 -0.0421  0.0193
14852W        W35132   6.567  13.540  13.720  0.0463 -0.0220  0.0274
14853W        W35133   5.363  10.671   1.153 -0.0485  0.0137  0.0430
14854W        W35134   2.033   4.015   3.472  0.1053  0.1503  0.1252
14855W        W35135  12.256   9.249   2.783  0.0270 -0.1244 -0.2117
14856W        W35136  15.117  17.250   0.191 -0.0015  0.1773 -0.0254
14857W        W35137   3.333  13.960  12.213 -0.0273  0.2727 -0.0380
14858W        W35138   8.307   4.569   1.333  0.1577 -0.4182 -0.0203
14859W        W35139  18.039  10.032  12.926  0.1753 -0.1861 -0.0592
14860W        W35140   6.090  12.877   0.751 -0.2657  0.0970 -0.4405
14861W        W35141   1.290  13.482  15.695 -0.0253 -0.0606  0.0550
14862W        W35142   1.630  15.428   2.613  0.1005 -0.0885 -0.0471
14863W        W35143  17.140   1.711  12.921 -0.2358 -0.2280  0.2413
14864W        W35144  10.101   8.398   4.697 -0.2372 -0.1572 -0.5636
14865W        W35145  13.507   7.125   4.281  0.0736 -0.1474  0.5863
14866W        W35146   2.608  18.268   3.895  0.0724  0.1762  0.1501
14867W        W35147  11.925  13.940   2.091  0.1381 -0.1808  0.0062
14868W        W35148  14.330   8.796  15.547  0.0333  0.2163 -0.0561
14869W        W35149  12.616  16.817  11.520 -0.1939  0.1882  0.3838
14870W        W35150   3.184  12.422   3.210 -0.4360  0.1129 -0.1947
14871W        W35151   6.964   5.521  14.612 -0.3197 -0.2460 -0.3264
14872W        W35152  17.953  10.368  12.532  0.1409  0.4602  0.1781
14873W        W35153   4.442   0.226  14.118  0.0315 -0.2854  0.0511
14874W        W35154   4.131   1.010   0.020  0.3968 -0.1061 -0.1884
14875W        W35155  18.154   6.046   1.736  0.2820  0.1926 -0.1270
14876W        W35156  17.743   8.730   1.836 -0.0162  0.1584  0.0217
14877W        W35157  16.045   2.731   3.461  0.0974  0.0187  0.0297
14878W        W35158  10.497   2.558  12.925  0.0654  0.1767 -0.2116
14879W        W35159   1.670  12.297  13.898  0.0437  0.1924 -0.0985
14880W        W35160   5.970  14.439   0.771 -0.1419 -0.0990 -0.1792
14881W        W35161  11.684  18.039   3.018  0.0228 -0.1650 -0.2757
14882W        W35162   8.994   0.271   0.750  0.0110 -0.1367 -0.2740
14883W        W35163   6.955  10.549  15.843  0.1734  0.4013  0.2552
14884W        W35164  15.041  10.980  15.223 -0.1467 -0.2402  0.0280
14885W        W35165  17.717  17.831  14.390 -0.0836  0.0798 -0.1300
14886W        W35166  16.314  14.372   3.664 -0.0075 -0.1105  0.0466
14887W        W35167  16.574   1.530   1.081 -0.2473  0.1175  0.1007
14888W        W35168  13.013  16.370  15.247 -0.0302 -0.3574 -0.0925
14889W        W35169   6.863   1.320   0.247 -0.0008  0.0666  0.3327
14890W        W35170  17.823  14.464  15.499  0.1652 -0.3454 -0.2058
14891W        W35171   2.310  16.943  13.973  0.1464 -0.4178  0.2435
14892W        W35172  15.688   4.172   2.621  0.2084  0.1039 -0.0286
14893W        W35173   7.370  10.937   4.074 -0.1644 -0.0199 -0.3692
14894W        W35174  10.821   7.007  14.466 -0.0343  0.0062  0.4505
14895W        W35175  10.325  16.491  15.214 -0.0571  0.0569 -0.2857
14896W        W35176   7.536   4.488  12.445  0.1153 -0.0063  0.0538
14897W        W35177   5.697  13.507   0.247  0.0693 -0.1550  0.1258
14898W        W35178   8.480   1.187  14.794 -0.0018  0.1462 -0.3615
14899W        W35179   2.386  17.892  11.395 -0.0716  0.0638 -0.0075
14900W        W35180   5.205  17.695  15.195 -0.0650  0.0779  0.2857
14901W        W35181   7.708   9.861   1.985  0.0348 -0.2253 -0.0871
14902W        W35182  10.202   1.612  13.240  0.2335 -0.2231 -0.1185
14903W        W35183   1.456   1.285   1.894 -0.1819 -0.3250 -0.1709
14904W        W35184   1.763   9.883  15.296  0.1541  0.1245 -0.0440
14905W        W35185   0.947   0.088  11.563 -0.0314 -0.4491 -0.0482
14906W        W35186  10.142   1.035  15.016 -0.0543  0.0027  0.0971
14907W        W35187  16.962   6.458  12.017 -0.0726 -0.0122 -0.1582
14908W        W35188   2.937   7.072  15.930 -0.0377 -0.0429  0.0219
14909W        W35189   9.464   6.661  12.257  0.1789  0.2097 -0.1487
14910W        W35190   7.853  12.865   2.830 -0.2979  0.1219  0.1817
14911W        W35191  17.738   0.705  13.132 -0.1358  0.1736 -0.2162
14912W        W35192   0.928  12.149   0.512 -0.4240 -0.2769 -0.0443
14913W        W35193   1.071  11.766   4.025  0.2612  0.3052 -0.3327
14914W        W35194   6.595   3.006  14.047  0.0329 -0.0293  0.2170
14915W        W35195   3.573   4.704   1.460  0.2162 -0.0864 -0.2745
14916W        W35196   8.886   2.542   2.480  0.3006 -0.1455 -0.1207
14917W        W35197  14.314  14.516  15.597  0.1251 -0.1626  0.1396
14918W        W35198   2.876  11.353  14.991  0.0123  0.1012 -0.1199
14919W        W35199  14.566   6.143  13.879  0.1446  0.1644  0.0682
14920W        W35200  14.817  13.218   4.951  0.0071 -0.0147  0.2039
14921W        W35201  14.606   5.636   2.325  0.1070 -0.1910  0.3191
14922W        W35202   7.555  10.625  14.959  0.1303 -0.1726  0.1484
14923W        W35203   3.197   3.675  12.633  0.1563 -0.1405 -0.3348
14924W        W35204  11.817   6.765  13.006  0.0759  0.0131  0.0795
14925W        W35205  17.639   7.631   0.736 -0.0599  0.1433  0.0212
14926W        W35206  14.098   0.416   0.554 -0.0427 -0.1145 -0.1708
14927W        W35207  11.549  10.412  11.175 -0.0751  0.1030 -0.0091
14928W        W35208   2.944  17.292  12.642 -0.3982  0.0461  0.1205
14929W        W35209  10.727   8.331   3.282  0.1538 -0.3624 -0.1243
14930W        W35210  13.903  13.540  13.909 -0.0266 -0.3098  0.3389
14931W        W35211  14.837   4.279   1.235  0.0707  0.0743  0.0395
14932W        W35212  15.367  13.058  12.417  0.0181  0.0324 -0.1690
14933W        W35213  13.075   2.092   0.550  0.1944 -0.0541  0.2678
14934W        W35214  14.037   2.592   2.697 -0.1764  0.0444  0.1987
14935W        W35215  11.562   7.940  13.600  0.0476 -0.2319 -0.0686
14936W        W35216  10.845   7.626  15.645 -0.1608  0.0999 -0.1126
14937W        W35217   0.403  13.311  15.119 -0.3710  0.2938 -0.1403
14938W        W35218   0.605   4.353   1.883 -0.0393  0.2151 -0.2912
14939W        W35219   7.569   0.518  12.988  0.1955 -0.0597 -0.1063
14940W        W35220  17.949  10.400  12.015 -0.1201 -0.3156 -0.1326
14941W        W35221   1.603   5.732  11.572  0.1414 -0.1678 -0.0527
14942W        W35222  12.249   8.920   3.387 -0.1861 -0.1426  0.1218
14943W        W35223   9.604  15.831   3.583  0.0121  0.3248  0.2855
14944W        W35224   2.080  10.317  11.762 -0.0806 -0.0843  0.0627
14945W        W35225   9.386   9.885   0.947  0.1270 -0.0929 -0.0048
14946W        W35226   6.796   7.240   1.265  0.0689 -0.0888 -0.2718
14947W        W35227   8.621   2.065   3.342  0.0969  0.2477  0.1864
14948W        W35228   0.674   6.086  13.696 -0.1276 -0.1032 -0.2218
14949W        W35229   3.156   7.039  13.109  0.5049  0.2619  0.4203
14950W        W35230   0.424   1.618  14.160  0.0104  0.1078  0.0463
14951W        W35231  10.119   0.421   2.427 -0.0919 -0.0233  0.1649
14952W        W35232   4.985   5.485   1.913  0.0950  0.1100 -0.0466
14953W        W35233   6.533   5.683  13.082 -0.0016  0.2403  0.0598
14954W        W35234   5.375  15.043   0.361  0.1758  0.1337  0.2566
14955W        W35235  16.000  10.995   3.851 -0.0077  0.4326 -0.1522
14956W        W35236   1.835  15.209   1.598  0.2535 -0.0638  0.0283
14957W        W35237  17.400   9.356  14.402 -0.3084 -0.1813 -0.0141
14958W        W35238   5.408   9.280   2.743  0.1356  0.1367  0.1394
14959W        W35239  13.807  17.996  15.430  0.2426 -0.2268  0.0276
14960W        W35240  16.288  13.871  13.925  0.0955  0.0921  0.2491
14961W        W35241   5.132  14.521   1.021 -0.2566  0.2098 -0.1030
14962W        W35242   0.880   9.983   1.087  0.1508  0.4099  0.1694
14963W        W35243  14.485   9.269  15.451  0.0524  0.0196 -0.2722
14964W        W35244  16.097   4.996  13.426  0.0772  0.0872 -0.1453
14965W        W35245   6.777  12.129   1.480  0.1298 -0.0502  0.1486
14966W        W35246  15.893   5.575   3.399  0.1351  0.2522  0.0753
14967W        W35247  15.750   3.146  13.161  0.0038 -0.1813 -0.2493
14968W        W35248   4.233   8.745  13.612  0.2320  0.4356 -0.0829
14969W        W35249  17.982  18.336  13.813 -0.3457  0.1473 -0.3329
14970W        W35250   7.171  11.019  15.136 -0.0238  0.1870  0.2843
14971W        W35251  15.096  12.269  15.587 -0.0448  0.1972  0.1485
14972W        W35252   4.987   4.377   0.120  0.0163  0.1190 -0.1110
14973W        W35253  15.029   0.519   0.940  0.1754  0.0003  0.1833
14974W        W35254  10.502   1.476  12.224 -0.2064 -0.0325  0.2007
14975W        W35255   6.818  12.899  13.204  0.1064  0.0928  0.0378
14976W        W35256  15.396   4.740   0.648  0.0693 -0.0452  0.0960
14977W        W35257  13.317  14.550   3.900  0.1360  0.0631 -0.0242
14978W        W35258   8.139  13.308  10.743  0.2677  0.1014 -0.4079
14979W        W35259   8.512  10.970   1.651 -0.0734 -0.2685 -0.1051
14980W        W35260  18.262  11.301   5.211  0.0257 -0.1733 -0.0133
14981W        W35261   2.678  15.517   2.070 -0.0665 -0.1950 -0.2388
14982W        W35262   2.907   6.390   1.430  0.2016 -0.1196 -0.1043
14983W        W35263   9.085  13.157   5.787 -0.1720  0.2011  0.3102
14984W        W35264   7.886   8.848  14.801  0.1306  0.1318 -0.0173
14985W        W35265  12.540   3.657  12.262 -0.1762 -0.0134 -0.1251
14986W        W35266   6.900  13.156   0.514 -0.0133  0.2333 -0.1170
14987W        W35267  11.953  17.244   1.456 -0.0496 -0.1055 -0.1412
14988W        W35268   0.348   7.221   2.168  0.0082  0.0289  0.0585
14989W        W35269   5.847   4.440   2.456  0.1132 -0.1256 -0.0943
14990W        W35270  11.073   6.047   0.211  0.0308 -0.0145  0.0545
14991W        W35271   5.780  16.783   0.730  0.1560 -0.2144 -0.0010
14992W        W35272   0.073   0.631  15.507  0.0158 -0.1714  0.0438
14993W        W35273   1.924  15.375  13.140 -0.3001 -0.0632 -0.2705
14994W        W35274   8.142   6.111   4.384 -0.1349  0.2743  0.0160
14995W        W35275   8.313  12.138   1.122  0.4461 -0.0253 -0.0785
14996W        W35276   3.749   4.173   1.995 -0.1284 -0.0096 -0.1269
14997W        W35277   0.854   4.927  15.369  0.2074 -0.1047 -0.2449
14998W        W35278  11.349  14.860  12.198  0.0386 -0.1168  0.3359
14999W        W35279   2.375  10.780  14.550 -0.0828  0.2751  0.2792
15000W        W35280   5.008  14.204  11.523  0.1278 -0.1912 -0.0236
15001W        W35281   6.956   8.498  11.553 -0.2938  0.1794  0.1244
15002W        W35282   4.650  11.591   0.226 -0.1995  0.0532  0.2522
15003W        W35283   1.308   8.942  14.611  0.0314  0.2223 -0.0292
15004W        W35284  12.463  10.311  14.428 -0.0094 -0.2487 -0.1772
15005W        W35285   5.614  11.312  12.063  0.0668  0.6623 -0.1034
15006W        W35286   4.028   4.599  15.641  0.1474  0.0155  0.0301
15007W        W35287  15.326  16.293   3.372 -0.1454 -0.0717  0.1232
15008W        W35288  17.993  10.906  14.327 -0.0569 -0.1701  0.1973
15009W        W35289   9.734   7.209  12.848  0.0112 -0.0079 -0.1589
15010W        W35290   2.916   5.908  14.784  0.1801 -0.3705  0.1786
15011W        W35291   2.644   2.316  15.619 -0.0445 -0.0294 -0.0680
15012W        W35292   8.916  10.675   1.455 -0.0534 -0.0681  0.0019
15013W        W35293  15.895  11.770   4.559 -0.1925  0.0458  0.0801
15014W        W35294   1.553  15.006   1.954 -0.1103 -0.1124  0.0564
15015W        W35295  10.775  17.181   3.329 -0.2206 -0.1303 -0.2526
15016W        W35296  13.915  12.180  14.259 -0.2081 -0.0780 -0.0246
15017W        W35297   8.739   4.480  13.583 -0.0229 -0.2204  0.2773
15018W        W35298  14.242   3.232   1.669 -0.0201 -0.2416 -0.1154
15019W        W35299  15.605   8.986   4.260 -0.1731  0.1543  0.1100
15020W        W35300  13.747   0.305   3.877  0.1568 -0.1454 -0.0363
15021W        W35301   0.039   0.289  12.699 -0.1461 -0.0245  0.0113
15022W        W35302   8.726   5.930   0.743 -0.0031 -0.1133 -0.1527
15023W        W35303  11.150   4.431  13.031  0.1170 -0.0272  0.2034
15024W        W35304   6.125  12.022   3.485 -0.1873  0.3809 -0.1703
15025W        W35305  17.847   6.929  14.268 -0.0017 -0.1244  0.2317
15026W        W35306  10.777   0.267   0.584 -0.0772  0.0510  0.0666
15027W        W35307   2.579   8.577   3.321  0.2071  0.1893 -0.0148
15028W        W35308  12.230  14.195   3.861 -0.1840  0.1135  0.1179
15029W        W35309   5.427   3.071  13.589 -0.0773 -0.2614 -0.0226
15030W        W35310   0.705   7.873  15.447  0.0156  0.1978  0.0127
15031W        W35311  13.371   5.700   0.648  0.0214  0.0834 -0.1248
15032W        W35312  13.223  11.331  11.886  0.1125 -0.1029  0.1678
15033W        W35313   8.865   2.013  14.646 -0.0222 -0.3788  0.0341
15034W        W35314  13.195  14.110   4.722  0.0076  0.0112  0.2265
15035W        W35315   4.321   1.658   1.288  0.4221 -0.0459  0.2457
15036W        W35316   3.490   8.708  12.355  0.1014 -0.1047  0.2962
15037W        W35317  16.980  17.155   0.367 -0.0067 -0.0574  0.3035
15038W        W35318  10.927   1.650   4.635  0.0224  0.1947  0.2248
15039W        W35319  13.540   5.924  12.368  0.1712  0.0785  0.0485
15040W        W35320  13.624   8.813  13.027 -0.2062  0.5018 -0.0505
15041W        W35321  16.629   5.080  14.762  0.1416 -0.0117  0.1937
15042W        W35322   8.303   0.619  15.073 -0.0391 -0.1282  0.0683
15043W        W35323  17.643  18.005  13.841 -0.0211 -0.0812 -0.4234
15044W        W35324   7.308   7.369   1.166  0.0100 -0.1101  0.1368
15045W        W35325  17.779  14.393   3.319 -0.0144 -0.0691  0.0001
15046W        W35326  10.456  17.467   3.623  0.0828 -0.0013  0.1481
15047W        W35327  15.137  16.233   1.229  0.1626 -0.1571 -0.0221
15048W        W35328   8.928   8.032  15.612 -0.0558  0.0328  0.0595
15049W        W35329   5.834   8.133   1.111  0.1066  0.0499  0.1843
15050W        W35330   1.166   2.664   3.364 -0.1905 -0.2466 -0.0156
15051W        W35331   5.831   5.846   1.414 -0.2889 -0.1584 -0.2812
15052W        W35332   9.752   2.884  11.969  0.0925 -0.1223 -0.1513
15053W        W35333   6.533   9.989  11.488 -0.0299 -0.0420 -0.1125
15054W        W35334  14.885   6.353   3.743  0.1460  0.2131 -0.0857
15055W        W35335   6.629   6.168   4.024  0.2465  0.2427  0.2128
15056W        W35336  13.079   1.993  14.752  0.0632  0.1584  0.0433
15057W        W35337  12.323  14.889  13.081  0.2675  0.0987  0.2605
15058W        W35338   2.142  13.866  13.508  0.3034  0.1054  0.0938
15059W        W35339   4.499   3.997   1.524  0.0334 -0.1733 -0.2355
15060W        W35340  15.386   4.669   0.136 -0.3010  0.0734  0.0913
15061W        W35341  18.043   5.452  15.087 -0.0025  0.2532  0.0668
15062W        W35342   1.982  10.627  13.631  0.0077 -0.4278 -0.2361
15063W        W35343  18.226  12.060   0.131 -0.2330  0.0552 -0.0059
15064W        W35344  13.486  11.583   4.685  0.1585 -0.1755 -0.2810
15065W        W35345  16.245   8.203   4.922 -0.1641 -0.0844 -0.2484
15066W        W35346  12.202   3.054   1.120  0.1770  0.1883  0.2438
15067W        W35347   5.161   5.996   3.018 -0.0364  0.3666 -0.0269
15068W        W35348  12.335  16.331  13.865  0.1279 -0.0377 -0.1070
15069W        W35349  15.032  17.436   4.609 -0.0196 -0.2636  0.1896
15070W        W35350  16.517   2.320   0.540  0.2072 -0.4042  0.5523
15071W        W35351   4.644  16.546   1.256  0.0379 -0.0280  0.3810
15072W        W35352   1.706   9.857   3.459 -0.1768  0.2402 -0.2789
15073W        W35353   0.090   0.282   4.028 -0.0903 -0.1155 -0.2289
15074W        W35354   4.536  15.852   2.840  0.0332  0.2161  0.3703
15075W        W35355  16.054   2.080   0.222 -0.3630  0.1245 -0.2791
15076W        W35356   5.114   8.620  11.531  0.2284 -0.2278 -0.1132
15077W        W35357   0.935   6.629   3.965 -0.0157  0.0838 -0.3053
15078W        W35358   1.507   4.680  12.860 -0.1139 -0.1698 -0.2086
15079W        W35359  15.076  11.238   3.554  0.1098 -0.0250 -0.1074
15080W        W35360  17.843   5.387  12.489  0.0243 -0.0226  0.1142
15081W        W35361   6.828   0.819   1.485 -0.1055  0.0637 -0.1416
15082W        W35362  11.493  13.705   0.052  0.1687  0.2760  0.0803
15083W        W35363   9.180   3.632   2.698 -0.0235 -0.1782 -0.2047
15084W        W35364  12.350   0.301   1.794 -0.4411 -0.0771  0.1817
15085W        W35365  16.233  12.194  14.223  0.1090  0.0964 -0.0238
15086W        W35366  15.309  17.889   0.985  0.2432  0.1142 -0.1182
15087W        W35367  13.881  12.749  13.221  0.0561 -0.2535 -0.0443
15088W        W35368   2.037   0.476  12.673 -0.1259  0.0694 -0.0065
15089W        W35369   2.052   7.502  13.296 -0.2449 -0.3986  0.0061
15090W        W35370  11.939  11.776   2.643  0.0409 -0.0808  0.1003
15091W        W35371   7.377   3.592  12.845 -0.1741 -0.0303 -0.2837
15092W        W35372   9.238   6.913  14.866  0.1845 -0.2816  0.0297
15093W        W35373  12.109  14.900  14.049 -0.1722  0.0966 -0.0559
15094W        W35374  11.563  11.029  15.879  0.0878  0.2983 -0.1412
15095W        W35375  14.830  11.312   2.274  0.3719 -0.2637  0.0478
15096W        W35376   1.735   1.917  12.783  0.0087 -0.0949 -0.0692
15097W        W35377   5.377  10.328  11.382 -0.2638  0.5667 -0.0215
15098W        W35378  10.982   7.843   2.426 -0.2906  0.0039 -0.0528
15099W        W35379   9.388   7.554  14.736 -0.2574 -0.0780 -0.2355
15100W        W35380   4.690  11.470  14.967  0.0727  0.0098  0.0929
15101W        W35381  11.513   8.485  13.709 -0.0725 -0.3808 -0.2519
15102W        W35382   3.978   9.426   2.096  0.2958  0.1114  0.2579
15103W        W35383   5.243   2.555  12.357 -0.3089  0.0656  0.1066
15104W        W35384  11.324   5.306   1.130  0.1295 -0.1334 -0.0549
15105W        W35385  17.514  12.185   4.624 -0.0072 -0.0616 -0.2573
15106W        W35386  13.780   6.204  13.912  0.2749 -0.0618 -0.1546
15107W        W35387  14.225   3.072   3.893  0.0876  0.1378 -0.2895
15108W        W35388   0.615  17.043   1.985  0.0134 -0.0023 -0.1035
15109W        W35389  14.476  16.712  13.689 -0.1664 -0.0377 -0.2310
15110W        W35390   9.098   0.273  12.570  0.1826 -0.0663 -0.1511
15111W        W35391   7.868  14.533   3.360 -0.1059  0.1925  0.3555
15112W        W35392  12.668  13.807   2.837 -0.0349 -0.0316 -0.0089
15113W        W35393  17.561   3.020   1.210 -0.2774 -0.0344 -0.0695
15114W        W35394   4.553   8.675  13.000  0.0572 -0.1895  0.0355
15115W        W35395   3.301   4.212  12.886 -0.0515  0.4009 -0.1809
15116W        W35396   7.182   8.683  11.052 -0.0238 -0.0030 -0.1656
15117W        W35397   2.984  13.596  13.287  0.1908 -0.2936  0.1387
15118W        W35398   9.678  12.328  13.172  0.1025  0.0783  0.1970
15119W        W35399  13.035  15.815   4.823 -0.2601 -0.0519  0.3067
15120W        W35400  15.537  11.067  15.386  0.1630 -0.1938 -0.2313
15121W        W35401   2.459   2.635   2.662 -0.0032  0.2517  0.1568
15122W        W35402  13.010   6.098   2.267 -0.3427  0.1391 -0.0731
15123W        W35403   9.320   6.034   2.695 -0.0310 -0.2065  0.1778
15124W        W35404  14.096  17.338  13.143 -0.1656 -0.0211 -0.0750
15125W        W35405   4.220   2.344   1.797  0.1191 -0.3003 -0.1367
15126W        W35406   3.471   9.385   2.822  0.3126 -0.0055  0.0562
15127W        W35407   0.211   2.307   0.872 -0.0450 -0.2554 -0.2039
15128W        W35408   2.300   7.768  11.688 -0.0654 -0.0134  0.2002
15129W        W35409  15.862   1.247  15.718  0.0907 -0.0541 -0.1025
15130W        W35410  13.692   1.154  15.931 -0.1698 -0.2743  0.2621
15131W        W35411   9.304   6.184  11.175 -0.2027 -0.1409 -0.1422
15132W        W35412   6.879  12.807  14.258 -0.1308  0.3482 -0.0827
15133W        W35413   5.004   3.351   2.886 -0.2338  0.0496 -0.3667
15134W        W35414   2.481   8.548   3.852 -0.1615 -0.0520 -0.0422
15135W        W35415   4.312  14.908  13.311  0.1557  0.0354 -0.1653
15136W        W35416   1.876  17.954  15.588 -0.1813 -0.4116  0.0277
15137W        W35417   6.626  13.719   3.647 -0.1061  0.2059  0.0134
15138W        W35418  10.743  14.742   0.749  0.3139  0.2518 -0.1986
15139W        W35419  14.865  14.825  12.552 -0.2988 -0.0829  0.2254
15140W        W35420   6.838   5.140  12.116  0.4537 -0.0268  0.1392
15141W        W35421   9.392  14.363  14.253  0.1540  0.0277  0.2445
15142W        W35422  14.420   4.722   1.266  0.0246  0.3130 -0.0380
15143W        W35423   3.455  15.671  13.957 -0.2147 -0.0136  0.2036
15144W        W35424   6.249   9.500   5.506  0.1432 -0.0105 -0.0204
15145W        W35425   4.220  11.364   0.379 -0.4118 -0.2149  0.0824
15146W        W35426  13.248  17.276  13.408 -0.1616 -0.1234 -0.0322
15147W        W35427  11.431  14.661   2.257 -0.0907 -0.0397 -0.1166
15148W        W35428   4.983   9.850   2.901 -0.0868  0.0395  0.0094
15149W        W35429  17.780  12.011  12.771 -0.2592 -0.3221  0.0337
15150W        W35430  18.202   3.927  14.191 -0.1304  0.0288 -0.1721
15151W        W35431   6.956  13.186   2.891 -0.2009 -0.0485  0.1248
15152W        W35432   9.186  10.063   3.075  0.1965 -0.0650  0.3225
15153W        W35433   6.565   9.366  15.057 -0.0973 -0.0397  0.0515
15154W        W35434  18.068   3.354  14.106  0.0981  0.1282  0.0247
15155W        W35435  14.086   2.005   2.834 -0.0615  0.0724 -0.0835
15156W        W35436   3.372  12.065  12.551 -0.1775 -0.1412  0.2144
15157W        W35437   5.813   3.116  11.681  0.2634 -0.0002 -0.2306
15158W        W35438   9.176  13.071   1.115  0.1688 -0.0921 -0.1582
15159W        W35439  11.383   6.430   2.991 -0.0610  0.0563 -0.1049
15160W        W35440  16.411  17.633   2.744  0.0643 -0.1327 -0.1369
15161W        W35441   1.532  17.609   0.805  0.2296 -0.1939 -0.3070
15162W        W35442   9.940  14.458   0.914  0.0413  0.1697  0.0860
15163W        W35443  12.172   8.131  12.183  0.0938 -0.2539  0.0394
15164W        W35444  14.558   2.362   4.413 -0.1412 -0.1452  0.0309
15165W        W35445   1.985   6.622  13.167 -0.1303 -0.3050  0.0499
15166W        W35446  18.133   8.279  12.012 -0.3019 -0.3673 -0.0152
15167W        W35447  13.179  10.009   5.084  0.0605 -0.0488  0.0871
15168W        W35448   0.524  14.498   3.120 -0.1109 -0.0014 -0.2248
15169W        W35449  16.661   1.799  11.766 -0.3280 -0.3929  0.2732
15170W        W35450   8.868   6.601  14.057 -0.1650 -0.1920 -0.0321
15171W        W35451  11.082   4.934   0.061  0.1946 -0.1375  0.0455
15172W        W35452  14.521  10.704   0.951  0.4018  0.1572 -0.1983
15173W        W35453  12.621  12.533  14.101 -0.3520  0.2257 -0.1597
15174W        W35454   6.752  12.917   0.072 -0.0359 -0.1108 -0.1129
15175W        W35455  12.769  16.360  12.153  0.1650 -0.2306  0.0273
15176W        W35456  13.380  14.916  15.178 -0.1124  0.0293 -0.0566
15177W        W35457   5.915  17.336  12.394  0.0851  0.2007  0.0522
15178W        W35458   4.515   0.752  11.699  0.1348 -0.0260  0.1300
15179W        W35459   4.476  15.658   0.854 -0.1059 -0.0738  0.0141
15180W        W35460  15.333   2.271   3.754  0.0789  0.1073 -0.0345
15181W        W35461   1.346   4.391  11.871 -0.0261  0.0016 -0.1577
15182W        W35462  13.312   7.280   5.142 -0.0674  0.0584 -0.1515
15183W        W35463  10.267   1.370   3.693 -0.0670  0.2081 -0.3640
15184W        W35464   4.939  17.839  13.572  0.0237 -0.1427  0.0370
15185W        W35465   1.580   3.533  11.475  0.0323 -0.0824 -0.0117
15186W        W35466  13.475   9.284   3.418  0.1511 -0.1826 -0.0114
15187W        W35467  14.057  15.356  15.596  0.0906  0.0908  0.3208
15188W        W35468  15.085   0.500  12.847  0.0353  0.1442  0.2576
15189W        W35469  17.712  14.463  14.023  0.3119  0.1167  0.1279
15190W        W35470  14.005   0.894  12.188  0.1932  0.2532  0.1518
15191W        W35471  10.074   1.028   2.750 -0.1605  0.0220 -0.3816
15192W        W35472  15.725   7.881   2.934  0.1974  0.2665 -0.0044
15193W        W35473   6.745  17.415   1.643  0.0770  0.1415 -0.1932
15194W        W35474   9.994   8.233  12.073 -0.0050  0.0179  0.0229
15195W        W35475   5.557  11.958   4.367  0.0134  0.2735  0.3107
15196W        W35476  15.686   5.967   2.071 -0.0550 -0.2668  0.3455
15197W        W35477   3.109  15.716   2.264 -0.1195 -0.1779  0.0422
15198W        W35478  16.305   0.121   4.344  0.0181  0.3693 -0.0248
15199W        W35479   5.030   9.067  13.481  0.0452 -0.3185 -0.2659
15200W        W35480  10.676  13.669  15.923  0.1632  0.0447  0.1721
15201W        W35481   9.253  16.344   3.161 -0.0262 -0.1434  0.0564
15202W        W35482   9.441  16.097  12.998 -0.1308 -0.1756  0.1493
15203W        W35483   5.091   8.206   3.902  0.0331  0.1381 -0.3582
15204W        W35484   4.150   1.641  14.272 -0.0538 -0.1534 -0.0984
15205W        W35485   8.938   9.507  15.601 -0.1624 -0.1566 -0.0137
15206W        W35486  12.315   3.062  10.733  0.1993 -0.0923 -0.2347
15207W        W35487   3.698   4.921   3.550  0.0281 -0.0213 -0.1784
15208W        W35488   3.143   6.781  11.880  0.2567 -0.0652  0.0509
15209W        W35489   0.985   5.632  11.700 -0.2827 -0.2113  0.0524
15210W        W35490  12.808   1.999  15.177  0.1549 -0.0161 -0.2050
15211W        W35491  11.709   4.429  14.836 -0.1310  0.0962 -0.2357
15212W        W35492  14.199   5.614   1.662  0.1161  0.0122 -0.1517
15213W        W35493  14.531   5.258  12.485 -0.1401 -0.0398  0.0724
15214W        W35494  15.487   6.441   3.567  0.1621  0.2831  0.1173
15215W        W35495  12.097  13.847  11.562 -0.0701 -0.1551  0.2888
15216W        W35496  12.782   0.379  14.693  0.2626  0.2124 -0.1637
15217W        W35497   0.993  12.281  14.682  0.1688 -0.2373  0.1612
15218W        W35498   7.492  16.284  13.490 -0.2537 -0.2263 -0.0295
15219W        W35499  15.669   3.451   1.736  0.0826 -0.0162  0.0653
15220W        W35500  17.280  10.076   2.132  0.1202  0.1722 -0.0493
15221W        W35501  15.263  11.514  12.112 -0.1633 -0.1515  0.2468
15222W        W35502  13.027  13.049  15.315 -0.2324  0.1819  0.0258
15223W        W35503  12.469   5.697   2.837  0.1396  0.3707  0.1201
15224W        W35504   9.269  13.056   3.634  0.0194  0.1833 -0.1681
15225W        W35505   6.995  14.111  11.130  0.0555  0.0492  0.0698
15226W        W35506  11.056  12.822   0.994  0.2369  0.0534  0.2162
15227W        W35507   9.426  10.356   1.551 -0.2080 -0.2479 -0.2409
15228W        W35508  10.153   8.783  15.508 -0.0834 -0.0349  0.2605
15229W        W35509  18.318  14.683  14.640 -0.1847 -0.1098 -0.0766
15230W        W35510   9.908   9.710  13.817  0.2466  0.0749  0.0910
15231W        W35511  16.455  12.627  11.871 -0.3074 -0.0424 -0.2907
15232W        W35512   7.397   6.242   3.778 -0.2044  0.0487  0.0325
15233W        W35513  16.011  16.108   1.629  0.0310  0.0904 -0.1612
15234W        W35514   1.220  17.279  11.195  0.1446  0.2363  0.2759
15235W        W35515  18.313   7.874   2.366 -0.1284 -0.1523  0.0588
15236W        W35516   7.466   5.200   3.928 -0.0112  0.2881  0.0553
15237W        W35517  12.503   3.498  14.057 -0.0500  0.0784  0.0014
15238W        W35518   5.846   0.931  14.703  0.0011  0.0377  0.1753
15239W        W35519  10.703   6.487  14.433 -0.0437 -0.1992 -0.0440
15240W        W35520   9.388   7.131  13.282  0.0324 -0.1695 -0.1636
15241W        W35521  10.998   1.618   0.978 -0.0413 -0.0844  0.0033
15242W        W35522   9.449  13.497   4.502  0.0856  0.0876 -0.2324
15243W        W35523  17.803  18.202  12.792  0.0781  0.2022 -0.0580
15244W        W35524   0.414   8.451  13.791  0.0926  0.0010  0.0632
15245W        W35525   4.963   6.198  15.555 -0.0611  0.0003  0.2033
15246W        W35526  16.018  12.630   2.714  0.0991  0.0076  0.3643
15247W        W35527  15.164   3.029  15.791 -0.1186  0.2239  0.0119
15248W        W35528   4.569   3.162   3.254 -0.0517  0.0537  0.1191
15249W        W35529   1.442  17.932  15.187  0.1547  0.2599  0.0705
15250W        W35530   1.433  12.199  12.980  0.1289 -0.2863  0.1092
15251W        W35531   4.821  13.166  15.766  0.1197  0.1563  0.1983
15252W        W35532   5.396  15.537   1.768  0.2466 -0.1468  0.2069
15253W        W35533   6.583  11.596  14.486 -0.0429  0.0415  0.3488
15254W        W35534   5.487   7.274  15.293  0.0498 -0.1416  0.1182
15255W        W35535  13.765   0.787  15.086  0.0592 -0.2478 -0.0395
15256W        W35536   9.845  12.959   0.387  0.4807 -0.0172 -0.0659
15257W        W35537  12.116  14.267   1.508  0.0273 -0.3014 -0.0555
15258W        W35538  18.173  14.114   3.287  0.2708  0.0667  0.3135
15259W        W35539   0.435   0.761   3.586 -0.0147  0.1575  0.1472
15260W        W35540  11.399   6.390   3.456 -0.0580  0.1650  0.3760
15261W        W35541   8.657   3.147   0.654  0.1771  0.1119 -0.1627
15262W        W35542  17.257   7.810  15.177 -0.3720  0.2297 -0.1340
15263W        W35543  13.969   6.971   2.262 -0.1002  0.1965  0.0166
15264W        W35544  10.126  11.566   0.451 -0.0077  0.1601  0.0683
15265W        W35545  15.737   8.958   1.614 -0.0221  0.0974  0.1867
15266W        W35546  18.044   5.200  13.057  0.0087  0.0374  0.0200
15267W        W35547   8.133   5.626   2.154  0.2904 -0.3337  0.2800
15268W        W35548  16.969  16.912  15.053 -0.0429 -0.0274  0.4110
15269W        W35549   7.384   0.821   0.185 -0.0748 -0.0310  0.1211
15270W        W35550   5.159  11.828   3.281  0.1752  0.0245 -0.3100
15271W        W35551   1.645  16.215  12.762  0.0620 -0.1582  0.3894
15272W        W35552  12.005   0.822   0.335  0.2350  0.1146  0.2262
15273W        W35553  12.877  12.810   4.114 -0.1222 -0.3469 -0.0922
15274W        W35554   9.210  18.181  15.641  0.1357  0.2850  0.0809
15275W        W35555  10.860  14.473   3.426 -0.0360 -0.1070  0.0941
15276W        W35556   4.439  12.088  14.720 -0.0622  0.0700 -0.2410
15277W        W35557  13.318   6.184   4.663 -0.0776 -0.0265  0.0203
15278W        W35558  15.681   8.316   2.790  0.2313 -0.1724  0.0928
15279W        W35559   3.454  12.025   3.351 -0.4141  0.1445  0.0955
15280W        W35560   1.049   6.440   0.136  0.2378 -0.2402  0.4081
15281W        W35561   6.162   5.345  11.777  0.1953  0.4163  0.1170
15282W        W35562   5.247   8.252  14.338 -0.0014  0.0191 -0.5564
15283W        W35563   5.642   3.916  12.933 -0.0891  0.2664  0.2159
15284W        W35564   2.759  15.874  11.496 -0.1500 -0.1657 -0.0701
15285W        W35565   6.064   7.407   3.245 -0.0700  0.2097 -0.1164
15286W        W35566  14.855  10.485   0.537 -0.1781 -0.0181 -0.0184
15287W        W35567  10.779   8.621   2.832  0.1729  0.0384  0.4087
15288W        W35568   9.581  10.252  15.405  0.0883  0.1863 -0.0225
15289W        W35569  16.642  16.690  15.354  0.0085  0.0876 -0.0054
15290W        W35570   1.232   2.814  12.168  0.1722 -0.4264 -0.0751
15291W        W35571   7.856   3.440  13.102  0.3158 -0.0408 -0.0441
15292W        W35572  13.895   3.586   2.481  0.0101 -0.1158 -0.2387
15293W        W35573  16.982   8.343   1.587  0.1487 -0.1905  0.2354
15294W        W35574  11.963  15.363  14.891 -0.0130  0.1152 -0.0174
15295W        W35575  16.201  14.990  15.408  0.0985 -0.0055  0.1479
15296W        W35576   5.742   0.973   3.982 -0.0056 -0.2367 -0.2151
15297W        W35577   4.483   3.711  15.373 -0.0894 -0.0747  0.1398
15298W        W35578   9.879  16.605   2.348 -0.1015 -0.4386  0.2284
15299W        W35579   5.886   7.205  13.176 -0.0757  0.0883  0.2771
15300W        W35580  10.409   8.671   0.556  0.1587  0.1948  0.3824
15301W        W35581   6.901   6.053   1.408 -0.0003 -0.0464 -0.0254
15302W        W35582  13.390   6.896   1.685 -0.2617  0.3957  0.2702
15303W        W35583  18.159   3.047   2.022  0.1092 -0.0364  0.0561
15304W        W35584   2.578   9.151   4.103 -0.1077  0.0796  0.1555
15305W        W35585  15.939  16.578  12.453 -0.1044 -0.0466 -0.2308
15306W        W35586  17.794   5.194  13.823  0.1743 -0.0224  0.0140
15307W        W35587  11.738  14.199  11.620 -0.0385 -0.0819  0.1680
15308W        W35588   2.884   6.573  14.419 -0.0686 -0.0721 -0.1300
15309W        W35589   2.654  12.917  15.381  0.1224  0.0273 -0.1585
15310W        W35590   3.352  12.044   0.401 -0.1874 -0.1023  0.0683
15311W        W35591   1.940   6.496  15.109 -0.3359  0.0564 -0.0060
15312W        W35592   3.576   6.379   3.112  0.3644  0.3226  0.0107
15313W        W35593  18.173  17.939   0.578 -0.0464  0.0949 -0.0081
15314W        W35594   4.124   9.543   3.384 -0.0349 -0.4645 -0.2882
15315W        W35595  13.915  13.392  12.575 -0.2185 -0.2896  0.2274
15316W        W35596  15.204   3.568   3.042  0.3472  0.0910 -0.0216
15317W        W35597  10.241   9.965  13.075 -0.1268 -0.0774  0.0037
15318W        W35598  16.333   7.388  13.049  0.0214 -0.0678 -0.1345
15319W        W35599   7.355   9.412  11.392 -0.1146  0.0984  0.0255
15320W        W35600   6.823   8.323  15.147  0.1573 -0.3522 -0.1345
15321W        W35601  10.101   6.942   1.692  0.0651 -0.0004  0.0396
15322W        W35602   8.168   2.125   1.994  0.2116 -0.0012 -0.3117
15323W        W35603   8.957  13.737  12.581  0.1407 -0.2819  0.1188
15324W        W35604  14.447   2.248  14.135  0.0393  0.2154  0.1652
15325W        W35605  12.069   1.041  14.798  0.1374 -0.1207  0.0835
15326W        W35606  13.151   3.443   0.504  0.0613 -0.0134 -0.2162
15327W        W35607   3.683  13.022  14.087  0.0612 -0.0295  0.0902
15328W        W35608   5.607  16.118  12.459 -0.0378 -0.3659 -0.2140
15329W        W35609   7.835   8.844   1.793  0.1592 -0.1200  0.0826
15330W        W35610   6.976   1.880  12.110 -0.2049  0.3118 -0.1721
15331W        W35611  13.419   8.512   3.971 -0.0122  0.0308 -0.0710
15332W        W35612  12.836   3.213  14.295  0.0643  0.1391 -0.0733
15333W        W35613   2.880   3.692  15.448  0.1651 -0.0562 -0.0857
15334W        W35614  12.962   0.843  13.384 -0.1132  0.1144  0.1322
15335W        W35615  12.089  10.135  11.057  0.0008 -0.4017  0.1047
15336W        W35616  11.783   2.807   3.094 -0.0374  0.1118 -0.0587
15337W        W35617  14.233  10.737   0.522  0.2089  0.0315 -0.1542
15338W        W35618  12.320   0.951   4.538 -0.1866 -0.1174 -0.0104
15339W        W35619  13.353   0.521   0.073  0.1398 -0.0104  0.1036
15340W        W35620   9.119  10.432  12.430 -0.2979 -0.1500 -0.0876
15341W        W35621   7.645   6.367  15.636 -0.1073 -0.1588  0.3342
15342W        W35622  13.069  15.921   5.323  0.3509 -0.0483  0.2321
15343W        W35623  16.795   9.659  15.839 -0.0835  0.1618  0.0657
15344W        W35624  14.048  15.181  11.161  0.0032 -0.0688  0.2648
15345W        W35625  13.720   2.720  14.871  0.1519 -0.1429 -0.3461
15346W        W35626   0.306   6.762  13.444 -0.0150  0.1475 -0.3235
15347W        W35627   2.807   9.679  13.396  0.0899  0.2527 -0.1466
15348W        W35628  13.661   9.602  14.734  0.1452 -0.0372 -0.0503
15349W        W35629   1.197   0.040  14.537 -0.0169  0.0853  0.0997
15350W        W35630   4.490   8.349   3.844  0.1134  0.0755 -0.0031
15351W        W35631   3.619   5.894  15.457 -0.2470 -0.1093 -0.1728
15352W        W35632   0.555   3.439   0.036  0.0312 -0.0618 -0.2966
15353W        W35633  16.503   1.467   2.772 -0.1875 -0.1195  0.1480
15354W        W35634  13.690   8.364   4.402  0.1194  0.0173 -0.0302
15355W        W35635  14.020   7.896  13.911 -0.2915 -0.3149  0.0161
15356W        W35636   7.164  14.817   0.395 -0.2018  0.1237 -0.2734
15357W        W35637  10.145   5.327   1.747 -0.0235  0.0120  0.2052
15358W        W35638  14.557   6.574  15.128  0.0460 -0.1180  0.0972
15359W        W35639  18.305  14.815   0.880 -0.1906 -0.2330  0.1311
15360W        W35640   1.915   6.722   3.895  0.0582  0.2176  0.0883
15361W        W35641   0.466   5.580  11.567 -0.0715  0.1535 -0.2419
15362W        W35642  10.160  12.288   3.554  0.3707 -0.0764 -0.0919
15363W        W35643   5.017   6.069  15.058  0.2477 -0.2337 -0.3470
15364W        W35644   7.253  17.319   2.542  0.1149  0.1019 -0.3357
15365W        W35645  16.803  12.380   3.458 -0.0072  0.1661 -0.0045
15366W        W35646   1.331  16.072  13.135  0.0073 -0.2730 -0.0448
15367W        W35647   8.311  17.175  14.424 -0.0504  0.1782  0.0285
15368W        W35648  13.270   8.693   4.459  0.1581  0.0710 -0.1639
15369W        W35649  13.612  15.061  12.259 -0.2919 -0.0544 -0.0661
15370W        W35650  16.716  17.976  14.164 -0.0649  0.2719  0.4170
15371W        W35651  10.833   6.221   1.809  0.0145 -0.5707 -0.1521
15372W        W35652   3.685  16.778   0.868 -0.1902  0.2067  0.0627
15373W        W35653  11.232  12.732  11.606 -0.3534 -0.1163  0.1562
15374W        W35654   0.500   0.140  14.369  0.2152 -0.0091  0.3134
15375W        W35655   4.599  14.552   1.780 -0.1372  0.0774 -0.0388
15376W        W35656   9.027   8.620  14.997  0.0861 -0.0277  0.1387
15377W        W35657   9.873   3.315   4.390 -0.0401 -0.1843 -0.1989
15378W        W35658  17.653   1.162   3.562  0.2803 -0.0772  0.1125
15379W        W35659  16.136  10.571   4.148 -0.0594 -0.0113 -0.0504
15380W        W35660  11.359   7.642   0.314 -0.1558  0.0425 -0.0323
15381W        W35661  15.752  12.470   1.575  0.1220 -0.0792  0.0362
15382W        W35662   0.043   0.566   2.223 -0.1866 -0.1155  0.0116
15383W        W35663  17.649   5.475  12.944 -0.1912 -0.2142  0.0013
15384W        W35664   9.993   3.253  14.259  0.0558 -0.0055  0.1372
15385W        W35665  13.477  16.069  13.762  0.0800  0.2949 -0.0808
15386W        W35666   4.896  16.133  13.045  0.2575  0.5757  0.3429
15387W        W35667  14.234  17.180  14.263  0.0110 -0.1966 -0.3584
15388W        W35668   0.786  16.620  14.526 -0.0844 -0.0446 -0.0482
15389W        W35669  11.549   1.831  15.318 -0.1029  0.2747 -0.1867
15390W        W35670   6.043  11.824   4.512  0.0782 -0.0977  0.1687
15391W        W35671  14.530   5.358   0.201 -0.0182  0.0222  0.0460
15392W        W35672  11.382   5.727  14.281  0.1708  0.1641 -0.3269
15393W        W35673  14.865   4.719   2.543 -0.0926 -0.1849  0.0786
15394W        W35674   9.373   9.790   4.848 -0.3420 -0.1020  0.0188
15395W        W35675   0.689  14.652  15.116  0.1653  0.1221  0.2025
15396W        W35676  17.682  16.956  11.193 -0.0579 -0.1010  0.0335
15397W        W35677   3.042  11.800  15.122 -0.0555 -0.2570 -0.0882
15398W        W35678   4.698   1.466  15.429  0.5551  0.3427  0.1969
15399W        W35679   2.124   5.437   3.386 -0.0889  0.1191 -0.1185
15400W        W35680   1.612  10.615  11.724  0.1310  0.1476 -0.2384
15401W        W35681  14.317   8.551  15.031  0.2285 -0.0342  0.0545
15402W        W35682   0.426   5.704   3.030  0.2476 -0.0166 -0.1720
15403W        W35683  15.033   5.518  12.125 -0.1363 -0.0052 -0.1243
15404W        W35684   3.172  10.672   3.536 -0.0252  0.0266 -0.0581
15405W        W35685   1.378   1.157   2.445  0.0260  0.1059 -0.0077
15406W        W35686   4.691  11.655  11.722  0.2842  0.2112  0.0819
15407W        W35687  18.240  18.231  15.137 -0.2269  0.3529 -0.1749
15408W        W35688   7.492   4.192  13.979  0.0267 -0.3449 -0.2094
15409W        W35689   2.470  16.006   0.736  0.2051  0.2156 -0.2429
15410W        W35690   7.957   8.887   2.305 -0.0274 -0.1571 -0.1604
15411W        W35691   4.121  16.940  14.376  0.0191  0.0458  0.2076
15412W        W35692  16.949   5.262   0.033  0.2559 -0.2221  0.0229
15413W        W35693  14.981   1.921  10.213  0.0471 -0.1107 -0.0905
15414W        W35694  14.512  13.665   1.150  0.0128  0.2076  0.0947
15415W        W35695  15.823  18.054  12.969  0.1501 -0.2889 -0.0888
15416W        W35696  16.199   4.764   3.936  0.0114  0.1111  0.0882
15417W        W35697   9.844  17.116   2.405 -0.1378 -0.1065  0.2790
15418W        W35698   2.060  15.375  12.677  0.2195 -0.0627 -0.0227
15419W        W35699   6.354  16.827  15.190 -0.1859  0.0007  0.0439
15420W        W35700  11.923   3.088   4.762  0.1927 -0.0003 -0.0603
15421W        W35701  15.545   1.066  11.734 -0.2341  0.1652 -0.1275
15422W        W35702  17.723  17.146  13.603  0.2030  0.1297 -0.1611
15423W        W35703   2.983  13.420  11.680 -0.0735  0.0787 -0.2482
15424W        W35704  17.904   6.253   2.929  0.0904  0.0921  0.0115
15425W        W35705  11.249  10.485   2.196 -0.1223 -0.0113  0.0793
15426W        W35706   8.634   6.558  13.101  0.2487  0.2410 -0.1352
15427W        W35707  10.170   7.666   4.340  0.0127 -0.1499 -0.1565
15428W        W35708  11.738  16.634  11.616  0.1135 -0.0192 -0.0285
15429W        W35709   5.863  12.196   1.538  0.0826 -0.3345 -0.0857
15430W        W35710  13.326  14.994   2.612 -0.0432  0.0350 -0.1713
15431W        W35711  10.652  14.199   2.906  0.3207 -0.0571 -0.4307
15432W        W35712   5.714   2.063  11.848 -0.3609 -0.0440 -0.0985
15433W        W35713   4.921  14.892  11.756 -0.1777  0.0323  0.1511
15434W        W35714  17.145  15.052  15.470  0.0235  0.2313 -0.1211
15435W        W35715   0.586  13.233   1.223  0.0959  0.0236  0.1796
15436W        W35716  16.903  13.779   2.599  0.1627 -0.0551 -0.2573
15437W        W35717   7.769  12.727   3.316  0.3317 -0.2584  0.2302
15438W        W35718   7.827  13.572  14.961  0.0679 -0.1429 -0.1089
15439W        W35719   1.411   7.134  15.262 -0.1123  0.1509  0.0456
15440W        W35720   7.521   9.511  13.302 -0.0604 -0.4080 -0.0995
15441W        W35721  17.301   8.057  13.930 -0.0813  0.0625 -0.0318
15442W        W35722   7.634  12.059  15.536  0.4443  0.0426  0.1072
15443W        W35723   2.680  12.395   4.262  0.1167 -0.1608 -0.3409
15444W        W35724  10.315   2.351  12.509  0.1337 -0.1217 -0.2969
15445W        W35725  12.927   3.760  14.222 -0.0074  0.2107  0.2777
15446W        W35726  10.163  17.547   2.283 -0.0767 -0.1816  0.0016
15447W        W35727  10.706   9.756   6.069 -0.0488  0.1719  0.2212
15448W        W35728   8.610  10.451   1.021 -0.1561 -0.1540  0.1798
15449W        W35729   9.412  10.616  10.645  0.0988 -0.3838 -0.0168
15450W        W35730  16.343  12.909   0.762 -0.3544  0.1507  0.2232
15451W        W35731   9.574   8.173   0.433  0.3380  0.3080 -0.0500
15452W        W35732   4.931  11.404   4.491 -0.3549 -0.0367  0.0220
15453W        W35733   2.672   6.661  11.977  0.2384 -0.0909 -0.0402
15454W        W35734  13.708   5.695  15.667 -0.0244 -0.0196 -0.0249
15455W        W35735   9.113   6.855   3.047  0.0296  0.2590  0.1663
15456W        W35736  13.439  12.705  14.727  0.0746 -0.2842  0.1155
15457W        W35737   5.799  15.836   4.850  0.0659 -0.0902 -0.1840
15458W        W35738  12.247   3.818   4.875  0.0890  0.2487 -0.1838
15459W        W35739   3.815  10.385  11.579 -0.1123  0.0444  0.1852
15460W        W35740  11.798   2.144   4.508 -0.0181  0.1748  0.0318
15461W        W35741  13.761  12.399   2.435 -0.0372 -0.3440  0.1077
15462W        W35742   5.151  17.468  12.694  0.0483 -0.0397 -0.0817
15463W        W35743   3.049  14.144  15.121  0.3697  0.3012 -0.2192
15464W        W35744   8.062   4.944  13.234 -0.1852  0.2721  0.0751
15465W        W35745   6.660  12.329   0.429  0.2868  0.0802 -0.0016
15466W        W35746   0.443   9.808  12.146  0.0462 -0.1751 -0.0721
15467W        W35747  15.614   0.134   3.533 -0.1009  0.0177 -0.2799
15468W        W35748   4.012   7.389  15.397  0.0348 -0.1314  0.0380
15469W        W35749   3.183   8.417   0.469  0.1622 -0.1962 -0.1803
15470W        W35750  18.027  14.566   2.233 -0.2001 -0.2408 -0.1067
15471W        W35751   2.067  12.514   2.747  0.0059 -0.2889  0.0132
15472W        W35752   2.340   5.346  13.648  0.0273 -0.0527  0.1841
15473W        W35753   6.646   6.226   1.011 -0.2131 -0.2550 -0.1189
15474W        W35754   9.514  13.073   5.434 -0.0439 -0.0273  0.2124
15475W        W35755   3.851  14.640  13.404 -0.4089  0.0403  0.0136
15476W        W35756   5.550  14.247  15.584  0.0505  0.1088 -0.0067
15477W        W35757  13.206  11.023   2.445 -0.0240  0.0697 -0.1646
15478W        W35758  13.261  15.463   3.508 -0.1194  0.2693 -0.1982
15479W        W35759   6.396   2.495   3.904  0.1292 -0.1956  0.2273
15480W        W35760   7.301   1.141   0.589 -0.1613  0.0246  0.0985
15481W        W35761  14.113   3.703   2.946  0.0080 -0.0600  0.0461
15482W        W35762   4.396   0.119  11.424  0.3476 -0.1408 -0.1803
15483W        W35763   2.810   1.621   1.576 -0.2388  0.1939  0.1775
15484W        W35764  13.550  16.993  15.777  0.0664 -0.0867  0.1620
15485W        W35765  13.772   2.527  12.989  0.1380  0.2077  0.1142
15486W        W35766  12.863  15.261   2.915 -0.0896 -0.0170 -0.1475
15487W        W35767   2.297   2.663  12.346  0.0291 -0.3093  0.1431
15488W        W35768   9.838   1.248  14.000  0.0198 -0.0414 -0.1822
15489W        W35769  15.835  15.765   4.540  0.0023  0.0340 -0.2213
15490W        W35770   9.581   7.909   3.911 -0.1778 -0.3227  0.1662
15491W        W35771  17.561   3.947  14.921  0.1347  0.0449  0.1358
15492W        W35772  12.194   0.608   2.210 -0.2034 -0.0683  0.0770
15493W        W35773   1.027  10.018  12.799 -0.0796 -0.0525 -0.1145
15494W        W35774   3.792   1.191   2.575 -0.1771 -0.0962  0.1936
15495W        W35775   8.849   4.372  11.666 -0.2742  0.1777 -0.1162
15496W        W35776  15.142   3.701  12.468  0.0304  0.0228 -0.1673
15497W        W35777  11.001  13.682   0.337  0.3955 -0.0416 -0.0791
15498W        W35778   7.099   0.780  13.236  0.1717  0.1854  0.1708
15499W        W35779  16.538  14.430   4.067 -0.1463 -0.1247 -0.0983
15500W        W35780  14.744   7.017  12.697  0.0053 -0.2898 -0.1302
15501W        W35781   0.603  14.019   3.860 -0.1106 -0.2176  0.0835
15502W        W35782   9.481   9.293   1.489  0.0710  0.0266 -0.0911
15503W        W35783  11.143   3.756  11.523 -0.0270 -0.0020 -0.1603
15504W        W35784   7.876  14.896  13.399  0.0095  0.0234 -0.0558
15505W        W35785   1.273  14.774  15.923 -0.2587  0.2237  0.2676
15506W        W35786  13.476   3.552   3.446  0.4068 -0.0086 -0.2047
15507W        W35787   4.218  16.033  14.602 -0.2857  0.1501 -0.1647
15508W        W35788   2.780  14.237  12.765  0.0748 -0.3792  0.0242
15509W        W35789  17.427   6.576   1.814 -0.1561 -0.4825 -0.3576
15510W        W35790  10.473  12.922  15.295 -0.0782 -0.1267  0.1798
15511W        W35791   1.247   1.390  14.164 -0.1085 -0.3805  0.0495
15512W        W35792   4.541   2.190  14.792  0.1925 -0.2717 -0.1296
15513W        W35793  17.501  10.386  15.116  0.2360 -0.1139 -0.0733
15514W        W35794   7.119  17.121  10.379 -0.1495  0.1245  0.1819
15515W        W35795   7.292  17.590  13.988  0.1180  0.2244  0.0219
15516W        W35796  10.436   8.794  12.528 -0.2198  0.0003  0.0305
15517W        W35797   7.293   8.648   4.122  0.1506 -0.0586  0.1001
15518W        W35798  15.958   0.703   4.040  0.0055  0.0498 -0.1189
15519W        W35799  12.561  14.846  15.895 -0.3039  0.0243 -0.1556
15520W        W35800   9.497   1.812   1.331 -0.0847  0.1059  0.0227
15521W        W35801   5.324   6.728  12.271 -0.1552  0.1778 -0.0335
15522W        W35802   7.141  10.047  13.712 -0.2043 -0.0788 -0.0020
15523W        W35803   8.462  10.150   4.320 -0.1953  0.4074 -0.0748
15524W        W35804  10.943   2.538   4.235  0.1399  0.1777  0.1628
15525W        W35805   6.250  12.418   2.749 -0.2538  0.1416  0.0274
15526W        W35806   6.155  14.122  12.995 -0.0530 -0.1541 -0.2769
15527W        W35807   2.543   3.275  13.616  0.2727  0.0263  0.0891
15528W        W35808   1.002   1.824   3.041 -0.0504  0.1089  0.1267
15529W        W35809   5.295   9.373   3.540 -0.2928 -0.0558 -0.3303
15530W        W35810  11.344   1.936  13.414  0.1650  0.0513  0.1422
15531W        W35811  18.038   2.403  13.067  0.0014  0.0459 -0.0591
15532W        W35812  11.904   0.677   4.683  0.0777 -0.0784  0.1693
15533W        W35813   2.164   6.710  12.151 -0.0994  0.0956  0.3054
15534W        W35814  16.152   6.339  15.756  0.1928  0.0550 -0.3084
15535W        W35815   2.808  10.003   2.566  0.2299 -0.0802 -0.1189
15536W        W35816   4.455   5.264  13.759  0.3419 -0.1911  0.0702
15537W        W35817  15.309  12.741   0.614 -0.1705 -0.0066 -0.0698
15538W        W35818   6.867   9.934   0.705  0.1805 -0.3120  0.0341
15539W        W35819  13.857   2.183   0.835 -0.0714  0.0216 -0.0039
15540W        W35820  10.581   4.038   2.337  0.1112  0.0712 -0.3271
15541W        W35821   8.480   3.689  12.005 -0.1153 -0.1062 -0.2035
15542W        W35822   9.793   4.317   3.734  0.4857  0.0952 -0.2377
15543W        W35823  12.060   9.157   5.181  0.1915  0.2241  0.0782
15544W        W35824   7.279  13.050  13.559 -0.0074  0.1104  0.3081
15545W        W35825   2.437   7.026  15.654  0.0063  0.0181  0.2896
15546W        W35826  10.858   3.141   0.539  0.3057  0.2242  0.0168
15547W        W35827   5.565  15.448  13.468  0.1229  0.0381 -0.2025
15548W        W35828   8.603  12.942  15.350  0.0086 -0.3028 -0.0432
15549W        W35829   2.832  13.108  15.863 -0.0754  0.0999 -0.0725
15550W        W35830  13.652   3.744  15.247 -0.0587  0.1031 -0.0090
15551W        W35831  16.434  13.409  11.801 -0.0572  0.0087 -0.1963
15552W        W35832   4.054  17.379  15.064  0.0018 -0.0199  0.3067
15553W        W35833  14.905   2.119  13.328  0.1024 -0.0807  0.2906
15554W        W35834   7.380   8.457  15.164  0.3022  0.0985  0.1425
15555W        W35835   9.584   0.299  15.049  0.3169 -0.0130  0.0014
15556W        W35836   0.778  17.475  15.040  0.4065  0.0284 -0.0159
15557W        W35837   9.114   6.265   4.321  0.2084  0.1352 -0.0455
15558W        W35838  11.266   1.346  11.582  0.1011 -0.1140  0.1619
15559W        W35839   7.003  13.487  13.499 -0.0738 -0.4064  0.1198
15560W        W35840  13.538   2.597   3.292 -0.2186  0.2319  0.2001
15561W        W35841   5.773   4.939   0.329 -0.2097  0.0020  0.0021
15562W        W35842  14.706  12.307  13.509 -0.1054 -0.0282  0.2369
15563W        W35843   5.921   0.803   0.583 -0.2687  0.0947 -0.0988
15564W        W35844   7.694   5.077  15.313 -0.2284  0.2544 -0.0319
15565W        W35845  15.878   4.843  13.832  0.0843  0.0311  0.2436
15566W        W35846  16.171  16.685   0.953 -0.0326  0.1619  0.3913
15567W        W35847  15.771   7.873   1.186 -0.2996  0.3036  0.2447
15568W        W35848   6.933   8.234  12.040  0.0568 -0.1235  0.0602
15569W        W35849  18.248   0.881   4.839  0.1375  0.1904  0.0824
15570W        W35850   0.294  15.543   4.388  0.1834 -0.4238 -0.0119
15571W        W35851  17.182  14.931  12.016 -0.0994 -0.1888 -0.0223
15572W        W35852   1.963   2.651   3.667  0.1592  0.2940  0.0424
15573W        W35853  12.603   4.876  11.617  0.2030 -0.1618 -0.3517
15574W        W35854   6.738   6.344   2.022  0.0818 -0.0412 -0.1445
15575W        W35855   3.719  11.174  14.404 -0.3720  0.3457  0.2204
15576W        W35856  14.385  14.787  13.399  0.1416  0.0593 -0.0193
15577W        W35857   4.771   7.136   0.561  0.2413  0.2964  0.0194
15578W        W35858  15.361   0.919   0.618  0.3189  0.0388 -0.1269
15579W        W35859   7.443   3.397   1.450  0.0725  0.1346  0.0731
15580W        W35860   7.928  13.092  15.044 -0.1283 -0.1850  0.0837
15581W        W35861  17.040   4.780  15.908 -0.0527 -0.0448 -0.2429
15582W        W35862  16.197   4.886   0.078 -0.1010 -0.2931  0.0542
15583W        W35863  15.712  12.501   0.432  0.1420 -0.1270 -0.1577
15584W        W35864   3.463  16.637   3.412 -0.0452 -0.0078  0.0994
15585W        W35865   3.967  13.988  14.864  0.1232  0.1588 -0.0229
15586W        W35866   8.993  15.024  13.308  0.1056 -0.1468 -0.0541
15587W        W35867   5.524  14.406   3.784  0.0580 -0.1058  0.2140
15588W        W35868   4.489   0.310  13.106 -0.0248 -0.1025  0.1753
15589W        W35869   9.577  16.475  14.116 -0.0796 -0.0395 -0.0332
15590W        W35870   3.977  10.698  10.589 -0.1472  0.0211 -0.0028
15591W        W35871   7.372  17.829   4.396  0.1401 -0.3861 -0.1033
15592W        W35872   1.992  16.600   3.900  0.1772 -0.2559  0.0820
15593W        W35873  12.681  14.352   2.791 -0.0509  0.3582 -0.3756
15594W        W35874  11.533  15.481  12.380  0.0747  0.0404 -0.2838
15595W        W35875  15.152  12.006   4.344 -0.0720 -0.0243  0.0615
15596W        W35876   6.570   3.900   2.639  0.0832  0.3370  0.1444
15597W        W35877  11.112   6.583   3.830 -0.0508  0.0626  0.0641
15598W        W35878   8.538  13.869   3.511  0.1131  0.0871 -0.0041
15599W        W35879   3.741   4.604   4.479 -0.0112  0.2824 -0.2077
15600W        W35880  13.583  13.417  11.735  0.0408 -0.2630  0.1200
15601W        W35881  10.809  11.216   2.895  0.1715 -0.1069  0.1724
15602W        W35882  10.824   0.619  12.728  0.2784 -0.0132  0.1035
15603W        W35883  14.702  11.935  13.192  0.1515  0.2916  0.3738
15604W        W35884   5.644   8.673  14.070  0.0121 -0.1889  0.1802
15605W        W35885   3.775  10.875   4.033 -0.0115 -0.2180 -0.2113
15606W        W35886   0.120  16.800  14.717 -0.1201  0.4147 -0.2468
15607W        W35887  10.824   4.968   3.227  0.0108 -0.0825  0.1694
15608W        W35888  12.140  12.784  14.968  0.1122  0.1242 -0.0582
15609W        W35889   9.327  14.616  13.202  0.2030  0.2589  0.1247
15610W        W35890   2.498  14.684   1.704  0.2476 -0.3767 -0.3128
15611W        W35891   9.823   7.489  11.392  0.2899  0.0292 -0.0423
15612W        W35892  12.940  11.936   1.478 -0.0301  0.0056  0.0025
15613W        W35893  12.052   9.901   0.520  0.1313  0.0827 -0.5124
15614W        W35894   1.395  12.978  15.523 -0.1257 -0.2217  0.1665
15615W        W35895  10.455  15.207  12.577  0.0855  0.0554  0.0910
15616W        W35896   2.064   8.398   1.785 -0.3166 -0.1191 -0.2878
15617W        W35897   3.769   8.602   1.186  0.1169 -0.0894 -0.0030
15618W        W35898  12.854   5.529  15.419  0.0173  0.0029 -0.1239
15619W        W35899  15.894   3.683  13.446 -0.1339 -0.1840  0.1010
15620W        W35900   8.685  16.395   0.698  0.3785 -0.1753 -0.1578
15621W        W35901   6.188   3.646  14.703 -0.1249 -0.1187  0.1875
15622W        W35902   7.529  15.351   1.376  0.1016 -0.2509  0.3259
15623W        W35903   7.131  12.501   4.237 -0.0677 -0.0002  0.2343
15624W        W35904   3.759  16.070  12.486 -0.1530 -0.0831 -0.0246
15625W        W35905  15.226   1.593   1.209  0.0748 -0.3981  0.1175
15626W        W35906   4.662   9.234  11.860 -0.2419 -0.1491  0.1928
15627W        W35907   1.663  14.468   0.812 -0.2082  0.2654 -0.0635
15628W        W35908  12.178   4.142  14.891  0.1673  0.1540  0.0117
15629W        W35909   0.976  14.823   2.304 -0.0195  0.1626 -0.1829
15630W        W35910   9.707  13.742  13.451 -0.0275 -0.1552 -0.2743
15631W        W35911   3.836   6.347  13.918  0.0409 -0.0844  0.0915
15632W        W35912   0.457  12.176  11.297 -0.0011  0.0700  0.0096
15633W        W35913  11.358   2.357   4.473  0.1386 -0.3509  0.1024
15634W        W35914  18.053  13.859  13.519 -0.1262  0.0846  0.0178
15635W        W35915  17.188   9.376  13.326  0.0853 -0.1875 -0.0564
15636W        W35916   9.982   5.229  13.004 -0.0041 -0.2492  0.0642
15637W        W35917  13.881  11.761  15.210  0.0374  0.0393 -0.3653
15638W        W35918   4.500  16.242   2.058 -0.1450  0.0008  0.2833
15639W        W35919   6.113  14.391   1.504  0.3038  0.2434  0.1504
15640W        W35920   5.870  11.096  13.807 -0.0512  0.2773 -0.2567
15641W        W35921   4.618  10.613   0.006 -0.0941 -0.0562 -0.5123
15642W        W35922   7.650   7.099   1.990  0.1780  0.1498 -0.1193
15643W        W35923  13.411   5.358  15.112  0.1393 -0.0478  0.1043
15644W        W35924   7.673   7.360   3.947  0.2610 -0.0863 -0.3748
15645W        W35925   8.399  12.083   3.261 -0.0513  0.1685  0.3164
15646W        W35926   4.072   9.845  15.119  0.0273  0.0599  0.0342
15647W        W35927   9.688  12.709   4.194 -0.0237 -0.0006  0.1044
15648W        W35928   3.999   8.911  15.594  0.0502  0.0579 -0.0589
15649W        W35929   2.084  11.580   2.087 -0.0299  0.2737  0.2864
15650W        W35930  14.856  15.311  15.431 -0.0459  0.1066  0.2428
15651W        W35931  13.404   1.164   4.067 -0.2714  0.0255 -0.2399
15652W        W35932   6.405  17.540  13.851 -0.1911 -0.0828  0.0470
15653W        W35933   5.558  12.499  12.696  0.3458  0.1180 -0.2061
15654W        W35934   4.722  12.484  12.072 -0.0340 -0.0979 -0.1953
15655W        W35935   9.759  18.244  14.658  0.1544  0.0588 -0.3603
15656W        W35936  12.291  12.154   4.584  0.0719  0.1167  0.1225
15657W        W35937  11.918  14.507  14.457  0.2553 -0.3455 -0.1941
15658W        W35938   6.060   7.053  12.741 -0.0022  0.1072 -0.1738
15659W        W35939   9.780   3.539   2.040  0.0417  0.2697 -0.1891
15660W        W35940   3.091   4.821   1.668 -0.1919  0.0765 -0.0385
15661W        W35941  17.521  14.748   3.032 -0.0444  0.5895 -0.0170
15662W        W35942  16.651   9.110   2.439 -0.0102 -0.1301 -0.1168
15663W        W35943  18.217   8.574  13.591  0.0703 -0.1253 -0.0740
15664W        W35944  13.212   1.455   4.531  0.0768  0.0560  0.2404
15665W        W35945  14.782  12.601  15.365 -0.2235 -0.0396 -0.0488
15666W        W35946   9.277  18.139   5.082  0.0435  0.0864  0.1612
15667W        W35947   2.502  11.900   3.286 -0.1993  0.2255 -0.0401
15668W        W35948  18.236  11.270   3.207  0.0453 -0.4454 -0.1774
15669W        W35949   0.506   8.956   2.638 -0.3770  0.5213 -0.3204
15670W        W35950   2.456  16.097   4.365  0.1750 -0.3160 -0.1204
15671W        W35951  16.104  12.144  12.773  0.0069 -0.2141 -0.1203
15672W        W35952   8.093  16.668  14.968 -0.2810 -0.0777 -0.0222
15673W        W35953  16.399   3.478   4.203  0.2253  0.2983  0.0236
15674W        W35954   7.337   2.142   1.949 -0.0461 -0.0001  0.0722
15675W        W35955   4.060   9.895  13.064  0.2275 -0.0207 -0.1525
15676W        W35956   5.824  17.088   0.363 -0.1601  0.1436 -0.1752
15677W        W35957   5.173  14.299  10.988  0.0228  0.1793 -0.0172
15678W        W35958   4.644   2.830   2.914 -0.0584  0.0941  0.1351
15679W        W35959   8.071   2.249   4.220 -0.3397 -0.3258 -0.4720
15680W        W35960  16.252   4.034  15.686  0.1239  0.1158  0.0736
15681W        W35961  15.607  14.533   4.235  0.2817  0.1143  0.2390
15682W        W35962   3.413  16.956   0.004 -0.4356  0.1970 -0.0289
15683W        W35963  14.231  12.303  15.898  0.2912  0.3795 -0.0184
15684W        W35964  16.099  11.321   4.716  0.1633 -0.1644  0.2177
15685W        W35965   4.586  18.086  14.893 -0.0092 -0.1710 -0.0028
15686W        W35966   7.606   6.678  14.071 -0.0279  0.3133  0.3997
15687W        W35967   4.879   5.141  12.759  0.0993 -0.1204 -0.0051
15688W        W35968   9.725   2.870   0.587 -0.1772 -0.0153 -0.0068
15689W        W35969  12.448  16.412   1.424  0.0908  0.1421  0.0570
15690W        W35970   2.890   2.955  15.560  0.1986 -0.0246 -0.1986
15691W        W35971  12.161  14.304  11.886  0.1081  0.0403  0.0844
15692W        W35972  13.382   4.881  10.842 -0.0518  0.1274 -0.0720
15693W        W35973  11.723  10.652   1.676 -0.2577 -0.1368  0.0263
15694W        W35974   1.391  18.046   0.474 -0.0496 -0.0248 -0.0485
15695W        W35975  17.184  17.064   2.899 -0.3834  0.0262 -0.1272
15696W        W35976   1.937   5.955  14.402  0.0757  0.2739 -0.0659
15697W        W35977   8.986   8.272   2.369  0.3739 -0.0884 -0.2739
15698W        W35978  13.720  16.141   0.533 -0.0524  0.1332 -0.0792
15699W        W35979  12.559   5.939   2.400 -0.1647  0.0322 -0.1013
15700W        W35980  12.640   8.059  12.805  0.1972  0.1498  0.1371
15701W        W35981   4.488  11.409   0.827 -0.1315 -0.0532  0.1163
15702W        W35982   9.146   7.605   3.088 -0.0655  0.0410  0.1097
15703W        W35983   3.116   0.846  12.583 -0.1915  0.1237 -0.0415
15704W        W35984   0.202  14.598  13.748  0.1170  0.1927 -0.1992
15705W        W35985   2.431  18.107   3.410  0.1416  0.0621  0.1395
15706W        W35986   3.256   1.438  11.837 -0.0871  0.0713  0.1719
15707W        W35987  18.089   0.025  12.391  0.2297 -0.1489 -0.0798
15708W        W35988   3.391   6.782  12.751  0.2844  0.0813  0.0080
15709W        W35989  17.206   6.595   1.291  0.1279 -0.3193  0.1504
15710W        W35990   3.640  10.788  11.012  0.1357 -0.0013 -0.2236
15711W        W35991   2.298  14.319  15.556 -0.4273  0.0825 -0.0055
15712W        W35992   8.909  13.829   4.020 -0.0830  0.1065  0.0224
15713W        W35993   4.593   5.074  15.591  0.1688 -0.1154  0.1010
15714W        W35994   1.827   6.975  14.160  0.3103  0.1215 -0.0269
15715W        W35995   0.358  17.575  15.856  0.0428  0.0019  0.2566
15716W        W35996   9.698   8.244   3.033 -0.2016 -0.0302  0.0921
15717W        W35997  16.964  11.434  15.500 -0.1328 -0.1149 -0.1894
15718W        W35998   9.383   4.352  14.656 -0.1049  0.1019 -0.3746
15719W        W35999  15.211   3.111   2.044  0.0864 -0.0577  0.0207
15720W        W36000   1.840   9.162   3.208  0.2211 -0.0255 -0.0027
15721W        W36001   1.426   2.251  12.552 -0.0573 -0.0283 -0.2476
15722W        W36002  11.209   2.660  15.209  0.3503  0.2043  0.3121
15723W        W36003  13.782   3.501  13.759 -0.1744  0.2873 -0.1850
15724W        W36004  14.427   3.288  15.827  0.3290  0.1806 -0.0631
15725W        W36005   8.967  18.140   0.661  0.1629 -0.1817 -0.0312
15726W        W36006   6.067  14.726  12.378  0.0305 -0.1444 -0.1814
15727W        W36007   3.038   5.188  13.681  0.2955 -0.3717  0.3184
15728W        W36008  13.932   3.967   3.463 -0.2004 -0.1582  0.0393
15729W        W36009   6.480  17.833   0.292 -0.0100  0.1322  0.0889
15730W        W36010   1.712   9.932  11.235  0.0240  0.0414  0.0093
15731W        W36011   3.560  13.291  14.467  0.0319  0.0288 -0.0787
15732W        W36012   6.631   1.482  11.952 -0.1931 -0.0625  0.3986
15733W        W36013   1.858  18.177   3.918 -0.1000  0.2836  0.0992
15734W        W36014  14.668  17.495  12.121  0.0285  0.1119 -0.2856
15735W        W36015   8.834   9.431  11.876  0.3085 -0.0976  0.0303
15736W        W36016  11.875   6.250   3.010 -0.1526  0.1030  0.1580
15737W        W36017  12.115  10.121  14.048 -0.0163 -0.0684 -0.1086
15738W        W36018   7.131   7.392  14.191 -0.1412  0.3231  0.1709
15739W        W36019   5.854   5.874   4.474  0.0953  0.1210 -0.1104
15740W        W36020  14.523  13.128   2.760 -0.2389 -0.0734 -0.0646
15741W        W36021  11.384   6.543  15.561 -0.1152 -0.3881 -0.1586
15742W        W36022   8.144   2.219   1.468  0.0240 -0.0385 -0.1124
15743W        W36023  13.983  10.096  12.445 -0.1323  0.1950  0.3830
15744W        W36024   6.379   7.548   0.950 -0.0319  0.0725 -0.0010
15745W        W36025  12.889   9.598   4.841 -0.0298 -0.2854  0.5960
15746W        W36026   6.400   9.511  11.646 -0.0332  0.0003  0.0147
15747W        W36027   0.541  15.151   4.033  0.2984  0.0386 -0.0928
15748W        W36028  16.562  11.471   4.485 -0.3619 -0.1139  0.0703
15749W        W36029  14.946  12.644   3.321 -0.2569 -0.3425  0.1066
15750W        W36030   6.368  16.347  14.398  0.0234  0.4123 -0.0329
15751W        W36031   9.813   2.792   1.292  0.1776 -0.1063 -0.3165
15752W        W36032  16.406   7.235  12.269  0.0605  0.1318 -0.0718
15753W        W36033   7.934  12.827   0.642  0.0928 -0.1935 -0.1024
15754W        W36034  16.600  12.747  10.789  0.1275  0.2409 -0.0830
15755W        W36035  15.372  10.144  12.763 -0.0699 -0.0849 -0.0782
15756W        W36036   6.707   1.858   0.401  0.2221  0.1552 -0.2014
15757W        W36037   8.244   8.680   2.691  0.2689 -0.2396  0.0918
15758W        W36038   0.940   6.489  11.739  0.0464  0.1440  0.2541
15759W        W36039   3.944   8.301   4.694  0.1205 -0.2834 -0.0314
15760W        W36040  12.756   0.268  13.683  0.0078 -0.0091 -0.0748
15761W        W36041   2.788  10.456   1.358  0.1492 -0.2464 -0.1032
15762W        W36042   4.130   5.064  11.677 -0.2118  0.2078  0.3159
15763W        W36043   4.262  18.309   1.561 -0.1618  0.0267  0.0110
15764W        W36044  16.174  11.655   0.957  0.0243 -0.1037 -0.0679
15765W        W36045   7.003   1.707  11.207  0.0296  0.1127  0.2187
15766W        W36046   6.610  17.889  12.796 -0.2272  0.1852  0.1609
15767W        W36047   1.345   5.514   2.561 -0.1724 -0.0403 -0.0461
15768W        W36048  15.579   9.953   4.777  0.1216 -0.1146 -0.0720
15769W        W36049  12.482  11.222   1.672 -0.0551 -0.0681  0.1059
15770W        W36050   0.991  14.985  15.527 -0.1814 -0.1911  0.2790
15771W        W36051  16.803   3.856  14.389  0.1468 -0.3424 -0.0193
15772W        W36052  12.010   3.785  13.157  0.0020  0.1715 -0.1382
15773W        W36053   8.528   2.347  11.544 -0.2506  0.1607 -0.0422
15774W        W36054  12.492   8.062   2.649 -0.2055  0.1559  0.0229
15775W        W36055   1.144   0.761  15.645 -0.0257 -0.0639  0.0162
15776W        W36056   1.680  15.382   0.782  0.1482 -0.2940  0.0041
15777W        W36057  14.479  10.270   4.115  0.1662  0.0024 -0.0455
15778W        W36058   8.371   6.582   2.407  0.0940 -0.1580 -0.1483
15779W        W36059   1.912  16.120  11.794 -0.0838 -0.0102 -0.0952
15780W        W36060   8.764   8.873   2.526 -0.2415 -0.2856  0.1247
15781W        W36061  15.179   4.690  13.049 -0.1801 -0.4216 -0.0179
15782W        W36062  15.783   4.563  12.963  0.1041  0.0205  0.2826
15783W        W36063   4.593   4.721   4.001 -0.2796  0.0238 -0.0277
15784W        W36064   7.448   2.124  13.647 -0.2080  0.0701 -0.2706
15785W        W36065   5.746  13.833  12.968 -0.2347 -0.2074 -0.3077
15786W        W36066  16.897  18.030   1.185  0.2918 -0.0033 -0.0937
15787W        W36067   1.041   3.664  15.348  0.0594  0.2067  0.1533
15788W        W36068  18.113   9.434   1.117 -0.4209 -0.1979 -0.1492
15789W        W36069   8.870   4.468   2.942  0.2191  0.0498 -0.1416
15790W        W36070   5.738   3.142   3.983 -0.1923  0.1277 -0.0028
15791W        W36071   2.251  16.406  14.035 -0.0559 -0.1332 -0.2333
15792W        W36072  16.077   7.516   4.342  0.1885 -0.1271 -0.2643
15793W        W36073   8.518   5.690  14.011  0.0118  0.2172  0.1975
15794W        W36074  13.840   5.840  14.235  0.1577 -0.1442 -0.1105
15795W        W36075   9.269   4.586  15.756  0.1002  0.0656  0.1907
15796W        W36076  17.057  17.459  12.802  0.1983  0.1162 -0.3592
15797W        W36077  17.456  15.417  12.098 -0.1961 -0.0891 -0.3598
15798W        W36078   0.169   3.193   2.330  0.3824  0.1034  0.2189
15799W        W36079  17.590   2.379   0.692 -0.2054 -0.1110  0.2654
15800W        W36080  17.602   0.066  15.097  0.0134  0.0685  0.1619
15801W        W36081   3.471   0.355  11.468 -0.0943  0.0723  0.2515
15802W        W36082   4.689  12.293   3.794 -0.1757  0.1155  0.2660
15803W        W36083   1.235   0.711   2.546  0.0951 -0.0865 -0.1567
15804W        W36084  15.754  11.930  11.954  0.4276 -0.2867  0.0266
15805W        W36085   3.205   0.858  13.891  0.0972 -0.0396  0.1139
15806W        W36086  16.435  14.977  12.603 -0.3381 -0.3386  0.0415
15807W        W36087   1.928  13.609  13.887  0.4330 -0.4438  0.1667
15808W        W36088   2.121  11.491  14.504  0.1293 -0.0165 -0.1011
15809W        W36089   1.014  16.077   2.876  0.0245  0.1313 -0.1258
15810W        W36090   2.240  17.885  12.929 -0.2031 -0.0068 -0.2354
15811W        W36091  15.776   2.071   4.525 -0.2330  0.4266  0.2794
15812W        W36092   4.754   8.094  11.564  0.0770 -0.0612  0.0580
15813W        W36093   8.259   0.074   3.673  0.3925 -0.0974  0.0608
15814W        W36094   4.230   1.171  14.610  0.0528  0.0802 -0.1906
15815W        W36095  13.099  15.329  12.952 -0.0124  0.0241  0.1957
15816W        W36096  13.239   9.678  15.935 -0.3964 -0.0151  0.2851
15817W        W36097  11.366   9.592  15.309  0.2943 -0.1550 -0.1962
15818W        W36098   4.714   2.134   4.661  0.0270  0.2768 -0.0431
15819W        W36099  10.570   8.618  10.770 -0.0284 -0.0275  0.0686
15820W        W36100   2.442   4.261  15.248  0.2126  0.4222 -0.2171
15821W        W36101  12.285   1.442   2.080 -0.1180  0.1345  0.2200
15822W        W36102  15.975   9.704   1.921  0.0587 -0.0491  0.2101
15823W        W36103   6.696   9.438  14.422  0.2223 -0.3016  0.0920
15824W        W36104   9.965   2.084   0.015 -0.1666  0.0022 -0.1714
15825W        W36105  13.516  15.102  10.937  0.2073  0.0972  0.0856
15826W        W36106   9.154  11.734   0.918 -0.1313  0.1036 -0.3814
15827W        W36107  10.094  17.639  12.718  0.0616 -0.1603 -0.1096
15828W        W36108   1.281   5.361  13.357 -0.1319 -0.0129  0.1652
15829W        W36109   3.619  15.129   4.136 -0.1471 -0.0585 -0.1308
15830W        W36110   1.549  12.957  13.596 -0.0989 -0.3928  0.1184
15831W        W36111   4.532  10.260  14.348 -0.0871 -0.1544 -0.1300
15832W        W36112   5.280   4.911   4.422  0.0637  0.2752 -0.0634
15833W        W36113   5.575  18.034  15.415 -0.1727  0.1267  0.1231
15834W        W36114  18.056   0.862  15.174  0.2243  0.0666 -0.0221
15835W        W36115  18.223   3.885  12.218  0.0413  0.1893  0.0305
15836W        W36116   9.986   8.363  14.697 -0.1832  0.1959  0.1270
15837W        W36117   7.796   5.978  12.249 -0.0010 -0.0097  0.0568
15838W        W36118  13.072  15.631   1.487 -0.1697  0.0388  0.0555
15839W        W36119   6.952  15.298   5.474  0.1552 -0.3799  0.1040
15840W        W36120  11.473   1.379  15.572  0.2058  0.1415 -0.0581
15841W        W36121   1.576   1.155  12.214  0.0203 -0.2935  0.2630
15842W        W36122   8.206  14.370   1.020 -0.0284 -0.0930 -0.1955
15843W        W36123   1.378   8.643  12.610 -0.2722 -0.0172  0.2606
15844W        W36124  10.176  13.057   4.718 -0.2629  0.3888  0.0656
15845W        W36125   2.849  15.737  12.777 -0.0290  0.2613 -0.0380
15846W        W36126  17.204   4.596   1.383  0.0071 -0.2214 -0.0944
15847W        W36127   5.925  10.363   0.773 -0.0474 -0.3901 -0.5158
15848W        W36128   1.298   0.614  12.175  0.1828  0.1040 -0.2260
15849W        W36129   2.350   3.436  12.596 -0.1094 -0.2683 -0.0892
15850W        W36130   6.902   0.832   0.505  0.0415 -0.2777  0.2113
15851W        W36131   2.453   5.779   1.063 -0.2016  0.0500  0.0215
15852W        W36132   6.580   8.924   3.144 -0.0991 -0.0484 -0.1504
15853W        W36133   6.317  16.527  12.169  0.1472 -0.2543 -0.1654
15854W        W36134   3.976   9.510   3.877  0.2559  0.2773  0.2743
15855W        W36135   9.165  10.572   2.124 -0.0137  0.0871  0.0711
15856W        W36136  11.119   1.273   4.302 -0.1536 -0.4280  0.0343
15857W        W36137   3.349   7.309   5.006  0.3724  0.2823  0.2004
15858W        W36138   7.355  14.457   3.258  0.0646 -0.1254 -0.2093
15859W        W36139   6.017   8.532  13.074 -0.0049  0.1935  0.1087
15860W        W36140   9.949  17.963   2.491  0.1722 -0.1634 -0.0534
15861W        W36141   8.814  16.033  15.866 -0.1027  0.0368  0.2243
15862W        W36142   4.023  11.710  15.050 -0.2094  0.0551 -0.1714
15863W        W36143  10.309  17.916   0.386 -0.0870 -0.2372 -0.0859
15864W        W36144   2.015   0.835  13.137 -0.0753 -0.1873 -0.0255
15865W        W36145  10.003  10.099  13.510  0.0977  0.1663 -0.1060
15866W        W36146  10.754  13.034   3.261  0.0179  0.0668 -0.0506
15867W        W36147   9.555  11.699   1.216 -0.0058  0.3378  0.0826
15868W        W36148   2.687   4.130  15.696  0.3308 -0.2694  0.4129
15869W        W36149  13.713  15.089   0.792  0.0373 -0.0576  0.0051
15870W        W36150   0.293   8.079  12.827  0.3300 -0.3442  0.0459
15871W        W36151  17.683  14.399   4.219 -0.1318  0.1347  0.1305
15872W        W36152   1.186   5.043  15.693  0.2329  0.1419 -0.0267
15873W        W36153  11.302   4.704  11.560  0.0918  0.2646  0.1973
15874W        W36154   1.598  13.569   3.423 -0.3444  0.0967 -0.0462
15875W        W36155   7.300   1.228   3.550 -0.3172 -0.0675 -0.0799
15876W        W36156   8.622   7.516   1.676  0.0702 -0.1627 -0.1840
15877W        W36157   7.993   5.954   2.967 -0.0095  0.5105 -0.0444
15878W        W36158  16.322  14.803  12.151 -0.1963  0.0598  0.2562
15879W        W36159   1.027  11.017  12.396  0.0382  0.0485  0.0220
15880W        W36160   8.528   5.134  11.357  0.0079  0.0756  0.0868
15881W        W36161   7.577  12.486   3.959  0.0427 -0.0303 -0.1316
15882W        W36162   2.795   0.763  14.204  0.0931  0.3992  0.1682
15883W        W36163  14.549   0.236  15.498 -0.3212  0.1232  0.0406
15884W        W36164  15.030  14.055  14.027  0.0843 -0.0134  0.3823
15885W        W36165   2.707  15.781  13.311  0.0311 -0.0825  0.0283
15886W        W36166   8.017   3.779  14.059  0.0015 -0.0983 -0.1802
15887W        W36167   9.505   4.691  13.405 -0.0325 -0.0777 -0.2567
15888W        W36168   5.009   8.494   2.727  0.0649  0.0066 -0.2882
15889W        W36169  17.557  13.797   0.194  0.0929  0.0880 -0.0457
15890W        W36170   2.520  12.236   1.472 -0.2622 -0.0487  0.0292
15891W        W36171  18.102  16.584  13.865  0.0478 -0.0272  0.1589
15892W        W36172  16.507   4.988  13.749  0.3165  0.0444 -0.0453
15893W        W36173   4.062   4.139   2.445 -0.0259 -0.1549  0.4380
15894W        W36174  14.498   3.982   2.801 -0.1494  0.4442 -0.0761
15895W        W36175  10.499   3.613   3.202 -0.0801  0.1090 -0.0959
15896W        W36176  13.717  13.772   0.104 -0.1265  0.3599  0.2166
15897W        W36177  10.195  17.871  14.171  0.3361 -0.1917  0.1336
15898W        W36178   9.635  13.790   2.188 -0.1400 -0.0188  0.0070
15899W        W36179  17.219   8.008   2.807  0.0058 -0.3324 -0.0595
15900W        W36180  14.934  13.142   2.425 -0.1909 -0.0410  0.1743
15901W        W36181  17.795   2.763  12.781  0.0328 -0.2246 -0.0962
15902W        W36182   9.095  10.157  11.394  0.2831 -0.1322 -0.0657
15903W        W36183   0.142   4.258   3.179  0.0312  0.0338  0.0126
15904W        W36184   9.525   5.157  11.266 -0.0335 -0.0518  0.0404
15905W        W36185  13.085   7.402  11.725  0.1332  0.0763 -0.1609
15906W        W36186  10.988   7.380   0.098 -0.2176  0.1365 -0.1181
15907W        W36187  18.269   2.853   2.626  0.0532 -0.3285 -0.1259
15908W        W36188  17.894  17.743  15.694 -0.1213 -0.0314 -0.1125
15909W        W36189   1.081  14.120  14.259 -0.3420  0.0278  0.0855
15910W        W36190  14.073  12.657  11.843 -0.0362  0.3775  0.0054
15911W        W36191   3.368   7.421  15.896 -0.1170 -0.0918 -0.2208
15912W        W36192   1.018  11.190   3.863  0.1111  0.3431 -0.1716
15913W        W36193  15.826  14.321  11.867 -0.0241  0.0729 -0.2979
15914W        W36194  17.768   2.941   0.671  0.0310  0.0647 -0.0150
15915W        W36195   4.963  13.939  13.754 -0.0499 -0.1885  0.3400
15916W        W36196   5.053   3.349  12.422 -0.1557  0.0017  0.1781
15917W        W36197   1.876  13.972   0.833  0.0137  0.0403 -0.2407
15918W        W36198   8.458  18.300   3.216  0.0868  0.0817 -0.2666
15919W        W36199   8.283   9.431  13.654  0.3479 -0.1314 -0.0049
15920W        W36200   0.604  15.226  15.735  0.0419  0.0882 -0.1404
15921W        W36201  16.109   7.329  13.932  0.0013  0.0618  0.2094
15922W        W36202   3.259   2.126   4.451  0.0482  0.0412  0.0555
15923W        W36203  17.998  15.349  12.106  0.0447 -0.0900  0.1329
15924W        W36204   1.804   9.716  12.628  0.0668 -0.2402 -0.1307
15925W        W36205   6.919   3.710  11.123  0.1550  0.1784  0.0161
15926W        W36206   0.288   8.595  11.997  0.2035 -0.2347 -0.2950
15927W        W36207  15.455  13.334  10.798  0.0701 -0.0226  0.1209
15928W        W36208  11.002  13.264   1.971 -0.1337  0.0652 -0.0297
15929W        W36209  18.288  14.621   1.307  0.0794  0.0473  0.2698
15930W        W36210   8.749  13.808  13.097  0.1313  0.2400 -0.0010
15931W        W36211  11.219   9.575   3.052  0.2566 -0.1514  0.0392
15932W        W36212   8.124   2.071  15.032  0.1272  0.2240  0.1111
15933W        W36213  14.293   1.798  11.343  0.1424 -0.0733 -0.0868
15934W        W36214   7.337   7.747  14.895 -0.1233  0.0920  0.1228
15935W        W36215   3.812  16.886  11.167 -0.1172 -0.1636  0.0103
15936W        W36216   6.291   3.119  12.564 -0.2025  0.0112 -0.0232
15937W        W36217   5.365   2.821   2.285  0.1251  0.0295 -0.0875
15938W        W36218  12.439   3.975  10.902 -0.0569  0.0136  0.0018
15939W        W36219   1.742  10.277   1.497 -0.0252  0.1726  0.1668
15940W        W36220   2.065  12.927   4.465 -0.0136 -0.1604 -0.2473
15941W        W36221   7.766  15.423   3.728  0.0044  0.2386 -0.2089
15942W        W36222   1.283   9.008   3.728 -0.0467  0.2304 -0.1089
15943W        W36223   5.487   3.386  13.133 -0.0180  0.2745  0.0373
15944W        W36224  13.261   4.015  15.149  0.2875  0.1473 -0.0686
15945W        W36225   8.914   5.093   3.674  0.1367 -0.2716 -0.0533
15946W        W36226   4.352   4.794  12.066 -0.1413 -0.2522  0.0498
15947W        W36227   4.940   2.529  14.740  0.3070  0.1353 -0.0290
15948W        W36228  17.022  14.882   2.312 -0.0240  0.1750 -0.2768
15949W        W36229   0.165   3.444  14.851  0.0252  0.1236 -0.2656
15950W        W36230   0.826   5.468  15.540 -0.3832 -0.0309  0.1498
15951W        W36231  16.656   8.315   4.587  0.2483 -0.0432 -0.0268
15952W        W36232   8.357   8.077   2.953  0.1024 -0.0610  0.1158
15953W        W36233  14.776  12.488   0.547 -0.2767  0.0413  0.0917
15954W        W36234  14.867   7.024   3.692 -0.0976 -0.0646  0.0164
15955W        W36235   8.648   3.887   3.813  0.1756 -0.1385 -0.1213
15956W        W36236   5.246  12.397  12.212 -0.2522 -0.1499  0.0772
15957W        W36237   1.506   8.528  11.351 -0.1979 -0.1584 -0.2661
15958W        W36238   0.124   5.530  13.435 -0.0935 -0.1687 -0.2763
15959W        W36239   4.007   5.084   2.223 -0.0448 -0.2370 -0.0272
15960W        W36240   8.845   4.939  15.864  0.1192  0.0747  0.2570
15961W        W36241   6.838  15.498  13.977 -0.0316 -0.0540  0.0543
15962W        W36242  13.401  13.185  11.359  0.0062  0.2879  0.1638
15963W        W36243  17.981   7.790   1.726 -0.1187  0.2689  0.1969
15964W        W36244  11.607   9.897  12.106 -0.0099 -0.2010 -0.1272
15965W        W36245   1.852  17.597  13.888  0.1833 -0.1006 -0.0643
15966W        W36246  16.412  14.050   2.556  0.3552 -0.1628  0.0112
15967W        W36247   8.793   7.218   3.135  0.3323 -0.0564 -0.0120
15968W        W36248  12.217   5.125   0.874 -0.1195  0.1309  0.1078
15969W        W36249  11.585   6.093   4.752 -0.0270  0.1543  0.1355
15970W        W36250  15.703  10.248   1.154  0.1766 -0.4639 -0.0521
15971W        W36251  10.979  13.647  13.504 -0.0781  0.3500  0.3578
15972W        W36252   5.276   3.575   4.470 -0.2807  0.0391 -0.2573
15973W        W36253   4.139   6.818  11.636  0.0858  0.1905  0.2830
15974W        W36254   4.062  13.155  12.292  0.1452  0.0563  0.0451
15975W        W36255   5.396  10.124   3.034 -0.0882 -0.1029 -0.2145
15976W        W36256   0.628  10.330  12.792  0.1127  0.1039  0.0394
15977W        W36257   2.378  13.709  14.299  0.3754 -0.1149  0.0966
15978W        W36258   6.047  14.877  13.697  0.0883 -0.0464  0.0679
15979W        W36259   7.303   0.160   3.564  0.0100  0.1201 -0.0851
15980W        W36260  14.856   1.139  11.113 -0.0660 -0.1870  0.0903
15981W        W36261  13.169  14.841  12.118 -0.1400  0.4095  0.1936
15982W        W36262   1.745   8.745   1.637  0.3005 -0.5684  0.3405
15983W        W36263   1.059   3.424   4.269 -0.1861 -0.0656  0.1942
15984W        W36264  13.945  16.053   1.497 -0.0480  0.1623 -0.5105
15985W        W36265   5.696  16.070  11.226  0.0260  0.0762 -0.0917
15986W        W36266   7.418   2.049  11.098  0.0144 -0.3423  0.3757
15987W        W36267  13.432   8.245   5.391  0.1084 -0.0045  0.2959
15988W        W36268  15.197   2.580   2.961 -0.2732 -0.1071  0.1159
15989W        W36269  16.888   4.647  12.171  0.1395 -0.4216  0.0712
15990W        W36270   6.580   6.716   1.095  0.0517 -0.0507  0.0187
15991W        W36271  11.339   4.751  14.661 -0.0383 -0.1914 -0.0516
15992W        W36272   1.642   2.922  13.081  0.0343 -0.1965  0.0423
15993W        W36273   5.713  15.878  15.258 -0.0515  0.0666 -0.0785
15994W        W36274  13.284  14.166  15.882  0.0474  0.3301  0.1446
15995W        W36275  16.149  13.161  12.347 -0.1625  0.1240 -0.2089
15996W        W36276  15.084   5.446   2.163  0.0334  0.2262  0.0721
15997W        W36277  10.634   0.032  13.580 -0.1147  0.1353 -0.3232
15998W        W36278   4.678  14.150   0.029  0.1051 -0.1872  0.0399
15999W        W36279  16.176   6.494   0.308  0.1462  0.3091  0.1827
16000W        W36280   2.394  14.468  13.038 -0.1427 -0.0977 -0.0179
16001W        W36281  12.423   9.489  15.043 -0.1304 -0.0449 -0.2746
16002W        W36282  12.165   9.438   3.313  0.2197  0.2304 -0.2104
16003W        W36283   9.314   7.327   3.935  0.2632 -0.1260 -0.0462
16004W        W36284   7.895   2.305  13.749 -0.0172 -0.1732 -0.1303
16005W        W36285   6.049  10.442   2.299 -0.0443  0.0852 -0.5715
16006W        W36286  13.479  12.436   1.965  0.0364 -0.1892  0.2269
16007W        W36287   7.183  14.110   1.200  0.0012  0.1532 -0.0746
16008W        W36288  12.534  18.327  13.337  0.4115 -0.0968 -0.3973
16009W        W36289  13.261   2.890   4.256  0.1788  0.0844  0.1282
16010W        W36290   1.047   4.689   2.741  0.2652 -0.0178 -0.0406
16011W        W36291   0.912  12.863   3.346  0.0469 -0.1681  0.1533
16012W        W36292   5.693  17.832   0.645  0.0334 -0.0502 -0.2850
16013W        W36293  11.514  13.140  15.217 -0.0361  0.0296  0.1133
16014W        W36294  12.794   5.066   2.186  0.1363  0.0315  0.2559
16015W        W36295  17.052  10.418  13.846  0.1457  0.1978  0.2806
16016W        W36296  14.464   9.242   5.082 -0.1657  0.2372  0.1534
16017W        W36297  16.327   9.182  13.969  0.1676 -0.1157  0.0319
16018W        W36298   6.451   5.852   1.826 -0.3055 -0.0433 -0.1412
16019W        W36299  16.825  17.883   4.241  0.0149 -0.2402  0.2480
16020W        W36300   9.884  17.294   1.130 -0.1682  0.1550  0.2506
16021W        W36301   7.380   9.259  11.900 -0.1108 -0.0736  0.1128
16022W        W36302   0.353   3.102   0.440 -0.3078  0.1134 -0.1524
16023W        W36303   5.141  16.755  11.496  0.1621 -0.0594  0.0169
16024W        W36304  16.899   6.362   2.634 -0.0059 -0.2152 -0.0327
16025W        W36305   7.282   5.443   2.539  0.1519 -0.1071  0.1898
16026W        W36306   2.999   4.361  11.903 -0.0133 -0.0709  0.0764
16027W        W36307   0.758   7.787   3.558  0.2744  0.2240 -0.0049
16028W        W36308   7.378  11.497  15.737 -0.1319  0.0789  0.3183
16029W        W36309   8.683  14.056  12.329  0.1959 -0.0703  0.0528
16030W        W36310   2.258   7.443  12.775 -0.0310  0.0074  0.0270
16031W        W36311  10.619  10.880   0.760  0.0408  0.2286  0.0630
16032W        W36312   9.818  14.126   3.390  0.2061 -0.0280  0.0115
16033W        W36313   7.531   5.322  15.919 -0.0821  0.0722  0.1613
16034W        W36314  11.936   3.583   4.450  0.1807  0.0329  0.1503
16035W        W36315   6.641   6.200  13.013 -0.0307 -0.0070 -0.0622
16036W        W36316   6.767  13.776  12.441  0.0976  0.2816 -0.1646
16037W        W36317  11.941   5.525  15.842 -0.2574 -0.0043  0.1039
16038W        W36318  11.677   8.263  15.037 -0.3365  0.0039  0.1212
16039W        W36319   1.764   5.963  15.743 -0.0909  0.1137  0.1270
16040W        W36320  17.732   5.839   1.515 -0.4136 -0.2458 -0.0025
16041W        W36321  11.048  14.952   0.398 -0.1051 -0.2418  0.5792
16042W        W36322  17.572   6.929   1.405  0.2351  0.1617 -0.0642
16043W        W36323   7.998   6.200   1.793 -0.0022  0.0554  0.1594
16044W        W36324  10.681  13.325  14.930  0.0303  0.0609  0.0888
16045W        W36325   8.307   7.548   3.157 -0.0871  0.2382 -0.1466
16046W        W36326  11.567   0.939  13.021  0.1259 -0.0967 -0.0765
16047W        W36327   0.225   3.016  14.133 -0.1231  0.1213  0.0496
16048W        W36328  16.951   1.634   3.800  0.0465  0.0980  0.0391
16049W        W36329  11.821   8.469  14.492 -0.0528  0.0167 -0.0701
16050W        W36330   5.769   0.874   2.667  0.0582 -0.0074 -0.1742
16051W        W36331   7.871   1.564   0.063  0.0347  0.4350 -0.4298
16052W        W36332  17.034  14.556   0.545 -0.1407  0.0063 -0.2377
16053W        W36333   0.448  15.350   0.335  0.0388 -0.1270 -0.1940
16054W        W36334   4.015   8.432  12.257 -0.0562  0.1541 -0.0527
16055W        W36335  12.287  13.787  15.766  0.0554  0.0627  0.1684
16056W        W36336   1.432  11.752  13.959 -0.0092  0.1122 -0.0496
16057W        W36337  15.370  17.843  15.657 -0.2772 -0.1040  0.1424
16058W        W36338   8.814  17.572  13.444 -0.1591 -0.3276  0.1161
16059W        W36339  12.540   0.791  13.090 -0.1172 -0.0723  0.0253
16060W        W36340   3.418  15.428   3.742 -0.1914 -0.0330  0.1328
16061W        W36341  17.705  11.056  15.804  0.1687  0.1623 -0.0765
16062W        W36342   9.093  12.694  13.787 -0.0709  0.1340 -0.1068
16063W        W36343   9.474   1.368   1.116  0.4247  0.1460  0.1986
16064W        W36344   4.952  16.937   2.071  0.0791 -0.1601 -0.1672
16065W        W36345  11.030   5.810  11.607 -0.2109 -0.2705 -0.0394
16066W        W36346  10.597   0.056   4.863  0.0349  0.0969 -0.1632
16067W        W36347   5.016   3.778  14.746  0.1048 -0.0215  0.0923
16068W        W36348  14.919  17.947  14.538 -0.0940 -0.0680 -0.0749
16069W        W36349  16.084  10.216  15.420 -0.1904 -0.2727  0.1395
16070W        W36350   9.515   2.195  13.101 -0.0980 -0.1355 -0.0291
16071W        W36351  15.796   4.503  15.766  0.1640 -0.0511  0.0413
16072W        W36352   0.830  11.167  13.373 -0.0279  0.2448  0.1858
16073W        W36353   8.251   4.110  10.954  0.0710 -0.0239 -0.0680
16074W        W36354  17.545  12.299   1.335  0.1486  0.1422  0.4205
16075W        W36355   4.769   4.128  15.646 -0.0165 -0.0845  0.3334
16076W        W36356   4.476   9.762  11.114 -0.1927  0.0269 -0.0670
16077W        W36357  15.059  10.878   0.280  0.0763  0.2936  0.1433
16078W        W36358  16.584  13.843  12.006 -0.0662  0.2404 -0.1148
16079W        W36359   5.630   3.359   1.042  0.3054  0.1931 -0.2245
16080W        W36360   5.381   3.951   4.064  0.1443  0.1558  0.0704
16081W        W36361   8.951   8.539   0.453 -0.0102  0.1939  0.1122
16082W        W36362  15.130   8.861   0.450  0.3668  0.0454  0.0073
16083W        W36363   0.011   7.588   1.940 -0.2988  0.1624 -0.0754
16084W        W36364   2.421   0.555  15.182 -0.2987 -0.1053 -0.0329
16085W        W36365  12.595  16.161  14.388 -0.1685  0.0335 -0.0077
16086W        W36366  17.255   5.539   5.213  0.0107  0.2312  0.0122
16087W        W36367   1.604   9.049  15.040 -0.0834  0.2458  0.4065
16088W        W36368  10.940   3.932  15.024 -0.2435  0.0912  0.0349
16089W        W36369   3.149   5.084  15.421 -0.0452  0.0557  0.1887
16090W        W36370   4.828   0.453  11.379  0.1672  0.0060 -0.2090
16091W        W36371   0.967  17.007  14.757 -0.3095 -0.1851  0.3457
16092W        W36372   1.605   4.495   3.536  0.0931  0.1187  0.0529
16093W        W36373   8.719   8.851  11.778 -0.0021  0.4152  0.1638
16094W        W36374  11.077  10.475  12.841  0.2610  0.0195 -0.2467
16095W        W36375   7.091   7.160  13.038  0.0312  0.1304  0.3883
16096W        W36376   4.626   4.817   4.591  0.2529 -0.1380  0.3719
16097W        W36377  10.406   9.846  11.279  0.1901  0.0106  0.0161
16098W        W36378  11.933  15.841  14.948 -0.3820  0.1488 -0.0997
16099W        W36379   0.702   0.488  12.916  0.0490  0.1894  0.0288
16100W        W36380   9.317   3.744   5.517 -0.0201  0.1389  0.0417
16101W        W36381   9.996  14.084   2.925 -0.1822  0.0106  0.0576
16102W        W36382  17.204  13.394  13.845 -0.1805 -0.2644 -0.0991
16103W        W36383  15.215   8.664   4.614 -0.1081 -0.0426  0.0864
16104W        W36384   3.531  10.868  13.169  0.1477 -0.0161  0.1106
16105W        W36385   9.597   4.659  11.414 -0.0636 -0.3357  0.1840
16106W        W36386  14.302   5.145  12.936 -0.6709 -0.1032  0.3921
16107W        W36387  16.042  14.982   1.743 -0.0160  0.1693 -0.1289
16108W        W36388  14.469   0.020   2.347  0.2173  0.0379  0.0004
16109W        W36389  15.594  17.772   3.594 -0.0272 -0.3214 -0.2909
16110W        W36390   1.246   4.519   0.063  0.3111 -0.0993  0.2895
16111W        W36391   9.593   5.302   5.021  0.0083 -0.2264  0.0822
16112W        W36392  10.560   7.660   2.840 -0.2751  0.0448 -0.1601
16113W        W36393   7.339  12.992   0.846 -0.0055 -0.1341 -0.0599
16114W        W36394  12.995  15.047   4.672 -0.3055 -0.0587 -0.4031
16115W        W36395  12.189  14.133   4.402 -0.0660  0.0343  0.0539
16116W        W36396   2.772   6.039  13.708 -0.0085 -0.1656  0.0738
16117W        W36397  10.622  13.971  15.530  0.1783 -0.1589  0.1377
16118W        W36398   1.298   1.295   0.458 -0.1982  0.1008 -0.0645
16119W        W36399   3.829   3.178   3.185  0.3248  0.2122 -0.0032
16120W        W36400   4.166   3.698  13.098  0.0041  0.2797 -0.1505
16121W        W36401   9.452   2.480  12.140  0.0999  0.1215 -0.1017
16122W        W36402  17.089  10.459   3.270 -0.1481 -0.0062 -0.0793
16123W        W36403  16.770   8.762   0.233 -0.0610  0.2044  0.0381
16124W        W36404   8.507  16.496  15.749 -0.2600 -0.0749 -0.3601
16125W        W36405  15.714   6.115  12.352  0.0850 -0.0346  0.5650
16126W        W36406   8.167  15.809   0.225 -0.3466 -0.3417 -0.1731
16127W        W36407   3.769  11.695  12.487 -0.0759  0.2146  0.1296
16128W        W36408   6.282   5.416  14.009 -0.2038  0.1154  0.2198
16129W        W36409  13.882   1.035   2.761  0.2608 -0.3444 -0.0101
16130W        W36410  11.439  10.330  15.137 -0.1393 -0.1616  0.3681
16131W        W36411   4.792  16.981  11.051 -0.1841 -0.2572 -0.2882
16132W        W36412   5.507   2.980  12.504  0.0814  0.2684 -0.1819
16133W        W36413  16.970  14.310  14.688  0.1714  0.0281 -0.0098
16134W        W36414  12.371  12.582  15.876 -0.3377 -0.3125  0.3694
16135W        W36415   1.220   1.262   4.584  0.0286 -0.3025  0.1860
16136W        W36416  14.967  17.544   0.993 -0.1351  0.1268  0.1297
16137W        W36417   7.193  10.533  15.365  0.1630  0.1301  0.3477
16138W        W36418  13.386   5.246   2.930 -0.1756 -0.1512  0.0508
16139W        W36419  11.778  13.711  11.902 -0.2705  0.2144  0.1754
16140W        W36420   5.466   3.869   1.833  0.0233 -0.0326 -0.2413
16141W        W36421  14.018   8.716   2.681 -0.1365 -0.0555  0.1137
16142W        W36422  15.893   1.309   1.914 -0.2386 -0.1978  0.1938
16143W        W36423   7.338   6.485   2.917  0.2168  0.1045  0.1011
16144W        W36424  11.804   7.148  13.706 -0.2114  0.1549 -0.0045
16145W        W36425   4.216  14.812   1.554 -0.1005 -0.2233 -0.4947
16146W        W36426  16.017  13.105  15.769 -0.0323 -0.1612 -0.1902
16147W        W36427  10.966   0.960  11.410 -0.0989  0.1235 -0.0139
16148W        W36428   5.678   1.322   3.664 -0.1851 -0.1024  0.2499
16149W        W36429  16.173   3.164  12.236  0.0176  0.2096 -0.1058
16150W        W36430   9.809  13.167   4.327  0.3809  0.3611  0.2646
16151W        W36431   7.785   5.192   3.290 -0.1792 -0.0590  0.1344
16152W        W36432  18.278  11.746   3.519 -0.0479 -0.1982  0.4379
16153W        W36433   9.669   3.039   2.047 -0.0947 -0.0304  0.0018
16154W        W36434  16.288   4.807   0.569 -0.0348 -0.1307 -0.3902
16155W        W36435   1.902   0.891  11.921 -0.0512  0.3719  0.0679
16156W        W36436  10.907   9.726  12.577  0.0747 -0.2003 -0.1293
16157W        W36437  13.166   8.853  12.681  0.0112  0.2126 -0.0547
16158W        W36438  14.458   0.362   0.095 -0.0373  0.1478 -0.1313
16159W        W36439   1.249   9.547   0.399 -0.1731  0.0014 -0.1844
16160W        W36440   3.301   8.716   0.906  0.0873 -0.0831  0.0718
16161W        W36441   9.723  16.038   0.775 -0.1355  0.0287  0.1940
16162W        W36442  10.177   9.436  13.002  0.1945  0.0791  0.0745
16163W        W36443  14.486   9.751  14.262  0.0365  0.1931  0.1782
16164W        W36444   0.643   3.204   0.996  0.0497 -0.0367  0.3490
16165W        W36445   8.967  13.476   1.022 -0.0181  0.0396  0.3269
16166W        W36446  15.724   4.191   0.225 -0.0767 -0.1005  0.0500
16167W        W36447  13.876  10.398   0.376  0.0182 -0.2270 -0.2234
16168W        W36448   2.655  16.825   3.069 -0.1824  0.1200  0.1676
16169W        W36449  15.094  15.610  15.132  0.0530 -0.2193  0.1759
16170W        W36450  17.649   9.349  13.906  0.2108 -0.0274 -0.0326
16171W        W36451   8.891   8.111   0.987  0.3617  0.1072  0.1726
16172W        W36452  17.697   5.234  15.369  0.1393  0.1755 -0.3786
16173W        W36453   2.081   2.088   1.452  0.0693  0.1152  0.0255
16174W        W36454  12.333   0.178  15.001 -0.1382 -0.4088  0.0571
16175W        W36455   9.497   0.872  15.715 -0.3177 -0.2273 -0.3201
16176W        W36456   6.611  10.340   1.455 -0.1133 -0.0610 -0.0544
16177W        W36457   1.674  13.178  15.880  0.0273  0.1750  0.0022
16178W        W36458  18.164  14.297  11.884 -0.0148 -0.0437  0.0061
16179W        W36459  15.667  11.562   1.190  0.1995 -0.1394  0.3111
16180W        W36460   9.839  14.768   4.450 -0.1886  0.1480 -0.1390
16181W        W36461  14.604   9.551  12.077 -0.6128 -0.0583 -0.1510
16182W        W36462  14.432   6.245   0.204  0.1595 -0.0500  0.2646
16183W        W36463  12.093   6.665   4.357 -0.0465  0.2366  0.2771
16184W        W36464   8.782  10.873  14.113  0.2703  0.1230  0.1222
16185W        W36465   2.609   1.420   3.489 -0.0233  0.0169  0.1133
16186W        W36466   9.218   5.560   1.998 -0.0917 -0.2115  0.0766
16187W        W36467  14.898   0.169   4.898  0.1266  0.0897  0.1562
16188W        W36468   7.304   7.062   1.602 -0.1501 -0.2279 -0.0767
16189W        W36469  14.073   4.835  13.448  0.0143  0.1342  0.1027
16190W        W36470   9.950  10.325  11.226  0.1384  0.0060 -0.0554
16191W        W36471  14.308   0.845  14.658  0.0017 -0.0105  0.0705
16192W        W36472   7.106   4.948   0.651 -0.1889 -0.0206 -0.0961
16193W        W36473   5.427   2.908   0.740  0.0401 -0.2016  0.0715
16194W        W36474   9.036  13.060   1.992  0.0551 -0.0084  0.0620
16195W        W36475  10.597   7.399   3.466 -0.1665 -0.0175  0.3193
16196W        W36476  11.246  14.887  15.630  0.1534  0.1100  0.0587
16197W        W36477  13.355  15.049   3.837  0.2593 -0.0073 -0.2305
16198W        W36478  14.510   2.514   1.805 -0.0288 -0.1095  0.0173
16199W        W36479   2.115  10.813   1.471  0.0499  0.1716  0.2703
16200W        W36480  17.381  15.134   3.817  0.1688 -0.2161 -0.0658
16201W        W36481  17.913  17.506   0.564 -0.1689 -0.1715 -0.1513
16202W        W36482  13.248   0.234   1.356 -0.2368  0.0687 -0.0240
16203W        W36483  16.414  15.383  14.586  0.2991 -0.0548  0.2647
16204W        W36484   0.317  13.904   3.367 -0.1595 -0.4016  0.0450
16205W        W36485  14.028   6.056  15.831  0.1669 -0.0824 -0.2274
16206W        W36486   6.727   0.978  13.566 -0.0081  0.0552 -0.0145
16207W        W36487   1.587   8.471   4.447 -0.0356  0.1217 -0.1110
16208W        W36488  15.790  15.248  15.282 -0.0117  0.1431  0.2206
16209W        W36489   5.458   9.810   2.627 -0.1390 -0.1219  0.0674
16210W        W36490  15.285  14.688  15.233 -0.0399  0.0545  0.0928
16211W        W36491   0.151  13.618  12.476  0.0652  0.2170 -0.1608
16212W        W36492  11.718   1.408   0.139 -0.0253  0.2877  0.2570
16213W        W36493   6.503   0.721  10.670  0.2244 -0.0918 -0.3240
16214W        W36494   8.308   2.720   0.855  0.1963  0.0574  0.2549
16215W        W36495   3.741  16.271   1.210 -0.0217 -0.0083 -0.2366
16216W        W36496   4.805   6.018  12.351  0.0342  0.2678  0.4756
16217W        W36497   3.158   3.654   2.608  0.1712 -0.4007 -0.0835
16218W        W36498   8.476  14.264  10.769  0.0943  0.4760  0.1301
16219W        W36499   3.827  12.661   0.032 -0.3150 -0.0752  0.0659
16220W        W36500  15.552   2.996  15.280  0.1097 -0.1299 -0.1007
16221W        W36501  14.047   9.958  14.079 -0.1428 -0.5004  0.2618
16222W        W36502   5.821   3.583   2.559  0.1643 -0.2204 -0.0229
16223W        W36503  10.307  15.496   2.285 -0.0502 -0.2849  0.2132
16224W        W36504   9.224   1.677  11.775  0.0140 -0.3649  0.3987
16225W        W36505   5.439  17.605   3.877 -0.0043  0.1125  0.2665
16226W        W36506   2.452  17.321   3.910 -0.1816  0.2358 -0.1117
16227W        W36507  10.442  17.874  15.851 -0.2451  0.1560 -0.3371
16228W        W36508   9.559   5.248  14.980 -0.2815 -0.1060  0.0456
16229W        W36509   1.560  13.060  12.669  0.2933 -0.0803 -0.0481
16230W        W36510  11.998   6.302  13.179  0.0473  0.1612 -0.0191
16231W        W36511  12.599  13.439   2.001 -0.0490 -0.2456  0.2335
16232W        W36512   7.933  17.374   0.730  0.1139  0.3562  0.0558
16233W        W36513  13.874   4.109   2.678 -0.1627 -0.0067 -0.2538
16234W        W36514   1.402   1.372   1.394  0.4776  0.0319 -0.0339
16235W        W36515  17.132   1.492  11.610  0.1521 -0.0983 -0.1527
16236W        W36516   1.318  10.891   3.569  0.0002  0.1369 -0.1508
16237W        W36517   2.772  13.253  15.067 -0.1429  0.1019 -0.0224
16238W        W36518   8.059   4.980  11.574  0.2814 -0.0738 -0.0451
16239W        W36519   7.912   3.268  13.987 -0.1060  0.0334  0.3343
16240W        W36520  11.762   4.233   3.485 -0.1755 -0.0278 -0.1628
16241W        W36521   8.795  14.568  12.501  0.1395  0.0795  0.4587
16242W        W36522   9.768  15.960  15.122  0.1010 -0.0554  0.1639
16243W        W36523   7.076   7.944   0.486  0.0274  0.1001 -0.0445
16244W        W36524   6.473   1.152  15.869  0.0387 -0.2170  0.2257
16245W        W36525   5.496   9.412  15.903 -0.1166 -0.0222  0.1443
16246W        W36526   9.149  10.982   2.355  0.2119 -0.0617 -0.2327
16247W        W36527   6.973  12.825   1.865  0.0132 -0.0942  0.1102
16248W        W36528   4.525   0.152   2.084  0.1078 -0.1629 -0.2372
16249W        W36529   4.672  15.018   3.417  0.2669 -0.2755 -0.0988
16250W        W36530  10.194  14.139  14.577  0.0969 -0.1203 -0.0072
16251W        W36531  16.562   9.257   0.216 -0.0570  0.0174 -0.1838
16252W        W36532   1.505   1.144   2.932 -0.2969 -0.0979  0.2372
16253W        W36533  16.547   3.302   2.887 -0.3972  0.0378 -0.3513
16254W        W36534  12.534   6.805   2.141 -0.2383  0.1713  0.1608
16255W        W36535   8.205   6.176  12.049 -0.1764  0.1768  0.3305
16256W        W36536   5.949   6.543  13.358  0.3670  0.3121  0.1688
16257W        W36537  17.350   0.852   3.872 -0.1652  0.3253  0.2426
16258W        W36538  17.740  15.343  13.494 -0.0948  0.1172 -0.4164
16259W        W36539  10.664  11.970  12.420  0.0387  0.1637  0.2398
16260W        W36540   9.201  11.398   1.964 -0.1470 -0.3832  0.0162
16261W        W36541   8.334   6.201   0.824  0.0312 -0.0403  0.4088
16262W        W36542  11.176   2.756  13.534 -0.1911 -0.2095  0.0099
16263W        W36543  12.103   5.489   0.474 -0.1898  0.1251 -0.2893
16264W        W36544  10.828  16.612   1.351 -0.1785 -0.2014  0.0791
16265W        W36545   8.819   3.870  12.814 -0.0874 -0.1637  0.1791
16266W        W36546   5.470  13.419   3.562 -0.0362  0.1003  0.0679
16267W        W36547  10.532  12.642   0.874 -0.3637  0.0474  0.2952
16268W        W36548  14.799  10.869   2.019 -0.4472 -0.0934  0.0962
16269W        W36549   0.165   4.591  13.524  0.3661  0.0770 -0.1511
16270W        W36550   6.490   1.056   4.265 -0.1175 -0.0909 -0.1615
16271W        W36551   4.475   8.043   0.207 -0.0977 -0.0870 -0.2592
16272W        W36552   2.995  14.528  15.518 -0.0782 -0.0616 -0.0315
16273W        W36553   8.458  11.726  12.457  0.1553  0.1464 -0.0372
16274W        W36554   3.554  14.009  13.888 -0.1317 -0.0215 -0.1216
16275W        W36555   8.863   3.317  11.140  0.3394  0.0587 -0.3198
16276W        W36556  11.786   3.723   2.776 -0.1396  0.0932 -0.3529
16277W        W36557   4.105   1.442   0.414 -0.1308 -0.0131 -0.4849
16278W        W36558   3.606   8.012  14.147  0.1371 -0.1514  0.2940
16279W        W36559  12.611   8.543   2.479 -0.0485  0.1400  0.2246
16280W        W36560   6.023   6.836   1.014  0.0508  0.1449  0.0093
16281W        W36561  11.591   1.601  11.225 -0.2040  0.0169 -0.2245
16282W        W36562  14.953   9.000   0.986 -0.3248 -0.4178  0.2316
16283W        W36563  13.442  14.132  10.986 -0.0726 -0.1368 -0.2696
16284W        W36564   8.270  11.663  13.466  0.1309  0.1685  0.0346
16285W        W36565  14.354   9.122   0.027  0.0987 -0.3041 -0.0716
16286W        W36566   0.780  17.178   1.439  0.4036 -0.1490 -0.2175
16287W        W36567  13.516  13.020  13.818 -0.1974 -0.1353  0.0434
16288W        W36568   1.906  14.309  12.818 -0.1058  0.0115 -0.0376
16289W        W36569   1.021   0.495   1.876  0.0565 -0.0437 -0.1634
16290W        W36570  12.326   9.175  14.125  0.0463 -0.0677  0.2459
16291W        W36571   4.535  12.573  14.009  0.1106 -0.0835 -0.1659
16292W        W36572   5.076  13.262  11.932  0.2500  0.0427 -0.0509
16293W        W36573   4.291  11.498   5.727 -0.2784 -0.1227  0.2075
16294W        W36574   9.317  16.837   0.309  0.0835 -0.1412 -0.0131
16295W        W36575   5.877  16.939  14.417  0.1084 -0.1458  0.4464
16296W        W36576  17.826   9.653   4.279  0.0195  0.1188  0.0921
16297W        W36577   2.677   8.124   3.595  0.1923 -0.0204  0.0602
16298W        W36578   1.149  10.482   2.284 -0.0506 -0.2131  0.0076
16299W        W36579   5.179   6.636   4.405 -0.0245  0.0890  0.0059
16300W        W36580  14.337   1.701   0.156  0.0227 -0.0086 -0.0720
16301W        W36581  16.187   5.406  13.094 -0.1765 -0.0339  0.1816
16302W        W36582   2.892   7.612  15.813  0.0582  0.1571  0.0348
16303W        W36583   4.616  16.795  14.383  0.0198 -0.0916  0.3604
16304W        W36584  10.004   3.362  14.808  0.1849 -0.1557  0.2499
16305W        W36585   4.944   8.828   0.436  0.1561  0.0085 -0.1501
16306W        W36586   3.919  11.553  14.171 -0.1162  0.1019 -0.3722
16307W        W36587  16.208  11.188   5.545  0.0036  0.0706 -0.0039
16308W        W36588   2.205   9.820   0.244  0.1568  0.0278  0.2383
16309W        W36589  16.076  12.988   3.137  0.0329 -0.1567 -0.1278
16310W        W36590  11.838  11.368   4.242 -0.1502  0.0677 -0.1981
16311W        W36591   7.445   1.243   1.344  0.2432 -0.0883  0.2170
16312W        W36592  13.784  15.656   0.378  0.0817 -0.1268  0.0244
16313W        W36593   9.612   3.743  11.696  0.0820  0.1930  0.3288
16314W        W36594   1.251  15.796   2.091 -0.0532 -0.0557 -0.0774
16315W        W36595  10.798   8.775   1.520  0.3680 -0.0691  0.0561
16316W        W36596   2.059  10.760  11.514  0.2329  0.3990  0.0885
16317W        W36597  15.297   1.023  13.312  0.0728 -0.1770 -0.2187
16318W        W36598   0.118   5.240  12.224 -0.0960  0.0025  0.0759
16319W        W36599  16.643   7.132   1.976 -0.1192 -0.1675  0.0441
16320W        W36600  11.667   8.397   2.953  0.1197  0.0030 -0.1752
16321W        W36601  13.767   8.394   1.517  0.0194 -0.3206 -0.0894
16322W        W36602  12.004  12.379  15.647  0.2013 -0.2935  0.2867
16323W        W36603   4.071   9.441  15.610 -0.3935  0.0386 -0.0623
16324W        W36604   2.867   1.565  15.899  0.0201 -0.2254  0.0733
16325W        W36605   6.557  12.780   0.557  0.0183 -0.0682 -0.0140
16326W        W36606  11.712  13.054  14.080 -0.0341 -0.1292 -0.0133
16327W        W36607   0.382  12.206  13.902 -0.2189 -0.1828  0.0268
16328W        W36608   7.423  13.209   3.439  0.1983 -0.0411 -0.0894
16329W        W36609   0.349  17.819  14.961  0.2185  0.0927  0.1432
16330W        W36610  17.072   6.827   2.751 -0.0346 -0.2997  0.3506
16331W        W36611   8.645   2.856  14.212 -0.1620 -0.1916 -0.2175
16332W        W36612  11.811  12.561   2.178 -0.3082  0.2629  0.1550
16333W        W36613   9.738  15.781  11.648  0.0342 -0.6026 -0.1369
16334W        W36614  11.833   5.235   3.921 -0.1584 -0.1340 -0.0846
16335W        W36615   2.580   7.700   3.804  0.0279 -0.0144 -0.2269
16336W        W36616   9.091   1.514   3.519  0.0755  0.0639  0.0655
16337W        W36617  14.213   7.642  12.143 -0.0246  0.0526  0.1100
16338W        W36618   0.481  16.826   3.065 -0.3312 -0.0690  0.0674
16339W        W36619  10.802   1.730   4.150  0.0933  0.0282 -0.2872
16340W        W36620   9.835  10.301  12.957 -0.2339 -0.2221 -0.0775
16341W        W36621   0.991   6.445  14.603 -0.0190 -0.1401 -0.2840
16342W        W36622  16.806   4.872  11.643 -0.0356 -0.1082  0.2350
16343W        W36623  15.204  18.178  14.152  0.2462  0.1306 -0.4514
16344W        W36624  15.566  15.430  12.454 -0.0745 -0.1384 -0.4068
16345W        W36625  11.519   6.391  13.107 -0.1123 -0.2064 -0.1221
16346W        W36626  14.009   2.149  13.752 -0.1844  0.1275  0.0241
16347W        W36627   1.885   3.654  14.243 -0.2294 -0.2230 -0.1711
16348W        W36628  16.324  18.109   0.421  0.1778  0.4456 -0.1283
16349W        W36629  17.225  14.257   3.958  0.2152  0.1156  0.1918
16350W        W36630   8.173   9.986  13.639 -0.0921 -0.2798 -0.0256
16351W        W36631  11.785  11.969  15.782  0.2104 -0.1617 -0.1745
16352W        W36632   0.822   5.992  13.040 -0.2959 -0.2065 -0.0933
16353W        W36633   4.152  14.843   3.251  0.1089 -0.1998  0.1598
16354W        W36634   3.071   2.309  11.962  0.1434 -0.2031 -0.2485
16355W        W36635  11.367  17.825  13.998  0.0596 -0.1313  0.0042
16356W        W36636  11.906  16.367  13.572 -0.1012  0.2392  0.0658
16357W        W36637  12.700  10.744  13.597  0.0282  0.1606 -0.0460
16358W        W36638  11.274   2.473  12.470  0.1871  0.0057  0.2956
16359W        W36639   9.643   4.298  15.804 -0.5369  0.1613  0.1091
16360W        W36640   8.338   5.040   2.953  0.0743  0.0762  0.0801
16361W        W36641  12.981  14.584  11.610  0.1743 -0.0085  0.0671
16362W        W36642   0.297  16.906  12.655 -0.3443 -0.0151  0.1650
16363W        W36643  14.137   9.899   3.518 -0.0939  0.2878  0.0122
16364W        W36644   8.037   0.646   1.057  0.1676  0.0989 -0.1830
16365W        W36645   6.047  15.502   0.828  0.0211 -0.0962 -0.1330
16366W        W36646  18.188   9.349  14.654 -0.0603  0.0354  0.1707
16367W        W36647  16.338   3.055   1.203 -0.2719  0.0371  0.1051
16368W        W36648   2.223   6.055   3.453  0.1279  0.2503 -0.0675
16369W        W36649  12.668  12.249   1.766  0.1040  0.1881  0.1271
16370W        W36650  12.584   7.007   1.381  0.2076 -0.0238  0.2081
16371W        W36651   0.901  17.879   2.176  0.1040 -0.0659  0.0602
16372W        W36652   6.940  10.874   4.677 -0.0573 -0.1935 -0.0124
16373W        W36653   1.750  10.097  14.836 -0.0999  0.2029 -0.1860
16374W        W36654  10.745  14.744  15.877 -0.2478 -0.0383  0.3323
16375W        W36655  10.423  13.943  12.220  0.0212 -0.2015  0.1667
16376W        W36656   5.351   6.778   0.189  0.0552  0.0412  0.2917
16377W        W36657  17.453  17.434   0.308 -0.0914 -0.0854 -0.0149
16378W        W36658   3.486   9.262   5.663  0.0325  0.4417  0.0069
16379W        W36659  16.052   8.615   3.061 -0.2395 -0.2017  0.0056
16380W        W36660   1.577   2.337   2.731  0.0021 -0.4122  0.2442
16381W        W36661  16.637  11.938   3.687  0.2173  0.3014 -0.0676
16382W        W36662   9.213   1.122   1.691 -0.0200  0.0909  0.0693
16383W        W36663   7.434   2.912  15.623 -0.0176 -0.4162 -0.4023
16384W        W36664   5.800  17.366   0.787 -0.2272  0.0653  0.0101
16385W        W36665  10.710   2.667  15.208  0.0226 -0.0860 -0.1923
16386W        W36666   7.284   0.334   2.011  0.1299 -0.3288 -0.0184
16387W        W36667   0.012   3.490   0.188 -0.1655  0.1286 -0.0614
16388W        W36668   9.898  15.113   2.912  0.0102  0.0180  0.1675
16389W        W36669   4.355   4.820   1.887  0.0380 -0.0081 -0.5116
16390W        W36670  10.627   6.051   2.271 -0.0904  0.2231 -0.3358
16391W        W36671   0.971   8.411  14.671 -0.0465 -0.3132  0.0729
16392W        W36672   5.939  14.523   3.409  0.1874 -0.1588  0.1589
16393W        W36673  17.267   3.381  15.448 -0.2483  0.0010 -0.2482
16394W        W36674  10.354   5.612  14.225  0.1058 -0.0803  0.0817
16395W        W36675  16.936   0.565  11.616  0.0406 -0.0904  0.0524
16396W        W36676  18.288   9.824   4.065  0.1000 -0.3036 -0.0102
16397W        W36677  11.471  18.272  13.808 -0.0278  0.1120  0.2261
16398W        W36678   1.232   0.024  15.013  0.3714 -0.1869 -0.0151
16399W        W36679  13.250   0.409   1.928 -0.1147 -0.0650 -0.0056
16400W        W36680   5.065  16.317  14.282  0.0620 -0.2422 -0.3229
16401W        W36681   2.952  10.018   1.202 -0.0133 -0.3742 -0.1601
16402W        W36682   9.773   5.420   1.434 -0.2479  0.0162 -0.1169
16403W        W36683  13.578  15.025  15.633  0.2163  0.2139 -0.1353
16404W        W36684   1.507   2.613   2.041  0.1241 -0.3448  0.0221
16405W        W36685  17.250   5.575  11.110  0.1704 -0.2066  0.2423
16406W        W36686  16.384   1.602   3.865 -0.1714 -0.2909  0.2550
16407W        W36687   7.596  10.135   4.728 -0.0143 -0.3153  0.0329
16408W        W36688  14.709  15.535   2.107 -0.0701  0.0505 -0.2237
16409W        W36689  12.680   2.283  11.424 -0.0275  0.4138 -0.1394
16410W        W36690  14.249   7.073  15.763 -0.0716 -0.1473 -0.0070
16411W        W36691   6.703  13.685   2.227 -0.0002  0.3518 -0.4249
16412W        W36692  13.562   0.206  15.671  0.0453  0.2652  0.1559
16413W        W36693   5.143  13.466   1.990  0.2906 -0.0741  0.1802
16414W        W36694  10.929  15.751  15.853 -0.0942 -0.1462  0.1291
16415W        W36695  14.845  16.957  15.224  0.0709  0.3082  0.0595
16416W        W36696   3.872   1.424  12.837  0.0620 -0.1851  0.1340
16417W        W36697  16.619  10.373  11.980 -0.0186 -0.0858 -0.0806
16418W        W36698   8.903   3.957  14.298  0.1124 -0.1570 -0.1935
16419W        W36699  17.785   4.150  12.142 -0.3241  0.0512 -0.1857
16420W        W36700   6.954  18.325   0.956 -0.1808  0.0998  0.4122
16421W        W36701  10.576   1.284  13.282  0.0453 -0.0414  0.1358
16422W        W36702  17.896  17.729  12.836 -0.1109 -0.0233  0.1398
16423W        W36703  15.266  12.678  13.942 -0.0300 -0.1942  0.0135
16424W        W36704  11.917   5.186  12.183 -0.0405  0.0840 -0.0226
16425W        W36705  10.204  11.306  14.224  0.1074  0.0317  0.0141
16426W        W36706   4.096   0.761  12.823 -0.0841 -0.3140 -0.0626
16427W        W36707  12.044  11.686   3.291 -0.1946  0.0023 -0.1220
16428W        W36708  12.154   7.995  15.797 -0.0929  0.0071  0.1181
16429W        W36709   6.398  17.284  11.205  0.0453  0.0010  0.1199
16430W        W36710  17.076   5.627  10.633 -0.0308 -0.4759  0.1293
16431W        W36711  11.006  15.986  13.453  0.2011  0.0582  0.0578
16432W        W36712   1.838   0.887   3.373 -0.2230 -0.1286 -0.3222
16433W        W36713   5.244   3.530   2.159  0.0178  0.0969 -0.2055
16434W        W36714   5.969   9.113  11.674  0.0977  0.0716  0.3550
16435W        W36715   8.406  17.481  14.833  0.2064  0.2108 -0.0415
16436W        W36716   2.363  17.752  12.336  0.0157 -0.0771  0.0769
16437W        W36717   1.501   5.040  12.086 -0.1147  0.1794 -0.2164
16438W        W36718  15.295   5.003   2.883 -0.0923  0.0914 -0.2187
16439W        W36719  14.204  15.241   2.484 -0.0819  0.2772 -0.1470
16440W        W36720  16.266   1.046   2.663 -0.2920  0.0235 -0.0245
16441W        W36721  15.467   7.469   0.999 -0.0968 -0.0895  0.1212
16442W        W36722  17.605   1.250   0.511 -0.1896  0.2615 -0.0194
16443W        W36723   1.248   8.536  11.898  0.0303  0.0502 -0.0478
16444W        W36724  17.547  11.069  14.299 -0.0882  0.1720 -0.0809
16445W        W36725  14.192  15.561  14.322  0.0066 -0.0480 -0.0429
16446W        W36726  16.540  18.222   3.360 -0.0755 -0.2041 -0.0592
16447W        W36727  16.024  10.849  15.434 -0.3309 -0.1627  0.0850
16448W        W36728  13.606   2.584  15.768 -0.3187 -0.0261 -0.0996
16449W        W36729   6.016  17.079  11.514 -0.0812  0.0276 -0.0513
16450W        W36730  17.389   8.176  12.417 -0.1609  0.2178 -0.0808
16451W        W36731   1.444  13.874   4.561  0.1535 -0.1461  0.1415
16452W        W36732   3.907  12.344   3.291  0.0072 -0.2019 -0.0313
16453W        W36733  10.385   7.316  11.179  0.1545 -0.1616 -0.2262
16454W        W36734   4.695  17.882  14.395  0.0502 -0.0442 -0.2046
16455W        W36735   5.703  14.888   2.486 -0.0534 -0.0657  0.0902
16456W        W36736   1.602   5.631   1.157 -0.0471 -0.2675 -0.0081
16457W        W36737   1.697  15.063  15.885  0.1890  0.0787  0.2053
16458W        W36738  15.738  13.339  12.195 -0.3489  0.3705  0.1574
16459W        W36739   9.013  10.229  11.860  0.1174  0.0740  0.0309
16460W        W36740   7.535   4.053   5.062  0.0804  0.5300 -0.0168
16461W        W36741   2.728   7.848  14.060 -0.1135  0.3758  0.1263
16462W        W36742   1.929   4.420   4.367  0.4253 -0.2377 -0.1848
16463W        W36743  11.997  17.525  15.736 -0.0690 -0.0828 -0.0083
16464W        W36744  11.666  11.459   3.074  0.0173  0.0210 -0.1329
16465W        W36745   9.314   5.854   0.433 -0.2070  0.0410 -0.0731
16466W        W36746   1.183  11.442  14.726 -0.0096 -0.0206 -0.2197
16467W        W36747   2.465   2.056   1.079 -0.0168  0.0304 -0.1103
16468W        W36748  16.893  15.362  12.168 -0.0104 -0.4622  0.0242
16469W        W36749   8.522   4.721  13.104 -0.0027 -0.0596 -0.3280
16470W        W36750   4.014   8.002  12.564  0.4074 -0.0520 -0.2796
16471W        W36751  17.093   0.725  15.386  0.1080  0.0863 -0.1984
16472W        W36752  14.015  11.494  14.803  0.1861  0.2876  0.1000
16473W        W36753  12.016  10.059  15.925  0.0993  0.0026 -0.2387
16474W        W36754  14.686   5.544   0.595  0.0232 -0.3558 -0.0605
16475W        W36755   4.731   1.920   1.034  0.2033 -0.0183  0.0616
16476W        W36756  10.166  10.780  11.240 -0.1435 -0.0709  0.2275
16477W        W36757  14.976  14.337  15.067  0.1898  0.0630 -0.0399
16478W        W36758   9.032   0.061   1.661  0.1295 -0.2587 -0.2464
16479W        W36759  11.438   0.252  11.987 -0.1787 -0.0700  0.0300
16480W        W36760  15.005   1.560  14.086  0.4174 -0.1743  0.4066
16481W        W36761  16.757   0.930  11.189 -0.0744 -0.1719  0.1560
16482W        W36762  12.850  15.591  11.669  0.2207 -0.1308 -0.1266
16483W        W36763   8.881  12.370   4.065  0.0776 -0.2661  0.0952
16484W        W36764  14.952  11.860  12.057 -0.1251 -0.0569 -0.1087
16485W        W36765  11.150  11.282   3.653  0.0564  0.0352 -0.1069
16486W        W36766  17.622   9.618   1.661 -0.0318 -0.0170 -0.1502
16487W        W36767   8.054  11.775   1.391 -0.1385  0.2414  0.3549
16488W        W36768   2.414  15.471   5.149  0.1228  0.0673  0.2680
16489W        W36769   1.155  16.575  15.499 -0.1400 -0.2735 -0.2657
16490W        W36770  13.487  17.662  11.447  0.0083 -0.0402 -0.1962
16491W        W36771   7.070   2.604   2.151  0.0244 -0.0877  0.1237
16492W        W36772   2.420   9.129  13.419 -0.3082 -0.0078  0.1221
16493W        W36773  17.147   5.924   2.493  0.0691 -0.0489  0.2068
16494W        W36774  15.274  17.029  13.322 -0.0029 -0.0730  0.1460
16495W        W36775  11.887  13.339   0.794  0.3471 -0.1516 -0.1725
16496W        W36776  17.831  12.508   3.326  0.0826  0.0056 -0.2510
16497W        W36777  10.508  17.705  15.316  0.0557 -0.1003  0.1876
16498W        W36778  12.418   9.720   2.907 -0.2658  0.1095  0.0495
16499W        W36779   4.468  14.991  11.463 -0.3125  0.1511  0.0376
16500W        W36780  13.088   6.490  14.170  0.1675  0.0398  0.0941
16501W        W36781   7.850   1.905   3.910  0.0853 -0.3200 -0.1569
16502W        W36782  11.564   6.924  14.628  0.0835  0.1152  0.0518
16503W        W36783  16.670   2.210  12.141 -0.2193 -0.2410 -0.1049
16504W        W36784   0.497   8.572  12.903 -0.0512  0.2204 -0.4887
16505W        W36785  18.325  10.311   4.220  0.2275  0.0862  0.1613
16506W        W36786  17.369  14.141   4.447 -0.0542 -0.0726 -0.2783
16507W        W36787  13.544  12.044   0.637  0.0190 -0.1490 -0.2417
16508W        W36788   5.198   6.201   2.357 -0.1227 -0.1727  0.0868
16509W        W36789   9.229  18.329  14.606  0.2781  0.1105 -0.1684
16510W        W36790   3.698  14.996  14.885 -0.6893  0.0491 -0.0589
16511W        W36791  16.196  14.581   2.560 -0.3454  0.3080 -0.3458
16512W        W36792   9.075  13.395   0.508 -0.1514  0.0132  0.0653
16513W        W36793  14.423   5.862   3.231  0.2173 -0.1891  0.1855
16514W        W36794  11.363   4.084  12.381  0.2396  0.2473  0.2240
16515W        W36795   9.437  14.800   0.047 -0.1409 -0.0360 -0.1785
16516W        W36796   8.662   9.518   0.126  0.0495  0.0857  0.0393
16517W        W36797   1.224  15.116   2.791 -0.0853  0.1683 -0.1421
16518W        W36798  11.544  17.291   1.125  0.0128  0.1047  0.0691
16519W        W36799  13.845   1.510  11.554  0.0581  0.0465  0.2276
16520W        W36800   7.715  18.047  12.551 -0.0219  0.0231 -0.0010
16521W        W36801   8.012  12.082   4.310  0.0950 -0.0518  0.0974
16522W        W36802  13.098   8.271   5.774 -0.0681 -0.0688 -0.1134
16523W        W36803   6.717   4.489  15.063 -0.0126  0.3651  0.0785
16524W        W36804  17.067   7.586  13.607  0.1870 -0.0094  0.1020
16525W        W36805   2.755  13.028   1.162  0.3455 -0.1140  0.2626
16526W        W36806  11.067  14.066   1.678  0.0188 -0.0558  0.0235
16527W        W36807  14.531  14.615   0.533 -0.0589 -0.2227  0.0749
16528W        W36808   9.919   8.352   3.884 -0.0280 -0.0113 -0.0212
16529W        W36809   0.244  15.712  12.864 -0.0960 -0.2054  0.1754
16530W        W36810  11.216  12.537  12.162 -0.0980  0.2597  0.0514
16531W        W36811   5.533   7.842   4.056  0.0637  0.0343 -0.2125
16532W        W36812  12.605   0.849  12.314  0.2041  0.1924 -0.3244
16533W        W36813  14.582   5.473   3.636 -0.0599 -0.2518  0.1494
16534W        W36814   3.772  12.319  15.593  0.0624  0.3396  0.0001
16535W        W36815   3.005   8.595   3.597  0.1304 -0.0762  0.2167
16536W        W36816   5.116   5.562  12.278  0.2573 -0.0070  0.0897
16537W        W36817  10.789  13.813  11.434 -0.4125 -0.0449  0.1978
16538W        W36818   5.489  12.683   3.162  0.0721 -0.1872  0.0256
16539W        W36819  11.269   7.303  14.756 -0.0582  0.0457  0.0662
16540W        W36820   9.370  11.436  13.564 -0.0810 -0.1874 -0.0768
16541W        W36821   9.547  16.988  15.794  0.1866  0.0896 -0.0668
16542W        W36822  17.815  17.186   2.556  0.0472  0.0466 -0.1422
16543W        W36823  13.171  17.060   1.461  0.0957 -0.2962 -0.0482
16544W        W36824  11.606  12.689   2.984  0.0953  0.0603 -0.2856
16545W        W36825   1.812   9.996   4.676  0.1462 -0.0854 -0.3175
16546W        W36826  12.601   0.252  12.218  0.0203  0.1219  0.2261
16547W        W36827  11.102   7.976   0.060  0.1778 -0.0798 -0.2703
16548W        W36828   5.956  11.695   1.671 -0.0937  0.0213 -0.2917
16549W        W36829  17.391  17.242  15.046  0.1800 -0.0472  0.2140
16550W        W36830  11.675   0.509   1.189 -0.0465 -0.1583 -0.2289
16551W        W36831  18.138  17.988   2.932 -0.0292 -0.0739 -0.0745
16552W        W36832  17.109   1.174   0.162  0.0701  0.0058  0.0822
16553W        W36833   6.260  14.386   9.887  0.0991 -0.1085  0.4240
16554W        W36834  15.787   8.785  12.317 -0.0373  0.1520  0.1165
16555W        W36835  16.808  14.168   3.677  0.0907 -0.2506 -0.1422
16556W        W36836  17.911   1.382   3.210 -0.0955 -0.0551  0.2409
16557W        W36837  10.621  13.400  12.407  0.0129  0.0192  0.0608
16558W        W36838   9.387   5.924  15.836  0.3469  0.1462  0.4000
16559W        W36839  13.702  10.314  12.076 -0.1728 -0.1097  0.2740
16560W        W36840  17.805  15.388   3.944  0.1765  0.4799  0.0676
16561W        W36841  16.632  10.001   4.392 -0.1482  0.1463  0.2358
16562W        W36842   2.764   4.896   3.167 -0.1065 -0.1189 -0.1048
16563W        W36843  13.601   0.420  14.671 -0.1279  0.1178 -0.0947
16564W        W36844  13.363  15.603  14.093 -0.1832 -0.0162 -0.0396
16565W        W36845  14.883  18.277  11.065  0.0529 -0.2819  0.0133
16566W        W36846   0.801   8.278  11.948  0.2634  0.2261 -0.1190
16567W        W36847  17.410  13.783  15.214  0.0905 -0.1471 -0.0010
16568W        W36848  11.375  15.658  14.651  0.1157  0.0533 -0.0533
16569W        W36849   4.259  12.223  14.250  0.1090 -0.0804 -0.0452
16570W        W36850   6.038  11.453   2.120 -0.0597  0.1593  0.0944
16571W        W36851   9.832  11.223   1.170  0.0480  0.2301 -0.1471
16572W        W36852   0.359   0.130  13.134 -0.1553 -0.2161  0.0112
16573W        W36853  16.688   8.215  14.753 -0.1337 -0.1386  0.0891
16574W        W36854  12.971   3.166  11.826 -0.2487  0.0774 -0.0278
16575W        W36855  16.421   6.493   4.447  0.1851  0.2743 -0.0722
16576W        W36856   5.146   8.560  15.609 -0.0638  0.1409 -0.2012
16577W        W36857   1.339  11.632   0.838 -0.1234  0.1808  0.1297
16578W        W36858  12.411   1.685   1.180  0.1273  0.2037  0.5675
16579W        W36859   7.765  12.649  11.841  0.0875 -0.1393 -0.0696
16580W        W36860  15.302  15.585  12.860  0.1612 -0.1916 -0.3540
16581W        W36861   8.880   9.056  15.831 -0.0008  0.1141  0.2448
16582W        W36862   8.425   0.738   2.279 -0.0127  0.3558  0.2222
16583W        W36863  14.416   0.127   3.205  0.1621 -0.4272 -0.2736
16584W        W36864  14.612  11.850   1.983  0.1213  0.0135  0.0003
16585W        W36865   7.716  14.745  14.714 -0.0013  0.3015 -0.0177
16586W        W36866  10.517  10.947   2.547  0.1885  0.0632  0.2823
16587W        W36867  17.456  13.054  13.336 -0.1659  0.0468  0.2378
16588W        W36868  14.895   5.703  15.504 -0.2972  0.0173 -0.1204
16589W        W36869  14.566   3.500  11.446 -0.1454  0.3469  0.2790
16590W        W36870  13.339   9.627  12.638 -0.1047 -0.2608 -0.2093
16591W        W36871  11.961   0.223   4.313  0.5260  0.1245  0.1936
16592W        W36872   8.397  10.711  14.458  0.1576  0.0115 -0.0108
16593W        W36873   6.740   6.769  15.758  0.2148 -0.2923 -0.2670
16594W        W36874   7.785  11.192  15.711  0.1096 -0.0853  0.0563
16595W        W36875  14.121  11.880   1.274  0.2846 -0.3776 -0.0328
16596W        W36876  12.055  11.972  13.218  0.0614  0.1907 -0.1359
16597W        W36877   1.942  18.183   3.410  0.0714  0.3705 -0.1672
16598W        W36878  15.913   5.518   2.370  0.1685  0.1428 -0.0359
16599W        W36879  11.443   9.397  11.708 -0.2762 -0.0483  0.1792
16600W        W36880   9.615  16.378  12.549  0.1024  0.3162 -0.1037
16601W        W36881  17.946  13.944  14.789 -0.1745 -0.1944  0.1430
16602W        W36882  15.640   3.889  14.779 -0.0172 -0.0461 -0.0108
16603W        W36883  14.882   5.935   4.542  0.1015 -0.0351  0.0762
16604W        W36884  11.441  12.590   4.748  0.0377  0.3813  0.1270
16605W        W36885  13.457  13.760  14.704  0.2837 -0.0211  0.3406
16606W        W36886  10.958  15.733  14.413 -0.0913  0.1754  0.3581
16607W        W36887  18.294   5.014   2.089  0.1616  0.4792 -0.1184
16608W        W36888  14.718  12.108   4.165 -0.3189 -0.0964 -0.2261
16609W        W36889   8.887   0.701   3.430 -0.0562  0.1751  0.2323
16610W        W36890  14.690  17.761  13.553 -0.0137  0.1441 -0.1637
16611W        W36891   0.186  11.468  14.795  0.2908  0.1095  0.0795
16612W        W36892  16.780   1.028  13.092 -0.0692  0.3490 -0.3363
16613W        W36893  15.700   8.641   4.574 -0.1495 -0.2017 -0.4286
16614W        W36894   3.227  10.521  12.258  0.0016 -0.0593  0.0202
16615W        W36895  13.819   3.153   1.949 -0.0236 -0.2026  0.3731
16616W        W36896  11.063   4.491   4.025 -0.1054 -0.0499  0.0712
16617W        W36897  10.850  11.382   2.423 -0.1918 -0.0331 -0.3877
16618W        W36898   7.830  14.113  13.515  0.0260  0.0435  0.0798
16619W        W36899  10.226  13.874   4.266 -0.1458 -0.3578  0.1272
16620W        W36900  13.667   7.736   4.686  0.1149  0.1587 -0.0647
16621W        W36901   0.452   3.577  12.765  0.0426  0.0400 -0.0041
16622W        W36902   8.353   3.118   1.943 -0.0401  0.1463 -0.0245
16623W        W36903  16.040   8.310  11.400  0.0539 -0.0824  0.5084
16624W        W36904  10.771   9.019   0.630 -0.0271 -0.3900 -0.0076
16625W        W36905  14.585   1.656  15.151  0.0734  0.2139 -0.1390
16626W        W36906  18.197  13.246   0.897 -0.0033  0.3110  0.0404
16627W        W36907   7.729   9.253   3.024 -0.0253 -0.0590  0.2529
16628W        W36908   4.328   3.979   3.276  0.2532  0.4247 -0.1165
16629W        W36909   7.218  14.353   1.654  0.0617 -0.1183 -0.3677
16630W        W36910   1.185  16.629  14.106  0.1996 -0.0577  0.2472
16631W        W36911   0.618   6.509  15.789 -0.1292 -0.0868 -0.2318
16632W        W36912   8.394   4.331  12.759  0.3737 -0.0927 -0.3235
16633W        W36913  12.813  17.362   3.242  0.0315  0.1922 -0.0946
16634W        W36914  16.127  15.583   3.572 -0.2675 -0.3412  0.1370
16635W        W36915   7.525   1.920   0.183 -0.1049 -0.0142 -0.3562
16636W        W36916  10.927  11.105  12.945 -0.0119  0.1233  0.0268
16637W        W36917   6.517   7.776  12.013  0.0369 -0.2169  0.3217
16638W        W36918   4.266  11.935   0.005 -0.4156 -0.1513  0.0160
16639W        W36919   0.411   4.135   2.369 -0.1017  0.1654 -0.0322
16640W        W36920   3.016   2.681  14.569  0.2746 -0.0700  0.0747
16641W        W36921   4.489   7.383   0.251  0.1612  0.1750  0.2668
16642W        W36922   6.708  11.040   0.806 -0.0466  0.0002 -0.3447
16643W        W36923  13.383  11.243  12.373 -0.1745 -0.0082 -0.2022
16644W        W36924   9.549  17.494  13.122  0.2274  0.1051  0.3902
16645W        W36925  16.208  11.419  14.353 -0.1466 -0.1135  0.0690
16646W        W36926   8.530  12.503  13.093  0.0558 -0.1672  0.4541
16647W        W36927  17.375  14.263  15.400 -0.0285 -0.1883 -0.0588
16648W        W36928  12.882   9.659  11.781 -0.0309 -0.0202  0.2875
16649W        W36929  14.910   3.455  12.909  0.0720 -0.3537 -0.0906
16650W        W36930   0.253  14.827   1.742  0.1112  0.1564  0.1221
16651W        W36931   4.158  11.790   4.461 -0.0991  0.1643  0.2586
16652W        W36932  12.645  14.929   5.001  0.0865 -0.1182  0.2229
16653W        W36933   7.048   6.913   3.112  0.2257 -0.0929 -0.0677
16654W        W36934   6.116  16.206   3.118 -0.1183  0.1738 -0.0560
16655W        W36935   9.809   3.399  11.979  0.0772  0.0957  0.3624
16656W        W36936   1.079  14.169   4.652 -0.1792 -0.1744  0.1697
16657W        W36937   7.432  15.258   0.391  0.1410 -0.3116 -0.3048
16658W        W36938   1.569   8.070   2.317 -0.0835 -0.2835 -0.1316
16659W        W36939  12.051  12.644   4.738 -0.1276  0.3526 -0.1054
16660W        W36940  17.234  17.343  10.576 -0.0136  0.0049  0.0694
16661W        W36941   3.417   4.499   3.782  0.1089 -0.2499 -0.0181
16662W        W36942   1.531  10.778   1.046 -0.3586 -0.1343 -0.4988
16663W        W36943   6.490  16.154   2.725 -0.3057 -0.2838 -0.0736
16664W        W36944   6.824   7.430   0.379 -0.0493  0.0509 -0.0571
16665W        W36945   9.307   6.511   3.948 -0.2890  0.0137  0.4856
16666W        W36946  14.487   0.273  11.917 -0.1886  0.1184  0.1016
16667W        W36947   1.533   9.946  12.987 -0.0055 -0.0418 -0.4337
16668W        W36948  15.647   4.354  15.258 -0.3269 -0.0137 -0.2353
16669W        W36949   6.265   0.167  15.213 -0.0437  0.0079 -0.0452
16670W        W36950  10.723   1.000  12.347 -0.3194 -0.1979  0.2542
16671W        W36951   8.147   4.410  13.190 -0.3490 -0.1001 -0.2485
16672W        W36952   5.829  14.558   2.934 -0.0676  0.0940  0.0293
16673W        W36953  12.845   5.018  15.561 -0.1054 -0.2391 -0.1296
16674W        W36954   8.928  15.629   1.562  0.0539  0.0240 -0.3066
16675W        W36955  13.575   4.610  13.369 -0.1844 -0.2685 -0.0277
16676W        W36956  16.275   4.548  13.667 -0.1662  0.1997  0.0182
16677W        W36957   5.280   6.044  14.480 -0.4454  0.2670  0.1036
16678W        W36958  11.103  16.783   3.699  0.1740 -0.3961  0.0485
16679W        W36959  12.380  14.747  14.971  0.0126  0.1336 -0.0468
16680W        W36960   4.999   7.255  13.095 -0.5399  0.1134 -0.3316
16681W        W36961  15.921  17.896   4.514 -0.0970 -0.0419 -0.1891
16682W        W36962   3.527  14.451  15.460 -0.1619  0.0629  0.0892
16683W        W36963  16.519  17.460   1.554 -0.0323  0.0139 -0.1967
16684W        W36964   7.319   3.378  11.327  0.0160  0.1965 -0.2561
16685W        W36965   4.597   6.935   2.355 -0.2675  0.1673  0.2116
16686W        W36966   5.320   5.810  15.502 -0.2528  0.0836  0.0570
16687W        W36967  10.380   1.592   1.779 -0.1920  0.1838  0.1375
16688W        W36968   1.117   1.490   0.935 -0.0101 -0.0081 -0.4187
16689W        W36969  10.150   6.164  15.382  0.0625 -0.1170  0.1848
16690W        W36970  14.541   2.569  12.143  0.1869 -0.1185  0.1835
16691W        W36971  10.646   1.382  11.375  0.1343  0.2104  0.0397
16692W        W36972  17.997   4.641  13.680 -0.0409 -0.0312 -0.0323
16693W        W36973   5.379  10.139  14.602  0.1068 -0.3207 -0.3565
16694W        W36974  18.136   6.256  14.360 -0.2053  0.0374  0.1616
16695W        W36975  13.258  10.233   3.168  0.2316  0.1235 -0.2540
16696W        W36976   7.590  11.539   3.522 -0.0837  0.1169  0.0456
16697W        W36977   3.547  15.107  13.577 -0.0009  0.0962 -0.0213
16698W        W36978  11.020  10.768   3.813 -0.2714  0.0218  0.0390
16699W        W36979  10.692  13.199  15.770  0.0604  0.0237 -0.0241
16700W        W36980   4.105   9.125   3.636 -0.0917  0.2292 -0.1421
16701W        W36981  15.908  16.085  11.663  0.1449 -0.0304 -0.0046
16702W        W36982   1.236   8.067   1.936  0.0663  0.0419 -0.0731
16703W        W36983  13.952  15.443  10.784 -0.0259 -0.4782  0.4735
16704W        W36984   2.368   6.299  15.005  0.0798  0.3644  0.1623
16705W        W36985  16.518   8.402  12.100 -0.0162 -0.3033  0.2869
16706W        W36986  17.255   8.040   4.227 -0.2724  0.0577 -0.2603
16707W        W36987  13.935  13.602   3.981 -0.0302 -0.2712  0.0556
16708W        W36988   4.469   0.035   0.758  0.0127  0.0793 -0.0747
16709W        W36989   6.716   3.294   3.539 -0.1997  0.0410 -0.1548
16710W        W36990  15.917  15.274   4.512  0.3190  0.1009  0.1220
16711W        W36991  17.590  12.782  14.407  0.0898 -0.0029  0.1384
16712W        W36992  15.444   8.923   3.638 -0.2897 -0.0456 -0.0831
16713W        W36993  15.162   9.708  13.019  0.1948 -0.2577  0.0402
16714W        W36994  10.736  12.837   4.675 -0.2052 -0.0216 -0.0357
16715W        W36995   5.827  12.057  14.157 -0.1419  0.0372 -0.0463
16716W        W36996   7.324   1.466  15.112  0.1219 -0.0630 -0.0761
16717W        W36997  12.768  15.794  12.114 -0.1219 -0.0648  0.0650
16718W        W36998  11.920  11.595  12.892  0.1963 -0.0339 -0.0542
16719W        W36999  14.443  13.688  14.582 -0.0532  0.2392  0.2588
16720W        W37000   9.432   5.244   3.322  0.1480 -0.1751 -0.0424
16721W        W37001  17.843   1.779   4.054  0.0154  0.3424  0.0242
16722W        W37002   6.293   0.376   2.474 -0.2878 -0.0557  0.0148
16723W        W37003  18.234  12.836   0.044 -0.2360  0.1054 -0.0028
16724W        W37004  11.907  14.465  15.275  0.0152 -0.0830  0.0132
16725W        W37005   2.788   0.983   3.289  0.1797  0.1056  0.0628
16726W        W37006  11.897   4.204   2.972 -0.3192 -0.1635 -0.0056
16727W        W37007   1.379  12.828   5.008 -0.0411 -0.1384 -0.2308
16728W        W37008   0.130  15.484  15.841 -0.3756  0.1085 -0.0289
16729W        W37009  18.093  17.123   3.905 -0.0842 -0.2673  0.0177
16730W        W37010   7.061   0.310  12.293 -0.2861  0.4131 -0.0099
16731W        W37011   9.912   0.175  10.991 -0.3364  0.2208 -0.2788
16732W        W37012  17.164   3.757  14.089 -0.2345 -0.2351 -0.0281
16733W        W37013   6.711   1.683   1.408 -0.0240 -0.0998 -0.2834
16734W        W37014   8.147   0.399  12.849 -0.0104  0.2160 -0.0159
16735W        W37015  12.515   6.217   0.280  0.0949 -0.1104  0.0378
16736W        W37016  16.564   5.756  14.447 -0.5325  0.2801 -0.1968
16737W        W37017  14.805   4.448  15.839  0.2774  0.1059 -0.0435
16738W        W37018  17.742  16.736   1.956  0.0424 -0.2505 -0.0916
16739W        W37019  13.679   0.922  11.729  0.0027  0.0586 -0.2929
16740W        W37020   8.387  15.037   1.733  0.2792  0.0166 -0.0273
16741W        W37021  11.288   8.910  15.869 -0.0172 -0.1170  0.2022
16742W        W37022   5.296  12.082  12.578 -0.1132 -0.0549 -0.1502
16743W        W37023  12.848  16.560  13.085 -0.0131 -0.1378  0.2040
16744W        W37024  16.149  11.431   3.978  0.0534 -0.2114 -0.3332
16745W        W37025  16.758   0.939  14.147  0.1806 -0.0836  0.2387
16746W        W37026   5.100   1.820  15.496 -0.2701 -0.0391 -0.0971
16747W        W37027  10.981  16.806  12.916 -0.0800 -0.0465 -0.2802
16748W        W37028   3.190  14.410  12.451 -0.1502  0.2884 -0.0042
16749W        W37029   0.604   1.243   2.458 -0.0886 -0.1511  0.2365
16750W        W37030  13.108   8.253   1.174 -0.1597  0.1183 -0.4291
16751W        W37031   6.815   5.157  15.464  0.2387  0.1525  0.2631
16752W        W37032   0.548  16.830   4.212 -0.3913 -0.1486 -0.3994
16753W        W37033   0.764   3.921   2.043  0.0809  0.2950  0.2002
16754W        W37034   8.701  16.576   3.420 -0.0545  0.0765  0.4185
16755W        W37035   3.280   6.056  13.523 -0.1722 -0.0087  0.0512
16756W        W37036   6.122   0.855  15.560 -0.1569 -0.0526 -0.1786
16757W        W37037  11.152   5.960  13.917 -0.0874 -0.0460 -0.2338
16758W        W37038  16.094  13.781  13.424  0.3805 -0.1734  0.1469
16759W        W37039   7.385   6.321  15.188  0.1056  0.0183 -0.1925
16760W        W37040   8.367  18.282  15.909  0.0974 -0.3274  0.0036
16761W        W37041  11.269  13.546   2.491  0.3032 -0.2472  0.0346
16762W        W37042  15.372  13.009   5.549 -0.0042 -0.0689 -0.2275
16763W        W37043   5.129   4.273  12.140 -0.0464  0.0276  0.1746
16764W        W37044  16.001  10.891   3.319  0.0708  0.0948 -0.0771
16765W        W37045   6.564   7.045  12.865 -0.0552 -0.0824  0.0751
16766W        W37046  14.962   5.557  12.691  0.1016 -0.1767  0.3512
16767W        W37047   5.627   5.679  12.434 -0.1890 -0.2150 -0.1640
16768W        W37048   1.804   2.173  14.165 -0.1841 -0.1451 -0.0728
16769W        W37049  14.950   8.909   2.305  0.0443  0.2632  0.0389
16770W        W37050  15.349  16.298  14.087  0.0355  0.0600 -0.0863
16771W        W37051  12.703   6.850  13.489  0.1906  0.0776  0.1619
16772W        W37052  12.323   7.836  11.804 -0.3387 -0.1522  0.1158
16773W        W37053   9.895  14.534   1.764  0.0502  0.0265 -0.2588
16774W        W37054   4.949   4.576   3.615 -0.0440  0.0988  0.0838
16775W        W37055  15.679  13.324  11.285 -0.0345  0.1837 -0.0864
16776W        W37056   4.284   0.347  12.605 -0.0937 -0.0824  0.2001
16777W        W37057   8.249  13.835  14.860 -0.3925 -0.0951 -0.0429
16778W        W37058  17.066   3.766  14.861 -0.1925  0.0264  0.0626
16779W        W37059  18.077   6.841   1.369  0.6907  0.0598 -0.0722
16780W        W37060  16.099  16.020   2.588  0.1484  0.1406  0.0893
16781W        W37061   9.126   0.435  14.859  0.0658  0.2581 -0.0062
16782W        W37062  10.391  11.226  14.699  0.1077 -0.0184 -0.1559
16783W        W37063   1.335   9.459  12.160 -0.1831  0.1895  0.2225
16784W        W37064  12.709  11.567   2.973 -0.0039 -0.3948 -0.4345
16785W        W37065  15.337  13.602  13.937  0.1976  0.0319 -0.2189
16786W        W37066  12.485   3.899  13.242  0.1337  0.0868  0.0003
16787W        W37067  17.945  17.781   1.939 -0.1855  0.1241 -0.1554
16788W        W37068  17.673   6.144   1.953  0.0417  0.1078 -0.2701
16789W        W37069  15.918  17.320  15.716 -0.0296  0.0612 -0.1010
16790W        W37070  18.151   2.472   0.011 -0.4550  0.0723 -0.0949
16791W        W37071   0.554  17.667  11.922 -0.0004  0.0113 -0.0447
16792W        W37072   7.719   4.534   4.798  0.2199 -0.0166 -0.1240
16793W        W37073   5.314   9.857   1.593 -0.1325 -0.1866 -0.0843
16794W        W37074   7.702   2.845  11.493  0.0763 -0.1903 -0.0823
16795W        W37075   4.693   1.155  15.044 -0.1564  0.1873 -0.0533
16796W        W37076   8.361  11.423   3.800  0.1191  0.0889 -0.0083
16797W        W37077   8.557  13.389   4.832 -0.1503  0.0481  0.0475
16798W        W37078   0.960  17.989   0.865 -0.0312  0.0423 -0.2215
16799W        W37079  11.801   3.946  14.536  0.2384 -0.1419 -0.2582
16800W        W37080  11.477  15.724   2.382  0.0944 -0.0869  0.1442
16801W        W37081   4.036   6.498  11.992  0.0273 -0.2229  0.1299
16802W        W37082   8.993  10.773   0.313  0.2237 -0.1659 -0.2115
16803W        W37083   6.758   8.057   3.183 -0.0230  0.2922 -0.3476
16804W        W37084  12.309   0.565   4.076 -0.0765  0.4205 -0.1990
16805W        W37085   3.272   7.376  13.458  0.4414 -0.1304  0.0108
16806W        W37086  13.936  11.049  15.702 -0.2818  0.2782 -0.4237
16807W        W37087  11.257   8.271  14.603 -0.1262  0.0860 -0.2757
16808W        W37088  10.230  14.721  14.298  0.0216  0.0956  0.0260
16809W        W37089   5.217   9.929  15.048  0.1205 -0.2132 -0.0907
16810W        W37090   6.454  13.370   2.996  0.2627 -0.1897  0.2694
16811W        W37091  13.906  11.302   4.490 -0.0969 -0.0097  0.0931
16812W        W37092  17.237  15.651   1.942 -0.1607 -0.1748  0.0293
16813W        W37093   5.195   0.662   0.370 -0.1517  0.1395 -0.0070
16814W        W37094  14.889   3.040  14.483 -0.0674 -0.0930  0.0923
16815W        W37095  10.592  10.531   2.112  0.0123  0.0832  0.0784
16816W        W37096  15.139   0.880   1.718 -0.0058 -0.1078 -0.0872
16817W        W37097  10.222   4.288  15.885 -0.1959  0.2531  0.0793
16818W        W37098   1.881  13.830  12.060  0.1948 -0.3119 -0.1465
16819W        W37099   0.421   7.530   4.081 -0.0292 -0.4774 -0.1444
16820W        W37100   7.920  15.226  11.965 -0.0806  0.3426 -0.0276
16821W        W37101   4.337  10.961  12.308 -0.0730 -0.3380 -0.1361
16822W        W37102  18.023  14.863  15.220  0.1046 -0.1519 -0.0941
16823W        W37103   3.664   2.636  11.915 -0.1063 -0.1019  0.0378
16824W        W37104  11.036   7.536   0.694  0.1149  0.0718 -0.4018
16825W        W37105   5.067  10.065  11.973 -0.0091 -0.0775 -0.3098
16826W        W37106   9.933  13.292   2.772 -0.0703  0.1345 -0.1379
16827W        W37107  10.574  16.251   3.003  0.3509  0.1188  0.3174
16828W        W37108   3.191  14.292  13.082 -0.0272  0.0493 -0.5568
16829W        W37109  16.813  12.658   1.476 -0.1778  0.0312 -0.2323
16830W        W37110   9.110   8.277  13.633 -0.0715 -0.1355 -0.1753
16831W        W37111  11.385   2.777   0.058 -0.1731 -0.0899  0.2834
16832W        W37112  10.300   5.314  11.974 -0.0872 -0.0758  0.3336
16833W        W37113   0.285   3.647  12.314 -0.1691  0.2558 -0.0362
16834W        W37114   2.942   9.789  11.789  0.0689  0.3275 -0.1777
16835W        W37115   8.334  17.127  11.575 -0.2310  0.1575  0.1029
16836W        W37116  14.493  13.231   2.197  0.0564  0.0012 -0.0952
16837W        W37117  17.711   5.003   0.323 -0.1502 -0.2795 -0.0248
16838W        W37118   0.116  15.237   1.994  0.0656 -0.0146 -0.0568
16839W        W37119  14.753   2.869   3.174 -0.0857  0.2781 -0.2297
16840W        W37120   2.590   8.210  12.328 -0.1198 -0.1588 -0.1585
16841W        W37121  17.557   7.522   0.177  0.0639 -0.3922 -0.1077
16842W        W37122   5.349  13.723  12.139 -0.0922 -0.3291  0.2970
16843W        W37123  13.263   0.466   4.696  0.1568 -0.4846 -0.1637
16844W        W37124   9.309  10.816   1.700  0.2292 -0.2038  0.0736
16845W        W37125   5.967  11.496  12.804 -0.1383 -0.3154 -0.2589
16846W        W37126   2.404   5.625   2.561  0.0934  0.1781  0.1688
16847W        W37127   9.385   1.304  12.171  0.1104 -0.2043  0.3422
16848W        W37128   2.004  17.582   4.116 -0.0093  0.2036 -0.0935
16849W        W37129   3.433  10.021   2.746 -0.1501  0.2686 -0.0102
16850W        W37130   3.684  16.533  14.041  0.0532 -0.4279 -0.1077
16851W        W37131   2.707  17.750  11.781  0.1081  0.0527 -0.4799
16852W        W37132   0.418  10.654   3.511 -0.0698  0.0039  0.1024
16853W        W37133   1.669  10.786   3.110 -0.1965  0.1603  0.1085
16854W        W37134  10.569  13.231   1.052 -0.3024  0.0701 -0.1195
16855W        W37135   8.155  16.272   3.717  0.3694 -0.2234 -0.3952
16856W        W37136   3.763   2.804  14.061 -0.1267 -0.1010 -0.2673
16857W        W37137   9.263  16.533   4.302 -0.2576 -0.1496  0.0191
16858W        W37138  14.688  15.542  14.195 -0.0116 -0.2002 -0.0340
16859W        W37139   3.302   5.055   0.082 -0.1433 -0.0298 -0.1090
16860W        W37140   7.094  14.349   2.862 -0.1637 -0.0481 -0.1972
16861W        W37141   5.939  15.135  12.632 -0.1456 -0.2111  0.2480
16862W        W37142  12.074  11.222   3.451  0.1228  0.4463  0.1504
16863W        W37143   5.765   9.640   3.395 -0.0619 -0.0720 -0.0738
16864W        W37144  11.478  17.787   1.014 -0.0397  0.1417 -0.0714
16865W        W37145  13.766   6.025  13.353  0.0532  0.2129  0.3948
16866W        W37146  11.839   4.909   4.385 -0.0413  0.4257  0.4211
16867W        W37147   2.520   9.575  14.945  0.0047  0.0088 -0.0604
16868W        W37148   2.401  10.256   4.033 -0.2052 -0.1458  0.2483
16869W        W37149  17.567   9.729   4.759 -0.1176  0.3831 -0.2084
16870W        W37150   5.419  11.320  13.321  0.0308  0.2176 -0.2374
16871W        W37151  10.845  10.180   1.434  0.0093 -0.0230  0.1409
16872W        W37152  16.049   7.087  15.036  0.1255 -0.2986  0.2194
16873W        W37153  13.430  14.301  11.493 -0.1346  0.2339  0.0892
16874W        W37154   3.994   1.856   1.648  0.0600 -0.1320 -0.1141
16875W        W37155   0.343  12.789  15.056 -0.2634 -0.0716  0.1101
16876W        W37156   5.809   6.449   1.878 -0.1928  0.2965  0.2576
16877W        W37157   0.327   9.504   0.003 -0.0511  0.1029 -0.1081
16878W        W37158   2.354   7.675   1.008  0.0727 -0.5068  0.0834
16879W        W37159   9.201  17.530   4.385 -0.0360  0.1388 -0.1090
16880W        W37160   4.503   3.768   0.054  0.2314  0.0488  0.0941
16881W        W37161  10.797  17.234   0.922  0.3108  0.1048 -0.0679
16882W        W37162   7.407  10.367   4.148 -0.1242  0.0327 -0.4475
16883W        W37163  14.652  11.303  15.165  0.2590  0.0925  0.0943
16884W        W37164   1.337  15.134  15.014 -0.3713  0.0390 -0.4062
16885W        W37165   7.760  12.255   2.450 -0.1373 -0.1728 -0.2973
16886W        W37166  10.601   6.148   3.933 -0.1679  0.0335  0.1051
16887W        W37167  14.556   9.218   4.293 -0.2725  0.1555 -0.1245
16888W        W37168  14.129   2.759  15.621 -0.1921  0.1487 -0.1232
16889W        W37169   4.525   3.283  15.700  0.2007  0.0972  0.0136
16890W        W37170  14.517   5.291  11.314  0.1707 -0.4026 -0.2945
16891W        W37171   0.358   8.368   2.287  0.1572 -0.0475  0.1220
16892W        W37172   9.960  16.717   0.271  0.2195  0.1194 -0.1598
16893W        W37173   2.620   2.306  12.235  0.0789 -0.1031  0.0275
16894W        W37174  12.932   1.611   1.370 -0.3152 -0.0357 -0.2100
16895W        W37175  12.209   1.409  12.365  0.0644 -0.0703 -0.1563
16896W        W37176   8.641  17.594  11.630 -0.0592  0.2775  0.0544
16897W        W37177   6.923  15.246   0.438  0.0914  0.0168 -0.2885
16898W        W37178  11.032   6.137   1.240  0.1550  0.0525  0.2875
16899W        W37179  14.566  11.913  10.889 -0.0010  0.1995  0.2496
16900W        W37180   4.093   9.468   0.690  0.1610  0.2298 -0.1838
16901W        W37181   8.495   5.039  15.483 -0.0793 -0.0325  0.1275
16902W        W37182  15.738   9.497   4.495  0.0629  0.2466  0.0453
16903W        W37183  14.206  16.585  12.286 -0.2243 -0.0381 -0.4421
16904W        W37184  13.535   0.256   0.976 -0.2402 -0.0628 -0.3129
16905W        W37185  16.589   1.917  14.480  0.2424 -0.0599 -0.0383
16906W        W37186   9.560  13.539   1.277 -0.0379 -0.2744  0.2499
16907W        W37187  14.806  10.277  13.605  0.5212 -0.0235 -0.1148
16908W        W37188  11.887   7.582   3.077  0.0586 -0.0743  0.0314
16909W        W37189   9.513   0.638  11.157 -0.0436 -0.2768  0.3417
16910W        W37190  12.179  12.488   3.725 -0.1208 -0.0678 -0.0997
16911W        W37191   1.708   4.477  11.470  0.4141 -0.1929 -0.1252
16912W        W37192   6.742   1.732   0.935  0.2253  0.2224 -0.1258
16913W        W37193  16.122   6.115   4.619 -0.2267  0.1285 -0.3185
16914W        W37194   7.440  10.641  12.500  0.0443  0.0102  0.0396
16915W        W37195  11.424   5.567  12.940 -0.0282  0.1727 -0.0527
16916W        W37196  16.457   6.816  11.475 -0.0438 -0.1692 -0.0461
16917W        W37197  17.578  16.117   3.584  0.2048 -0.0621 -0.0633
16918W        W37198   1.816  14.319  12.339  0.1633  0.1266  0.0539
16919W        W37199   1.622   0.464  11.663  0.0299 -0.0530  0.1619
16920W        W37200  16.367  15.204   0.757  0.3185 -0.2162 -0.1325
16921W        W37201  12.106   7.285   0.986 -0.1992 -0.1864  0.2375
16922W        W37202  15.304   2.149   3.151  0.0503  0.1078 -0.0572
16923W        W37203   7.584   4.945  14.204  0.1233 -0.0651 -0.0386
16924W        W37204  17.790   7.542   4.231  0.1705 -0.2167 -0.0285
16925W        W37205   2.806   2.103   2.175 -0.1153 -0.2412 -0.0157
16926W        W37206   2.789  11.079  12.739 -0.0509  0.3093 -0.0194
16927W        W37207   6.905   0.354   1.680  0.0645  0.2195 -0.2763
16928W        W37208  18.075  12.045  15.505 -0.0045  0.0101 -0.2445
16929W        W37209  14.715  17.449   1.373 -0.0649  0.1001  0.0038
16930W        W37210  13.432   1.085  14.327 -0.0252  0.2443 -0.1911
16931W        W37211  15.017  11.994  13.628 -0.0695  0.1978  0.0535
16932W        W37212   5.139  10.999   4.171 -0.1933  0.0979 -0.1490
16933W        W37213   5.127  17.445  11.658 -0.1724 -0.0302 -0.1008
16934W        W37214  17.910  16.480   1.514  0.2838  0.0568  0.5236
16935W        W37215   0.569  12.610   5.306  0.2174 -0.0278  0.0520
16936W        W37216  15.510  17.509   0.039 -0.1831  0.2869  0.2599
16937W        W37217  10.332   4.382   1.293  0.0786 -0.0110 -0.1409
16938W        W37218   1.941   6.992  15.428  0.0754 -0.0369 -0.2169
16939W        W37219   4.348   1.527   4.009 -0.2605  0.0485 -0.0484
16940W        W37220  13.444  11.476   0.665  0.0041  0.0179  0.0143
16941W        W37221   5.859   2.508   3.182 -0.0775 -0.3496  0.0111
16942W        W37222  14.841   6.145   3.221  0.2275  0.3906 -0.3259
16943W        W37223  14.862  17.715  10.917 -0.1613 -0.1417 -0.1583
16944W        W37224  11.349  12.364   4.319 -0.1743 -0.0852 -0.4174
16945W        W37225   1.324   6.974  13.059 -0.0282  0.0204 -0.1363
16946W        W37226   8.402  14.253  15.057 -0.4450 -0.3025 -0.0949
16947W        W37227  11.960   1.878  11.435  0.2896  0.0552  0.0418
16948W        W37228   5.926   9.860   0.828 -0.1421 -0.2350 -0.1111
16949W        W37229  18.296  17.338  15.693  0.1570  0.1918  0.1423
16950W        W37230   1.620   0.771  12.533 -0.0662 -0.0596 -0.3138
16951W        W37231  11.163  16.029   2.121  0.3497  0.4784  0.3717
16952W        W37232   5.485  13.102   1.891  0.0678 -0.1267  0.1180
16953W        W37233  15.467   0.940  13.754 -0.2599 -0.1256  0.1024
16954W        W37234  12.069   3.559   0.931 -0.0169  0.2634 -0.1018
16955W        W37235  15.696   3.570   4.853  0.2557 -0.0808  0.0202
16956W        W37236   9.372  11.222  12.955 -0.1609  0.1075 -0.2035
16957W        W37237   1.389   8.396   5.433  0.2088 -0.0340  0.0377
16958W        W37238  11.688   5.539   3.479  0.1648 -0.1536 -0.1778
16959W        W37239   1.525  18.033  12.358 -0.4063  0.1007  0.1075
16960W        W37240  10.395   2.631   1.360  0.1646  0.2172  0.3432
16961W        W37241  10.169   7.496   4.813 -0.1453 -0.0331  0.1627
16962W        W37242   6.597   9.647   2.123  0.0708 -0.0501  0.0151
16963W        W37243   6.850   4.228  13.796 -0.1394  0.3354  0.1375
16964W        W37244   2.086  14.990   3.811  0.0079  0.0009 -0.0216
16965W        W37245   7.250   9.472   2.912 -0.0412  0.3110 -0.4587
16966W        W37246   3.281   7.861   0.206 -0.2564  0.1901 -0.3355
16967W        W37247   7.978  17.169  14.830  0.0161 -0.0917 -0.1250
16968W        W37248   9.294   4.043  15.075  0.0586 -0.0117  0.1682
16969W        W37249  17.720   9.173  14.744  0.1013 -0.0812 -0.2254
16970W        W37250  15.121   4.487   3.041  0.0054  0.0651  0.0718
16971W        W37251  15.880  17.183   0.994  0.0866  0.0708 -0.1080
16972W        W37252  11.305  12.237  11.682 -0.1929 -0.0916 -0.0487
16973W        W37253  10.040  11.928  15.363  0.3215  0.1070  0.0784
16974W        W37254   4.793   9.629  12.202  0.1684  0.2395  0.1247
16975W        W37255   6.418  13.828   0.787  0.1004  0.2648 -0.0293
16976W        W37256  10.081   6.426   1.501 -0.2888 -0.1254 -0.0359
16977W        W37257   1.997   5.786   0.956  0.0342 -0.2529 -0.2045
16978W        W37258   9.422  17.157   3.362  0.2073 -0.1241  0.0069
16979W        W37259  13.196   0.229  10.400  0.2340 -0.2245  0.1205
16980W        W37260   6.074  11.471   0.331  0.0797  0.0711 -0.1989
16981W        W37261   9.715   4.897  13.857  0.1041  0.2734  0.2079
16982W        W37262   1.064  12.947  13.883  0.0559  0.0396  0.0665
16983W        W37263  15.875  11.541   3.583 -0.1331  0.0349  0.0937
16984W        W37264   2.492  10.654  13.827  0.1809 -0.1844  0.2220
16985W        W37265  12.339   3.754   0.557 -0.1309 -0.1434  0.0811
16986W        W37266   9.578  13.449  13.823  0.0536  0.0125  0.1064
16987W        W37267   1.241  15.087   3.262  0.1107 -0.1007 -0.1807
16988W        W37268  15.571   5.767   3.795 -0.1434  0.0321 -0.0514
16989W        W37269  11.576  12.224  15.396 -0.0859 -0.2249  0.1988
16990W        W37270   6.939  10.983   1.902 -0.2098 -0.0046 -0.1662
16991W        W37271   5.033  15.637  12.808 -0.1077  0.1809 -0.1554
16992W        W37272   3.978   8.478  14.641  0.1841 -0.1203 -0.3411
16993W        W37273  16.182  11.072  12.005  0.1124 -0.0744 -0.0648
16994W        W37274   4.962  16.027   3.771 -0.0289 -0.0985  0.2689
16995W        W37275  13.124   8.399   0.572 -0.1498 -0.3522  0.3090
16996W        W37276   3.085  14.121   2.643  0.0758  0.5214  0.1993
16997W        W37277   7.506   7.107  12.756 -0.1626 -0.0316  0.0621
16998W        W37278   7.549   3.266  11.782 -0.0949  0.0777 -0.0090
16999W        W37279   9.614   7.010  11.452 -0.1275  0.2896 -0.0193
17000W        W37280  14.243   6.538  13.963  0.2793 -0.0524  0.0674
17001W        W37281  11.274  17.436   3.117 -0.1808  0.2320 -0.1509
17002W        W37282  17.786   6.691  15.739 -0.1041 -0.1551  0.0858
17003W        W37283   5.474  14.180  13.237  0.2074 -0.0810  0.3824
17004W        W37284   7.447  10.560   3.560  0.3108 -0.0156 -0.0390
17005W        W37285   2.539  18.224  12.616  0.2976  0.1835  0.0783
17006W        W37286  16.473  14.776   4.693 -0.0792 -0.1993  0.0478
17007W        W37287   0.024  18.331  14.157  0.0146 -0.1863  0.1417
17008W        W37288   3.703   1.977  15.551 -0.1632 -0.0861 -0.2513
17009W        W37289  17.355   8.749   4.903 -0.0741 -0.1405 -0.0908
17010W        W37290  11.793   3.023   0.310 -0.1004  0.0125 -0.1327
17011W        W37291  12.309  14.589  13.691  0.1017 -0.1079  0.1806
17012W        W37292   9.930   1.872   2.420 -0.4506  0.0115  0.0582
17013W        W37293   9.112   4.811   0.334 -0.0759 -0.0623 -0.1095
17014W        W37294  15.225  17.722   2.058  0.2637 -0.0051  0.0734
17015W        W37295  13.397   4.395  11.342  0.0177  0.2332  0.1119
17016W        W37296  16.001   9.267  15.253 -0.0739 -0.2568  0.2185
17017W        W37297   3.752  12.967   2.661 -0.2404 -0.0217  0.0109
17018W        W37298   9.555  15.993   2.961  0.0709  0.2136  0.4066
17019W        W37299   8.243   8.911   3.727 -0.5887 -0.1225  0.3119
17020W        W37300  11.709  16.875  14.266  0.0467  0.1945  0.0463
17021W        W37301   2.019   8.610  15.603  0.0011 -0.1977  0.0049
17022W        W37302   1.044   2.321   2.919 -0.0462 -0.1616  0.0247
17023W        W37303   2.174  13.516  12.972  0.0388 -0.3762  0.1159
17024W        W37304   0.859   8.239  12.874 -0.0319 -0.1627  0.3097
17025W        W37305   0.525   8.455   5.264  0.0557 -0.2854  0.0666
17026W        W37306   5.659   7.406   2.022 -0.2238  0.1008 -0.1153
17027W        W37307   9.722   8.749   0.836  0.1534 -0.2495 -0.0264
17028W        W37308   3.825  16.277   3.327  0.4130  0.1598 -0.1654
17029W        W37309  16.533  16.793  14.799 -0.0823  0.3145  0.0267
17030W        W37310  12.101   0.051   2.787 -0.2600 -0.2236 -0.0740
17031W        W37311   2.812  15.377  11.648 -0.0654  0.0428  0.1248
17032W        W37312   7.486   1.273  13.186  0.0674  0.1337 -0.0601
17033W        W37313  11.091   5.760  14.780  0.3072  0.2326 -0.2582
17034W        W37314  12.959   4.896   4.443  0.1211  0.4633 -0.3026
17035W        W37315  12.472   8.280   3.719  0.1151 -0.2388  0.1521
17036W        W37316   3.804  12.415   2.126 -0.0608  0.0359  0.0260
17037W        W37317   6.555  13.728  14.190 -0.0764 -0.2136 -0.4094
17038W        W37318  17.340   5.177   3.496  0.1263  0.1911  0.0593
17039W        W37319   0.608  15.836  11.780  0.0217  0.0500  0.2464
17040W        W37320   6.149  12.716   4.470  0.0992 -0.0799  0.0749
17041W        W37321  14.744  13.908  14.911 -0.0072  0.0635  0.0989
17042W        W37322  12.908   6.419  13.387  0.4311 -0.0385 -0.0103
17043W        W37323   3.341  14.972   3.397  0.0006 -0.0268  0.0509
17044W        W37324   6.880   6.663  12.837 -0.0725  0.0407 -0.3377
17045W        W37325  10.847  15.610  12.165  0.2379 -0.1054 -0.1232
17046W        W37326  14.720   8.495  15.657 -0.0034  0.0094 -0.0911
17047W        W37327   3.447   8.882   0.431  0.2063  0.0587  0.0527
17048W        W37328  15.128   9.700  12.495  0.1278 -0.0018 -0.1321
17049W        W37329  16.398   4.965  15.209 -0.2291  0.0844  0.2113
17050W        W37330  10.567  17.611   1.590  0.1644  0.0033  0.0475
17051W        W37331   1.426   2.138   3.154  0.2348  0.2183 -0.0337
17052W        W37332  18.097   4.891  12.514  0.0161 -0.0002 -0.1441
17053W        W37333   8.927   6.179   0.061 -0.1664  0.1191  0.0963
17054W        W37334  12.711   2.382  14.778 -0.2406  0.1060  0.1671
17055W        W37335   8.277  14.973  13.729 -0.1228  0.2530  0.1711
17056W        W37336   4.101   4.922  13.802  0.0529  0.0626 -0.2232
17057W        W37337  10.199   9.946   0.581 -0.0882 -0.3096 -0.0645
17058W        W37338  16.067   9.653   2.421  0.0344 -0.3739 -0.1043
17059W        W37339   8.417  12.368  13.976 -0.3833 -0.2992  0.0876
17060W        W37340   9.583   3.449  14.547  0.0854 -0.0981  0.2712
17061W        W37341   2.789  11.063  13.908  0.1514 -0.0625  0.2154
17062W        W37342  10.786  12.916  11.465  0.0032  0.4451 -0.0641
17063W        W37343  16.939   7.636  15.567  0.0558 -0.0137  0.0471
17064W        W37344  15.766  11.830  15.772  0.1574 -0.0127 -0.0379
17065W        W37345   0.162  15.593  12.022  0.1757  0.0185  0.1293
17066W        W37346  11.161  14.736   3.128  0.0083  0.0078 -0.2121
17067W        W37347  17.231  13.163   1.012 -0.0549  0.0386 -0.3491
17068W        W37348   3.641   4.583  13.093  0.2634  0.0875  0.1066
17069W        W37349  13.997   2.339   3.274  0.4313 -0.0508  0.2954
17070W        W37350  14.389   6.189  12.437 -0.2105  0.1839  0.2678
17071W        W37351   2.645  14.447  15.903 -0.1177 -0.1310  0.1734
17072W        W37352  12.410  13.153  14.650 -0.2432  0.2564  0.0414
17073W        W37353   1.505  17.822   4.011  0.2453 -0.2343 -0.2655
17074W        W37354   6.182   5.964  15.516  0.0706 -0.3215 -0.2483
17075W        W37355   0.965  16.890  13.227  0.3683  0.0365 -0.2677
17076W        W37356   3.375   7.047   4.340 -0.2999  0.3540 -0.0005
17077W        W37357  11.673  17.190  12.592  0.2257 -0.1021 -0.1728
17078W        W37358   0.827   9.283  12.709  0.1506 -0.0605 -0.0233
17079W        W37359  10.633   7.333  12.853  0.3069  0.0145 -0.0813
17080W        W37360   2.544  12.130  14.284 -0.0845  0.2128  0.0647
17081W        W37361   5.515   7.314  12.315  0.0599 -0.2083  0.1430
17082W        W37362   7.259  12.401  12.623  0.0780  0.0383  0.2043
17083W        W37363  13.225  16.548  13.842 -0.0630 -0.0286 -0.0408
17084W        W37364   9.102   4.386  13.316  0.0551 -0.0244  0.0113
17085W        W37365   4.408   3.726  13.580 -0.2068 -0.0640 -0.2580
17086W        W37366  16.392  16.206  14.504  0.0070 -0.0849  0.0603
17087W        W37367   9.461  12.574   2.771 -0.1505  0.0885  0.1822
17088W        W37368   9.242   2.753  12.557  0.0375  0.0881  0.0093
17089W        W37369   8.173   3.072   0.450  0.0862 -0.0037 -0.0827
17090W        W37370   6.050   3.172  15.453 -0.1528  0.0267  0.2073
17091W        W37371   1.044  14.387  14.745  0.0998 -0.0769  0.1135
17092W        W37372   6.794   1.902   4.043  0.0867 -0.0161 -0.1509
17093W        W37373   8.356  10.738  10.689  0.1360  0.0104 -0.1755
17094W        W37374  13.644   2.619   1.839  0.1887  0.1349  0.0845
17095W        W37375  12.390  15.945  13.010  0.0068 -0.4515  0.0383
17096W        W37376   9.990   5.443  14.639 -0.1989  0.1837 -0.2162
17097W        W37377  15.583  12.395   0.995  0.4386  0.0967  0.0669
17098W        W37378   7.804  17.330   2.143  0.1585 -0.1122 -0.3167
17099W        W37379   4.103   8.540   1.778  0.1882 -0.0942  0.0830
17100W        W37380   0.797   8.496   4.867  0.1836  0.1436 -0.3399
17101W        W37381   8.470   2.595  15.004 -0.3991 -0.1076 -0.1370
17102W        W37382   2.726   9.574   0.306 -0.4610  0.1054 -0.0066
17103W        W37383   3.365  12.112   4.472  0.2494  0.3468 -0.0121
17104W        W37384  18.206   6.455  15.371 -0.3119  0.0426  0.0529
17105W        W37385  17.880  15.120   0.764 -0.2286  0.0247  0.4031
17106W        W37386   7.905   6.905   0.541  0.2270 -0.1833  0.0933
17107W        W37387  15.894  17.396  11.864 -0.1614 -0.3987  0.1957
17108W        W37388  10.185  11.737   4.146 -0.0694 -0.0492 -0.1265
17109W        W37389   1.320  15.586  11.393  0.2426  0.2983 -0.0390
17110W        W37390   5.441   9.714   0.857  0.1350  0.1657  0.3799
17111W        W37391   1.719   8.068   1.607  0.0549 -0.1453  0.1654
17112W        W37392   8.177   7.366   3.994 -0.0952 -0.0208 -0.0340
17113W        W37393   7.897  14.493  13.813 -0.0967  0.0599 -0.0396
17114W        W37394   0.258  17.693   2.932  0.1095 -0.1617  0.0431
17115W        W37395   5.784   6.032  15.226  0.2321 -0.2783 -0.0642
17116W        W37396  18.045   1.669  11.403  0.2558 -0.1430  0.1525
17117W        W37397  12.710   4.785  13.345 -0.0204  0.1084  0.1700
17118W        W37398  17.329  13.433  12.892 -0.0543 -0.0092  0.0223
17119W        W37399   8.491   5.924  12.394 -0.1172  0.1802  0.1023
17120W        W37400   4.355  13.126  14.913 -0.0199  0.3725  0.2966
17121W        W37401  13.375  11.842  11.778  0.1511  0.0197 -0.1618
17122W        W37402   6.886  11.545   3.070 -0.3869 -0.2015  0.1988
17123W        W37403  15.364   1.365   1.874 -0.0353 -0.0902  0.0038
17124W        W37404   9.479   7.574   3.531 -0.2124 -0.2226 -0.1674
17125W        W37405   6.803  10.731  14.189 -0.4130 -0.2352  0.0292
17126W        W37406   2.244  12.997   0.871  0.0154 -0.1064  0.2414
17127W        W37407  12.061   3.431  13.751  0.1857  0.2232  0.0714
17128W        W37408   5.681   9.858   4.430  0.3328  0.1389  0.1404
17129W        W37409   2.032   2.123  12.428  0.1765  0.3321  0.1544
17130W        W37410   7.374   9.340  15.132  0.1768  0.1044  0.1092
17131W        W37411   1.850  15.280  15.202 -0.0389 -0.0042 -0.1496
17132W        W37412  14.138   3.017   4.398 -0.0040 -0.3938  0.2144
17133W        W37413   0.729   9.002   1.011 -0.2100 -0.2315  0.0583
17134W        W37414  16.500   1.313  15.183  0.1523  0.3462 -0.2000
17135W        W37415  17.732   3.532   1.283 -0.0385  0.2012  0.0249
17136W        W37416  14.650   8.446  13.939  0.1307 -0.0587  0.1124
17137W        W37417   2.137  10.572   3.738 -0.0106 -0.1658 -0.1076
17138W        W37418  12.460   3.214  12.003  0.3169  0.1276  0.2014
17139W        W37419   8.389   3.839   0.051 -0.3377 -0.3499 -0.0380
17140W        W37420   8.882  11.671   2.404  0.0370  0.0319 -0.2437
17141W        W37421  14.858   2.055   2.941  0.1762 -0.1410 -0.0354
17142W        W37422  10.663   5.189  12.312 -0.1808  0.1840  0.0650
17143W        W37423   1.844  13.119  13.970  0.0644 -0.0964 -0.4264
17144W        W37424  12.779  15.635  13.257  0.0536  0.1655  0.0669
17145W        W37425   2.575  14.909   0.179  0.1479 -0.0343 -0.2961
17146W        W37426   8.874  15.884   4.504 -0.0453 -0.1157  0.1612
17147W        W37427   6.627   6.675  11.165  0.0940 -0.1402 -0.0736
17148W        W37428  17.651   1.935  11.742  0.2879  0.4062 -0.0641
17149W        W37429   1.079   6.082   0.892 -0.0913 -0.2282 -0.3221
17150W        W37430  11.335   9.310   1.348  0.2835 -0.1285 -0.1050
17151W        W37431  15.141   1.006  10.182  0.2505  0.0114  0.1475
17152W        W37432  15.094  17.932   4.303 -0.2238  0.2920  0.3062
17153W        W37433  15.729   2.328   2.197 -0.0150  0.0161  0.3502
17154W        W37434   8.059  16.244   2.915 -0.0441 -0.0667 -0.0050
17155W        W37435  16.075  16.829  12.919  0.3752  0.2804 -0.1719
17156W        W37436  10.948  17.777  15.097 -0.2225  0.0260  0.2559
17157W        W37437   0.282   2.276  15.195 -0.0750  0.1443 -0.0164
17158W        W37438   2.310   1.506   2.868  0.1702 -0.0218  0.2743
17159W        W37439   2.291   1.461  15.003 -0.2174  0.2641  0.0500
17160W        W37440  15.088  12.514   1.035  0.2488  0.2105 -0.1010
17161W        W37441  13.027   8.851   1.300  0.0215 -0.1067 -0.1391
17162W        W37442  14.071  13.880   1.305 -0.3481 -0.0839 -0.1659
17163W        W37443  15.937   3.825  13.909  0.0591 -0.0206 -0.0081
17164W        W37444   9.949   2.890  14.537  0.0987  0.2175 -0.1610
17165W        W37445   7.012   2.109   2.301 -0.1214 -0.0874  0.1541
17166W        W37446   0.532   5.919  14.173  0.1013 -0.1433  0.1580
17167W        W37447   7.806   7.496   2.208  0.0021  0.0248  0.1778
17168W        W37448  16.550  14.515  15.643  0.0914  0.0034  0.0855
17169W        W37449   4.078   6.737   3.569 -0.0212 -0.2045 -0.1462
17170W        W37450   1.644   7.931  12.369 -0.0892 -0.2553  0.0692
17171W        W37451   2.560   1.070  13.851  0.2578  0.0938 -0.1436
17172W        W37452   8.227  12.554   3.023  0.2133 -0.2596 -0.0244
17173W        W37453  14.953  14.908   0.890 -0.0447 -0.1875 -0.0857
17174W        W37454   7.874  16.708   1.390  0.2475 -0.0437 -0.1966
17175W        W37455  13.761  15.671   5.787  0.1522  0.0600 -0.2701
17176W        W37456   7.077   1.078  14.143  0.1017  0.0712  0.0386
17177W        W37457   6.193  13.776  14.569  0.1443  0.2944 -0.0630
17178W        W37458   7.170   6.051  14.806  0.0277  0.2570  0.0005
17179W        W37459  16.621   4.123   0.126 -0.0045 -0.1048  0.0353
17180W        W37460  11.838   0.320  12.668  0.0439 -0.2893  0.0766
17181W        W37461  12.940   0.704   2.440  0.1244  0.0956  0.1858
17182W        W37462  10.236  14.807   0.736 -0.0585 -0.0240  0.0964
17183W        W37463   7.270   7.267   0.650  0.0279  0.1248  0.2589
17184W        W37464   9.897  18.301  14.187  0.1125 -0.1429  0.4863
17185W        W37465  15.497   8.400  14.984 -0.0152 -0.0503 -0.2747
17186W        W37466   7.271  13.542   2.468  0.0775 -0.1133  0.2634
17187W        W37467  13.284  15.859   3.170  0.0117 -0.2196  0.0218
17188W        W37468   6.426  11.480  13.720 -0.1318 -0.0883 -0.1115
17189W        W37469   6.839   4.955  14.416 -0.1456 -0.1471  0.2011
17190W        W37470  12.927   3.096  15.428 -0.2792  0.1727  0.2329
17191W        W37471   1.773  10.156   1.957  0.3384  0.0005  0.1613
17192W        W37472  13.788  15.912   1.952  0.1020 -0.1202 -0.0322
17193W        W37473  10.179   3.201   2.130 -0.0509  0.3579  0.0209
17194W        W37474   7.249   9.855   1.198 -0.1432  0.1551 -0.1476
17195W        W37475  16.205  15.875   3.122  0.2224  0.2127 -0.2049
17196W        W37476  16.684  10.725  13.744  0.2892 -0.1145 -0.1889
17197W        W37477   1.149   9.900  13.369 -0.1401 -0.1064  0.3478
17198W        W37478  11.620  17.091   2.892  0.0661  0.0730 -0.2749
17199W        W37479   0.452  17.091  13.577  0.1103 -0.2283  0.1036
17200W        W37480   1.736   7.485   0.752 -0.2250  0.0313  0.0378
17201W        W37481   2.696  12.272  12.625  0.0312  0.1902  0.3038
17202W        W37482  11.505  17.707   4.406 -0.0283  0.2944  0.0115
17203W        W37483  18.335   3.303   3.532 -0.1224  0.3419  0.2142
17204W        W37484   3.501   4.154  13.367  0.1188  0.0799  0.1496
17205W        W37485   0.758   5.140   2.626 -0.2942  0.2687  0.2236
17206W        W37486   6.547  14.238  12.624  0.0641  0.1420 -0.0177
17207W        W37487  13.450   3.397   2.609  0.0447 -0.2306  0.0304
17208W        W37488   6.237  14.243   4.460  0.3579  0.1936  0.2299
17209W        W37489   9.358   4.332  13.745  0.1588  0.1542  0.1715
17210W        W37490  10.371   7.371   2.535  0.1583 -0.3761 -0.1565
17211W        W37491   9.918  14.782  11.901  0.0058  0.0259  0.3590
17212W        W37492   5.941  13.328   3.396  0.0591  0.0134 -0.2312
17213W        W37493  10.947   4.876   0.510  0.1894  0.0750  0.0711
17214W        W37494   0.512   7.978   2.575 -0.1847 -0.0179 -0.2355
17215W        W37495   7.060   3.812  11.586 -0.1795 -0.2416 -0.0666
17216W        W37496   0.815   6.400   4.973 -0.0019 -0.0208  0.0647
17217W        W37497  14.327  18.231  11.560  0.0829 -0.3357 -0.4997
17218W        W37498   1.549  17.328   3.762  0.3699 -0.3167 -0.0109
17219W        W37499   0.674   3.626  14.971  0.3021 -0.0853 -0.3567
17220W        W37500  14.611   4.600   3.876  0.1412 -0.0646 -0.3570
17221W        W37501  16.717   4.324  11.599 -0.2690  0.3413 -0.1477
17222W        W37502   6.929  17.324  12.097  0.2886  0.1535  0.0551
17223W        W37503  13.607  17.564  14.660  0.1637  0.1919  0.2918
17224W        W37504   2.536   8.462   1.929  0.1115  0.0410  0.1310
17225W        W37505   0.482   6.537   3.766 -0.2977  0.1549 -0.1619
17226W        W37506  17.383   1.429   1.836  0.0188  0.2467 -0.0577
17227W        W37507   8.577   1.927   2.813  0.0597  0.2427  0.0636
17228W        W37508   9.034  14.734   0.967  0.0400 -0.1590 -0.0285
17229W        W37509   6.416  17.374  12.326 -0.1628 -0.0593 -0.0355
17230W        W37510   1.202  12.471   1.864 -0.0969  0.0502  0.1024
17231W        W37511  15.762   3.103   4.689  0.2662  0.2154  0.0188
17232W        W37512   0.342   8.964   0.710  0.2070  0.0491 -0.3021
17233W        W37513   5.715   0.347   2.688 -0.0729  0.0562 -0.0923
17234W        W37514   6.036  12.945  13.995  0.0102  0.2747 -0.3013
17235W        W37515   8.417  15.624  11.309 -0.1062 -0.1051  0.1502
17236W        W37516   8.033  12.752  14.040  0.1273  0.1717 -0.0595
17237W        W37517  16.571  11.344   2.371  0.0756  0.0000  0.3080
17238W        W37518  13.507   3.333   0.128  0.1972  0.0270  0.0324
17239W        W37519  10.841  10.210   5.828  0.1253 -0.2817 -0.2072
17240W        W37520  10.556   4.580   2.287  0.2864 -0.1198 -0.2287
17241W        W37521  10.716  10.183  12.413 -0.1516  0.1841 -0.2272
17242W        W37522   9.495   0.016   1.899  0.0122 -0.3236 -0.0581
17243W        W37523   4.188   5.981   0.274  0.0266  0.0109  0.2513
17244W        W37524   0.671   5.145   0.477  0.1321 -0.5185 -0.3162
17245W        W37525  14.563   0.386   3.634  0.1582 -0.0479  0.0978
17246W        W37526  14.562   0.807   3.892 -0.0225 -0.2659 -0.1980
17247W        W37527  17.788   9.231  15.596 -0.1691 -0.2771  0.1186
17248W        W37528   9.636  11.474   3.354 -0.2700  0.2789 -0.2125
17249W        W37529   6.299  14.452  13.638  0.0195  0.3961  0.0437
17250W        W37530   6.085  16.221  11.552 -0.2446  0.1557 -0.0092
17251W        W37531  15.760  12.094   3.464  0.1944 -0.0017 -0.1390
17252W        W37532  13.225  10.453  15.006 -0.0751  0.5653 -0.3821
17253W        W37533  13.370   0.242  11.685  0.1029  0.1882 -0.0289
17254W        W37534   2.470   6.142   2.720 -0.0373 -0.0877 -0.2864
17255W        W37535  13.645   8.960  13.916 -0.1138  0.2925  0.0040
17256W        W37536   8.281  10.550  13.974 -0.0668 -0.0882 -0.2798
17257W        W37537  12.012  13.558  14.796 -0.2541  0.1067  0.2795
17258W        W37538  17.106   2.698  14.998  0.0269 -0.0716  0.0750
17259W        W37539  17.126  11.827   2.937  0.0743 -0.3282  0.0786
17260W        W37540  17.058   6.315   0.326  0.0874 -0.1164  0.1343
17261W        W37541   4.691   2.480   4.297  0.3105 -0.0560 -0.2620
17262W        W37542   2.010   2.680  14.785 -0.3328 -0.3666 -0.1493
17263W        W37543  16.975  17.979  13.033  0.0223  0.0541  0.0887
17264W        W37544  15.126   4.199   4.267  0.0068 -0.0916  0.0996
17265W        W37545   0.326  12.904   1.558 -0.2439 -0.0778 -0.2677
17266W        W37546   8.390   4.029   5.067  0.1421  0.0654  0.1043
17267W        W37547  12.226   5.551  12.211 -0.0027  0.0506 -0.2193
17268W        W37548  16.224   0.709   3.615  0.1219 -0.0205 -0.1283
17269W        W37549  13.234  15.318   0.558 -0.1234 -0.0375  0.1035
17270W        W37550  17.391   2.818  12.114 -0.0041 -0.2192  0.1851
17271W        W37551   9.936   0.550  15.821  0.2085 -0.0665 -0.1252
17272W        W37552   7.247  12.293  14.179  0.3772  0.0005 -0.1207
17273W        W37553   0.802   3.540  13.217 -0.1458  0.1466 -0.0255
17274W        W37554  11.634  16.799   1.024  0.1888 -0.0431 -0.1722
17275W        W37555   9.992  15.229  13.450 -0.1091 -0.0853  0.2135
17276W        W37556  15.523  17.375   1.763  0.2341  0.0769 -0.1524
17277W        W37557   8.149   0.626  11.035 -0.2063 -0.1164  0.0616
17278W        W37558  16.749  16.696   3.565 -0.2019  0.0035 -0.0711
17279W        W37559  12.219  13.833  12.065 -0.1806  0.0642 -0.1119
17280W        W37560  11.530   9.085  15.214  0.0785  0.0112 -0.1016
17281W        W37561   6.419   6.772   3.901  0.2715  0.0766 -0.0397
17282W        W37562   5.405   7.029   5.393 -0.2694 -0.2084  0.2028
17283W        W37563   7.359  12.560  13.376  0.2066 -0.0480  0.3213
17284W        W37564   9.608   5.801  14.800  0.0172 -0.1589  0.0216
17285W        W37565  10.029   2.013  15.485 -0.2817 -0.2590 -0.2588
17286W        W37566  10.137   3.049  11.796 -0.1967  0.2084 -0.0007
17287W        W37567  12.869   1.710   3.209 -0.1281  0.1083 -0.0925
17288W        W37568   1.873   2.033   2.429 -0.1213  0.0458 -0.1852
17289W        W37569   7.104   1.202  11.331 -0.0605 -0.2483 -0.0976
17290W        W37570  17.777   4.043   1.259 -0.1844  0.0477 -0.2201
17291W        W37571  10.559   6.546   2.515  0.2474  0.1519  0.0627
17292W        W37572  11.727   8.334   1.144 -0.4888 -0.2632 -0.3511
17293W        W37573  14.094   8.106   0.128 -0.0010  0.1274  0.0969
17294W        W37574   0.875  10.076   3.519 -0.1669  0.1720 -0.1737
17295W        W37575   9.917   4.263   0.340  0.0823  0.3639 -0.0631
17296W        W37576   1.137  10.527  12.623  0.3531  0.3105  0.0457
17297W        W37577  11.787  11.092  12.768 -0.1558  0.0772 -0.2879
17298W        W37578   5.777   7.350  13.996  0.4256 -0.0612  0.1061
17299W        W37579   5.962  11.940  15.023  0.0746  0.0583  0.3198
17300W        W37580  17.453   6.705  12.138 -0.2080  0.0256  0.2342
17301W        W37581  16.790  13.311   2.830  0.1607 -0.1620  0.0404
17302W        W37582  15.629   1.912  14.073  0.1392 -0.0385  0.1085
17303W        W37583  11.425  12.896   4.269  0.3980 -0.2653  0.1146
17304W        W37584   8.482  13.773   4.360 -0.2660 -0.1533 -0.0945
17305W        W37585   0.626   9.231   3.974  0.0777 -0.2099 -0.1668
17306W        W37586   3.703  14.109  14.426  0.0414  0.0439  0.0774
17307W        W37587   6.306   8.997  13.005 -0.2691 -0.1495 -0.0060
17308W        W37588   0.938   0.470  13.871  0.0989 -0.0542  0.2831
17309W        W37589   6.282   3.615  12.286 -0.0287  0.2361 -0.1973
17310W        W37590  12.157  16.707   1.753  0.0417 -0.2296 -0.1996
17311W        W37591   4.744   4.810  14.699  0.2995 -0.1400  0.0174
17312W        W37592   0.011   9.502   4.441 -0.2803 -0.0042  0.0510
17313W        W37593   5.098  11.637   0.468  0.1815 -0.1536 -0.0056
17314W        W37594   5.089  14.114  15.575 -0.0518 -0.0922  0.1910
17315W        W37595   9.901   8.860   1.537  0.1586  0.0970 -0.0849
17316W        W37596   7.021   1.582  11.697  0.2046  0.1071  0.0063
17317W        W37597   4.481   9.843   4.467 -0.1995 -0.2299 -0.0296
17318W        W37598  16.644  10.909  12.050  0.1340  0.4602  0.3409
17319W        W37599   0.319   1.089   3.986  0.2118  0.2573  0.1557
17320W        W37600  17.927   0.826   0.686 -0.0564  0.0782 -0.1397
17321W        W37601  14.405   0.637  12.345  0.0281  0.1632 -0.0672
17322W        W37602   6.920  15.021  12.376  0.1831  0.2113  0.0129
17323W        W37603  17.024  10.001   3.095 -0.1184  0.1372  0.0782
17324W        W37604   3.361  14.016   3.667  0.1150 -0.0236 -0.0902
17325W        W37605  15.033   3.679  11.447  0.0837 -0.0579  0.1394
17326W        W37606  11.314   2.094  14.655 -0.1576 -0.0641 -0.1173
17327W        W37607  11.985  14.924   2.810 -0.1453  0.0047 -0.3645
17328W        W37608  10.914   2.783  12.281  0.0330 -0.0083 -0.2377
17329W        W37609   1.834   2.633  14.338 -0.0199  0.0791  0.0485
17330W        W37610   3.496   9.549  11.837  0.1202 -0.0858  0.1066
17331W        W37611   4.505   1.992  14.321 -0.2826 -0.0726  0.0374
17332W        W37612  13.057   8.296  12.082  0.1371 -0.2499 -0.1450
17333W        W37613  11.360  10.719  11.527 -0.0338  0.0825 -0.1133
17334W        W37614   1.136  16.634   4.307  0.1303 -0.0512 -0.1291
17335W        W37615   5.896  17.800   3.637 -0.2272 -0.3027 -0.0081
17336W        W37616  15.360   9.958  14.303  0.2104  0.0382  0.0168
17337W        W37617  12.951  11.340   0.880 -0.0092 -0.2052  0.0615
17338W        W37618  13.483  10.684  11.219 -0.4450 -0.0435  0.1043
17339W        W37619   3.018   9.213  15.612  0.1393  0.0650 -0.0158
17340W        W37620  14.609   9.114   3.542  0.0384 -0.0967 -0.1814
17341W        W37621  12.477   0.063  11.583 -0.0822 -0.1241  0.1465
17342W        W37622  10.589  13.564   3.304  0.0547 -0.2213  0.2143
17343W        W37623   7.209  10.557   2.686  0.1539 -0.0387 -0.0711
17344W        W37624   0.305  16.192   2.946  0.1518 -0.5369  0.0683
17345W        W37625   2.973  14.722  12.861 -0.1972  0.2281 -0.0420
17346W        W37626   6.809   2.666   3.709  0.3439  0.2383  0.1502
17347W        W37627   7.288  16.074  15.898 -0.1549  0.1167  0.0844
17348W        W37628  16.709  11.443  14.195 -0.0098 -0.1301  0.2860
17349W        W37629   4.044   2.184  14.120 -0.1028 -0.4857  0.1957
17350W        W37630   9.681  11.394  12.074 -0.1540  0.0849  0.1864
17351W        W37631   0.977  17.983  13.316  0.0704  0.1729  0.2782
17352W        W37632  11.746  10.463   2.161  0.1494 -0.2307  0.0039
17353W        W37633   0.737  16.115  15.392 -0.0326  0.0967  0.0661
17354W        W37634  14.448   6.770   0.197 -0.0508  0.1533 -0.1216
17355W        W37635   2.951   0.092  14.931  0.0966 -0.1825  0.3432
17356W        W37636  14.090   6.929   2.948 -0.1334 -0.0256 -0.3145
17357W        W37637   3.111  16.339  11.486  0.1906 -0.2712  0.2723
17358W        W37638   5.800   6.117  12.600 -0.2777  0.0159  0.0699
17359W        W37639   2.954   7.941  14.851 -0.2385 -0.1082 -0.2279
17360W        W37640   5.911   3.217   0.432 -0.1039 -0.2031 -0.2870
17361W        W37641  16.458  11.162  12.824 -0.0608  0.0018  0.2597
17362W        W37642  13.162  15.840   2.378  0.2379 -0.1132  0.2107
17363W        W37643  14.207  12.015  14.678  0.2350  0.1254 -0.0004
17364W        W37644  14.184  13.215   0.754 -0.0129 -0.0637 -0.3355
17365W        W37645  12.659   6.418  12.552  0.3018 -0.0659  0.3037
17366W        W37646   8.527   0.892   1.123  0.0561  0.2334  0.1117
17367W        W37647   1.340   0.857  11.305  0.0314  0.3935  0.1414
17368W        W37648  10.293   4.310  11.794 -0.0857 -0.0838  0.0244
17369W        W37649   2.447  12.470  13.917  0.3195 -0.2163 -0.0810
17370W        W37650  15.256  11.318   0.195 -0.1092 -0.0194  0.0961
17371W        W37651  14.021  16.204  11.804  0.1523 -0.2991 -0.2835
17372W        W37652  15.426   3.957  11.637  0.0110 -0.0736  0.2294
17373W        W37653  15.210  13.928   2.030  0.1640  0.0524 -0.0744
17374W        W37654   1.711   6.478   0.121 -0.3522  0.0970 -0.0185
17375W        W37655   9.402   8.911  11.828 -0.0005  0.0802  0.3549
17376W        W37656   2.737  13.380   3.453 -0.3407 -0.0686 -0.1114
17377W        W37657   3.952   2.928  11.689  0.0329 -0.0193 -0.0047
17378W        W37658   4.473   6.243  13.768 -0.1284  0.1484 -0.0712
17379W        W37659   0.997   7.562  12.941  0.1550  0.2598  0.1303
17380W        W37660  16.700  16.581  14.321 -0.0970  0.3932  0.0279
17381W        W37661  12.815   0.965  14.822 -0.1359  0.1263  0.0997
17382W        W37662  13.984   9.232  15.649  0.1046  0.0496 -0.0046
17383W        W37663   3.803   9.574  13.362  0.3297 -0.2525  0.2720
17384W        W37664  13.435   1.715   1.643  0.0855 -0.1911 -0.3009
17385W        W37665   1.864   3.337  12.809 -0.1318 -0.2766  0.0270
17386W        W37666   1.103  17.862   1.690 -0.1125  0.1296 -0.3294
17387W        W37667   8.768  13.335  13.681  0.1204  0.0568 -0.0994
17388W        W37668   1.832  12.460  10.917 -0.3623  0.2097 -0.1208
17389W        W37669   0.792   4.736   2.218  0.1522 -0.3368 -0.1468
17390W        W37670   8.918   4.538  12.108 -0.0400  0.2301  0.0365
17391W        W37671  11.292   2.654  14.603  0.0793 -0.0411  0.0774
17392W        W37672   8.390  17.000  12.565  0.0483 -0.1334 -0.0647
17393W        W37673   6.333   7.562   0.337  0.0534 -0.1622 -0.0633
17394W        W37674   9.691   7.568   1.887  0.0552 -0.0166 -0.2572
17395W        W37675  12.884   7.957   0.809 -0.0045  0.1985  0.0975
17396W        W37676  15.559  16.652  12.825 -0.0720  0.2237 -0.1134
17397W        W37677   2.004  10.122  12.854 -0.3774  0.1817 -0.2053
17398W        W37678   6.811   3.388  15.156 -0.1867  0.0386 -0.1455
17399W        W37679  15.103   5.305   1.201  0.0626 -0.1996  0.1133
17400W        W37680  14.106   5.296   2.375  0.0924  0.1739 -0.1268
17401W        W37681  14.678   4.417  13.986 -0.2290 -0.0851  0.2542
17402W        W37682   3.447   4.086   1.321 -0.0467  0.0787 -0.0694
17403W        W37683   0.358  17.387  11.536  0.0583 -0.2718 -0.1689
17404W        W37684  12.259  17.970  12.990 -0.0894 -0.1355  0.0465
17405W        W37685  13.258   7.197  15.670 -0.0625  0.2509  0.1059
17406W        W37686   8.833   8.314  12.591 -0.1262  0.2333 -0.2010
17407W        W37687   0.463   3.859  14.045  0.0389  0.2180  0.0380
17408W        W37688   4.063   0.034   0.528  0.2633  0.0737 -0.5026
17409W        W37689  12.881  13.183   3.512  0.1522  0.2566 -0.0752
17410W        W37690   9.535  12.460  12.131  0.1209 -0.0363  0.0692
17411W        W37691   0.871  17.435   3.673  0.0949  0.1626  0.1951
17412W        W37692   5.222   4.310  11.468 -0.0570  0.0751  0.1913
17413W        W37693  17.604   8.029   2.448 -0.1832  0.1305  0.3504
17414W        W37694   0.834   5.410  14.985 -0.6281 -0.1010  0.2428
17415W        W37695  12.283  17.096  13.363 -0.0711  0.0082 -0.1109
17416W        W37696  11.610   0.245   3.018  0.2119  0.0712 -0.1895
17417W        W37697   1.671  12.735   1.922  0.1148 -0.0051  0.1107
17418W        W37698  11.975   7.984   0.899 -0.0312  0.0265 -0.1832
17419W        W37699   5.551  18.151   2.055 -0.0632  0.0990  0.2282
17420W        W37700  11.791   7.712   3.895  0.1995 -0.1112 -0.1726
17421W        W37701  10.235   9.564   2.974  0.0433 -0.0763 -0.1862
17422W        W37702  16.344  16.463   1.791  0.0270  0.0198  0.0719
17423W        W37703  14.576  12.598  12.508  0.5063  0.0082  0.1438
17424W        W37704  17.906   6.598   3.296  0.0915 -0.2049 -0.3509
17425W        W37705  10.504  15.536   4.432  0.1221  0.2289 -0.0320
17426W        W37706  17.273   7.571   1.178 -0.1251 -0.2296  0.1611
17427W        W37707  11.805  16.906  13.172  0.2935  0.0413 -0.1450
17428W        W37708   5.854  14.860   3.819 -0.0333  0.0820 -0.1301
17429W        W37709  11.090  13.023  15.415 -0.0122 -0.2541  0.0101
17430W        W37710  10.077  12.072   0.400  0.1219 -0.0151  0.2483
17431W        W37711  13.357   5.041   1.042 -0.1443 -0.2938 -0.2388
17432W        W37712   3.017  10.961   1.828 -0.1257  0.1374  0.0198
17433W        W37713   5.029   0.156   0.458  0.3798  0.0057  0.0066
17434W        W37714  10.198  12.059  11.611  0.2899 -0.2392  0.0930
17435W        W37715  16.483   8.221   1.056  0.0985 -0.1351 -0.0218
17436W        W37716  16.363  14.755   3.225  0.2052  0.2041 -0.0043
17437W        W37717   2.989   9.135  14.100 -0.1447  0.1306 -0.1174
17438W        W37718   9.500  14.507   4.171  0.2138 -0.4439  0.2400
17439W        W37719  10.692   4.526   3.135 -0.1186 -0.2022  0.3156
17440W        W37720   3.599  17.107   1.247 -0.2098 -0.2809 -0.4986
17441W        W37721  12.547   2.151   3.988  0.1284  0.3959  0.0295
17442W        W37722   0.828  16.030   1.921  0.0331 -0.2704  0.0700
17443W        W37723  11.073   6.521  11.943 -0.0170 -0.0462 -0.0856
17444W        W37724   9.365  10.098   3.976 -0.0952  0.0043 -0.1860
17445W        W37725  11.541  14.194  13.267 -0.1200 -0.0496 -0.0396
17446W        W37726  11.118   2.237  14.131  0.1292  0.1469 -0.0765
17447W        W37727   4.221   2.519  14.925 -0.0745  0.0229  0.1430
17448W        W37728  15.280   6.903   0.156  0.2298 -0.0395 -0.0255
17449W        W37729   6.492   0.712   2.109 -0.0255 -0.0732  0.2035
17450W        W37730  12.659   3.664   3.352  0.1075  0.0612  0.1698
17451W        W37731   2.789   1.382   2.958  0.1062  0.2820 -0.1663
17452W        W37732  17.634  12.657   1.713 -0.0518 -0.1738 -0.2204
17453W        W37733   3.748  15.827  14.505 -0.1392 -0.0408  0.1679
17454W        W37734   5.342   5.692  11.858  0.0945 -0.0682  0.2280
17455W        W37735  13.677   3.785  11.714 -0.0642 -0.0333 -0.2232
17456W        W37736  15.605   7.062  15.342 -0.0647 -0.1811 -0.0193
17457W        W37737  10.352  14.027   2.542  0.1452  0.0674 -0.2430
17458W        W37738   8.558   7.071  15.903 -0.3297 -0.0133 -0.2051
17459W        W37739   3.310   5.705  12.527 -0.1942  0.2353 -0.0502
17460W        W37740   7.365   1.733   3.145  0.3720  0.2543 -0.3150
17461W        W37741  10.614  15.207  14.288 -0.3003  0.0960  0.2254
17462W        W37742  13.932   5.204   2.935 -0.1288 -0.1914  0.2183
17463W        W37743  17.516  14.187  14.441  0.0729 -0.0871 -0.1087
17464W        W37744  13.054  10.194   2.171 -0.1515  0.1382  0.1321
17465W        W37745  16.721   8.619  15.655  0.1595 -0.1151 -0.1151
17466W        W37746  10.818  13.997  14.328  0.0513 -0.1131  0.4102
17467W        W37747   9.699   6.460  15.258 -0.3445  0.3079 -0.4752
17468W        W37748  12.921  15.178  13.959 -0.3638  0.1594  0.3456
17469W        W37749   1.223   6.819  13.572  0.1629  0.1354  0.2522
17470W        W37750  16.074  11.178   1.312 -0.3493 -0.1320  0.2006
17471W        W37751   0.958   0.033   3.497  0.0329  0.2736  0.0224
17472W        W37752   1.188   7.091   3.569  0.2201  0.0190 -0.0210
17473W        W37753  16.438   8.865   2.906 -0.3340 -0.1165 -0.0770
17474W        W37754  15.705  11.059   0.968 -0.3116 -0.2120 -0.2225
17475W        W37755  17.102   6.909  11.811 -0.1197  0.4207  0.1152
17476W        W37756  10.130  17.031  14.455  0.1263  0.1021  0.0726
17477W        W37757  15.718  14.451   0.822  0.1317 -0.0643 -0.2824
17478W        W37758  11.641   1.481   2.645  0.0412  0.2594 -0.1165
17479W        W37759   7.258  10.236   0.669  0.0922  0.3911 -0.1170
17480W        W37760   8.904  16.251  13.646 -0.0030  0.1253 -0.4594
17481W        W37761  11.244   2.922   4.584 -0.3283 -0.0576 -0.0718
17482W        W37762  12.711   6.962   4.698 -0.0097 -0.0734 -0.0303
17483W        W37763  13.796  17.528  15.604 -0.3133 -0.0193  0.3239
17484W        W37764   4.003   3.699   4.162 -0.7292 -0.0431 -0.0768
17485W        W37765   2.841   1.233  14.267 -0.0039 -0.1640 -0.2211
17486W        W37766  12.668  18.332  14.119  0.0207  0.0467  0.2461
17487W        W37767  16.517   5.053  12.111  0.3540  0.3121  0.0777
17488W        W37768   4.871  11.101   0.652 -0.2479  0.2402  0.1755
17489W        W37769  15.576   5.289   2.061  0.4361 -0.1119 -0.0187
17490W        W37770   1.440  16.984  14.986  0.0485 -0.1706 -0.2492
17491W        W37771   8.338   9.968   3.912  0.1290 -0.1882  0.0744
17492W        W37772   8.323   2.224  14.553 -0.1426  0.0437  0.0239
17493W        W37773   1.741   0.621  14.090  0.0840  0.0654 -0.1843
17494W        W37774   2.322  13.615  14.807  0.1735 -0.0333 -0.0565
17495W        W37775   5.959  14.188  14.453 -0.3042  0.2976  0.0530
17496W        W37776  17.426   6.475   2.776 -0.4513  0.0318 -0.2834
17497W        W37777   9.373  13.910   0.618  0.0538 -0.2861  0.0132
17498W        W37778   9.541   1.758   2.779  0.1810 -0.1545 -0.0841
17499W        W37779   7.459  17.004  11.655  0.1801 -0.0475  0.0340
17500W        W37780  11.135  18.311  11.398  0.0798 -0.3687  0.2560
17501W        W37781  18.125   1.900   4.442 -0.2851 -0.2599 -0.0922
17502W        W37782  16.620  18.170  10.271  0.2167  0.1391  0.0854
17503W        W37783  13.872  17.467  15.060 -0.1079 -0.1573  0.0288
17504W        W37784  14.525  13.944  12.746  0.0907  0.1914  0.0686
17505W        W37785   4.377  11.912   0.552 -0.5943  0.2090 -0.1996
17506W        W37786   2.556   6.050   4.112  0.1508 -0.2069 -0.0798
17507W        W37787   9.808   2.777  11.429  0.0520 -0.1075  0.0889
17508W        W37788   7.376   6.689  13.049 -0.3042  0.1009 -0.3514
17509W        W37789   1.797  15.397  14.721 -0.0237 -0.0565 -0.0556
17510W        W37790  10.864   1.024   0.182  0.2661 -0.2114 -0.3934
17511W        W37791   8.806   1.908   3.738 -0.0406  0.1906 -0.2243
17512W        W37792  15.133   4.343  14.192 -0.1420  0.3278  0.5322
17513W        W37793   1.980   4.459  13.803 -0.3235  0.2640  0.1641
17514W        W37794  14.174   0.545   4.022  0.0663  0.0181 -0.0651
17515W        W37795  11.156   7.644  11.595 -0.0844 -0.1068  0.1266
17516W        W37796  15.235  11.277   1.128  0.0614 -0.0688 -0.1363
17517W        W37797  17.439   9.834  13.519  0.1221  0.0268  0.2387
17518W        W37798  14.202   1.652   0.712  0.0374 -0.1088  0.1403
17519W        W37799   7.261   0.431   0.690  0.0994 -0.3017  0.1783
17520W        W37800  13.098  10.843  10.342 -0.5012  0.2728 -0.0946
17521W        W37801  11.740   7.982  14.531 -0.0910  0.0218 -0.1920
17522W        W37802   0.664   2.885   5.086 -0.0528 -0.1081  0.0470
17523W        W37803   0.540  13.316   1.748  0.0543  0.0890 -0.1761
17524W        W37804   0.070  15.229  13.973 -0.0178  0.1999 -0.1160
17525W        W37805   2.349  15.827  15.714  0.2058  0.0270  0.1978
17526W        W37806   2.050   8.990   1.297  0.0416  0.0557  0.1518
17527W        W37807  12.799   1.183   0.023  0.1415  0.0599  0.2726
17528W        W37808  13.732  14.294   3.949 -0.0511 -0.0481  0.0807
17529W        W37809   6.595  14.856  13.802  0.1923 -0.3468  0.1159
17530W        W37810  11.433   6.955   1.642  0.1273 -0.2043  0.1994
17531W        W37811   3.346  17.880   2.738  0.1129 -0.2572 -0.1983
17532W        W37812   4.648   3.262  13.764  0.1063 -0.0647 -0.0890
17533W        W37813  12.786  16.167   2.328  0.0565 -0.1719  0.1389
17534W        W37814   6.042   9.463   4.194 -0.0920  0.1427 -0.0809
17535W        W37815  18.012   5.199   3.933  0.0331 -0.1117  0.2108
17536W        W37816  14.535  13.139   1.210 -0.0104  0.1741 -0.0745
17537W        W37817   7.153  11.930  15.835 -0.1839 -0.0369 -0.1202
17538W        W37818   4.563   1.228   3.543  0.1615 -0.0855  0.0118
17539W        W37819   9.832   7.750  11.970  0.0227 -0.0672  0.0463
17540W        W37820  13.051   6.155  13.801  0.0910  0.1340  0.2539
17541W        W37821   5.732   0.395   0.345 -0.2346 -0.1509  0.2499
17542W        W37822   6.969   2.394  12.236 -0.2849  0.0823 -0.2012
17543W        W37823   6.697  12.594   4.575 -0.1091 -0.0122 -0.2305
17544W        W37824   0.040  13.632   2.727 -0.0033  0.2459 -0.0695
17545W        W37825  14.059   0.430  15.502  0.2040 -0.2022  0.0594
17546W        W37826   1.953   1.315  14.675  0.0646  0.1531  0.2216
17547W        W37827   0.991   5.914  14.504  0.0425 -0.2683  0.1278
17548W        W37828   4.977  10.591  14.669  0.1199 -0.1908 -0.0725
17549W        W37829  14.156   1.794  12.180  0.1231 -0.4828 -0.2428
17550W        W37830  15.586  10.153  15.310  0.0336  0.2036  0.2694
17551W        W37831   6.078   2.152  11.473  0.0685  0.1310 -0.0236
17552W        W37832  16.645   1.938  15.034 -0.3464  0.1014 -0.2822
17553W        W37833   2.565   8.992  11.956  0.0128 -0.1582 -0.1216
17554W        W37834  10.400   4.410   1.787  0.0140 -0.2401  0.1412
17555W        W37835  13.979  17.018  12.069  0.1137 -0.2447  0.0009
17556W        W37836   1.888  16.956  15.759 -0.2978 -0.0759  0.2865
17557W        W37837   9.046  16.100   3.506 -0.0438  0.1013  0.1025
17558W        W37838   2.516  15.229   3.704  0.0981  0.1935  0.1497
17559W        W37839  13.593  10.155   3.863 -0.1626  0.0557 -0.0526
17560W        W37840  10.125   8.073   1.191 -0.1819 -0.1041 -0.1812
17561W        W37841  18.156   1.630   2.069  0.2438 -0.1733  0.1533
17562W        W37842  15.105  16.545   2.928 -0.2144 -0.2245 -0.1308
17563W        W37843  10.927  14.614   4.284 -0.2894 -0.0623 -0.0898
17564W        W37844  10.091  10.759  12.633 -0.0759  0.1744 -0.1437
17565W        W37845  12.254  16.725   0.091 -0.0432 -0.3548  0.4336
17566W        W37846   1.391  17.053  13.093  0.0194 -0.1324  0.1154
17567W        W37847   9.302   5.394   4.505 -0.2827  0.1824 -0.0043
17568W        W37848  11.960  14.743  12.740  0.3305 -0.1191 -0.0580
17569W        W37849   2.921   6.813   3.313  0.2438  0.3679 -0.1246
17570W        W37850   6.412   0.299   3.877  0.0031 -0.1690 -0.2071
17571W        W37851   9.902  10.048   1.706 -0.0583  0.0876  0.1203
17572W        W37852   3.621   9.024   1.454  0.1184  0.0251 -0.1004
17573W        W37853  14.988   3.966  15.516  0.2500  0.1460  0.0058
17574W        W37854   4.160   2.531   1.284  0.1438  0.0357  0.1989
17575W        W37855  12.164   4.968   0.153 -0.0529  0.1215  0.0431
17576W        W37856   4.194   3.294  13.477  0.0474 -0.1944  0.0163
17577W        W37857   7.707  13.645  11.491 -0.0071  0.0944  0.1806
17578W        W37858  10.801   3.579  15.777  0.1954  0.2761  0.1057
17579W        W37859  15.038  16.757  12.868 -0.0076  0.2623  0.0128
17580W        W37860   2.319   1.766  11.792  0.1872 -0.2707  0.0433
17581W        W37861  17.057  15.522  15.205  0.0012 -0.3480  0.3487
17582W        W37862   5.033  12.960   2.281 -0.0985 -0.0888  0.2635
17583W        W37863  15.318   9.975   2.550 -0.2457 -0.4416 -0.3950
17584W        W37864  18.166   7.191   4.392  0.2549  0.0614 -0.2327
17585W        W37865   3.124  12.366   2.266 -0.1441 -0.0257 -0.2312
17586W        W37866   1.597  13.426   1.766  0.1645  0.0650 -0.0008
17587W        W37867  16.787   0.092   4.089  0.3046 -0.0890  0.1765
17588W        W37868   4.188   4.763   3.698 -0.1071 -0.1716  0.3270
17589W        W37869   3.459  16.863  12.421  0.0004 -0.0736  0.0939
17590W        W37870   0.304  11.754   3.872 -0.0843 -0.1964  0.1884
17591W        W37871   4.960  11.461  13.521  0.1973 -0.2526  0.0195
17592W        W37872   2.642   6.481   0.734  0.2604  0.0566  0.0186
17593W        W37873   9.151   6.197   0.800  0.0965 -0.4540  0.0088
17594W        W37874  11.327  17.551  15.393 -0.0099  0.4199  0.0521
17595W        W37875  15.729  14.220  13.287  0.1140  0.1041  0.0443
17596W        W37876   2.947   2.299   0.144 -0.0659  0.2269 -0.1604
17597W        W37877   0.759   7.205   3.102 -0.0452 -0.0452  0.0423
17598W        W37878  17.285   8.765   3.114 -0.1153  0.2637  0.1545
17599W        W37879  12.630   9.275   3.295 -0.1859  0.3218 -0.4490
17600W        W37880  16.446  12.820  15.900 -0.1061  0.0880  0.1223
17601W        W37881  13.417   4.290  13.722  0.0065  0.0360 -0.2978
17602W        W37882  11.772   4.994   1.061 -0.2969 -0.0404  0.0037
17603W        W37883  15.257  11.800  11.641 -0.3118 -0.1134 -0.0156
17604W        W37884  11.794   1.588   2.164  0.0537 -0.0380  0.1309
17605W        W37885  12.374  13.894  12.933  0.0021  0.1452 -0.1687
17606W        W37886   3.491  12.751  14.619  0.0733 -0.1769 -0.0885
17607W        W37887   2.168  12.872  14.226  0.1553 -0.3829  0.1812
17608W        W37888  14.052   3.043  13.597 -0.0916  0.0098 -0.0661
17609W        W37889  12.170   5.772   4.603  0.0782  0.3928  0.2328
17610W        W37890   2.898   6.665  12.778  0.0033 -0.1584 -0.0697
17611W        W37891  16.498   2.100   0.009  0.1298 -0.3900 -0.1934
17612W        W37892   7.954   3.925   2.289 -0.1149  0.1002  0.1441
17613W        W37893   8.604   1.961   1.357  0.3203  0.0106 -0.0829
17614W        W37894   3.551   7.889   3.284 -0.0239 -0.0410  0.2153
17615W        W37895  16.078   9.797   0.306  0.1252 -0.0402 -0.1499
17616W        W37896  18.262  10.889  13.408 -0.2430 -0.0625 -0.0116
17617W        W37897   1.526  10.663  13.519 -0.1708 -0.0184  0.0171
17618W        W37898  14.633  17.338   3.696  0.0743  0.0856  0.1264
17619W        W37899   9.596  11.105  12.512  0.0128  0.2582  0.5255
17620W        W37900   4.650   7.238  15.602  0.0974 -0.2658  0.1855
17621W        W37901   7.581   9.379  12.484  0.1219  0.1912 -0.1457
17622W        W37902  12.878   5.661   1.486  0.3188 -0.0305  0.3389
17623W        W37903  16.078   4.450   4.357  0.0225  0.2209  0.1205
17624W        W37904   6.209  10.936  13.453 -0.0625 -0.1281  0.1466
17625W        W37905  15.986  12.943  11.362  0.4059  0.2037 -0.0168
17626W        W37906  15.431  10.349   3.554 -0.1655 -0.0885  0.0552
17627W        W37907  13.349  10.474  14.459 -0.0552 -0.0767  0.0866
17628W        W37908  17.151   9.917  15.184  0.1911 -0.3148  0.1238
17629W        W37909   3.685   7.498   0.369 -0.0911 -0.1735  0.0219
17630W        W37910   4.531   2.681   1.578 -0.3100 -0.2591 -0.0726
17631W        W37911   3.550   8.323  10.543  0.1299  0.2751 -0.0359
17632W        W37912   1.804   0.335   3.921  0.0388  0.1856  0.1824
17633W        W37913   3.338   9.791   0.934 -0.0846  0.0321 -0.3357
17634W        W37914   8.312   3.861  12.968 -0.0177  0.0204 -0.0335
17635W        W37915  15.489  10.677   1.151  0.1426  0.0363  0.1909
17636W        W37916  18.199   4.146  15.219  0.0343 -0.0350 -0.2049
17637W        W37917   8.839  14.953  11.595 -0.2887  0.0675 -0.0248
17638W        W37918  18.120   5.616   0.919 -0.0535 -0.1563  0.0961
17639W        W37919  11.729  10.586   3.661  0.1273  0.0028 -0.0793
17640W        W37920   8.366  15.746   2.830  0.0283 -0.0696  0.0335
17641W        W37921  15.713   8.355  15.935 -0.2728 -0.0874 -0.1399
17642W        W37922   2.862   6.096   1.006  0.1349 -0.0207  0.4392
17643W        W37923  16.550  15.757  14.821  0.0337 -0.0790 -0.3020
17644W        W37924   2.718   8.861   1.513  0.1164 -0.0580 -0.3238
17645W        W37925   1.473  14.984  12.251 -0.0422 -0.2185  0.2645
17646W        W37926  11.334  18.189   2.670 -0.1297 -0.1170  0.1324
17647W        W37927  10.926   1.231   3.021 -0.0405  0.1296 -0.2529
17648W        W37928   9.141  14.982  12.331 -0.0212  0.1414  0.0161
17649W        W37929   1.588   9.005  13.582 -0.0614  0.2589 -0.1667
17650W        W37930   4.123  14.426   2.628  0.0934  0.1079  0.1851
17651W        W37931   6.231   3.310   3.235 -0.2712 -0.0870 -0.0951
17652W        W37932   0.440  11.724  13.927 -0.0194  0.2160  0.2438
17653W        W37933   7.501  17.636  15.301 -0.1590  0.0800  0.1607
17654W        W37934   6.587   4.626  11.512 -0.3106  0.2215 -0.0936
17655W        W37935  18.141  13.707   0.995  0.2316 -0.2502  0.0794
17656W        W37936   5.010   1.081   2.337 -0.0528 -0.1930 -0.3697
17657W        W37937   9.683   0.401   3.933  0.0166 -0.5508  0.0048
17658W        W37938   6.712  14.219   3.755 -0.0014  0.0645  0.0759
17659W        W37939  15.446  11.994   2.409  0.1153 -0.2752  0.1275
17660W        W37940  15.889  14.061   0.227 -0.1520  0.1821  0.0768
17661W        W37941  14.294   3.321   2.211 -0.0396 -0.1933  0.0559
17662W        W37942  17.959  16.053   0.722  0.1450  0.2882 -0.4429
17663W        W37943  13.500  13.579  14.212  0.2714 -0.2799 -0.1406
17664W        W37944  11.615  14.038  15.246  0.3144 -0.1040 -0.1124
17665W        W37945   5.713  11.774  13.243  0.2160 -0.1293  0.3936
17666W        W37946  16.332   4.758   1.090  0.1538  0.3071 -0.1441
17667W        W37947   1.651   8.385   3.346 -0.0754 -0.0698  0.1339
17668W        W37948  12.526  13.997   1.255  0.0578  0.1406  0.2053
17669W        W37949   7.083   7.581  13.332 -0.1794  0.1653 -0.0661
17670W        W37950  16.152   6.865   1.222 -0.1069 -0.1576  0.2306
17671W        W37951  10.065   9.606   3.457  0.1469  0.0125 -0.4734
17672W        W37952   8.887  13.880   0.649 -0.2247 -0.4266  0.3438
17673W        W37953   2.580   9.383  13.831  0.0899  0.1256 -0.1532
17674W        W37954   4.212   5.536   2.360 -0.3922 -0.0311 -0.2186
17675W        W37955   4.713   5.444  10.812  0.2648 -0.0247 -0.0430
17676W        W37956   1.544  11.903  12.270 -0.0465 -0.0532 -0.0863
17677W        W37957   1.982   7.867  12.860 -0.1449 -0.2154 -0.0243
17678W        W37958  12.054  16.238  11.552  0.3300  0.0236 -0.1461
17679W        W37959   6.400   2.831  10.387 -0.0332 -0.2182 -0.1997
17680W        W37960  14.279   6.095  11.937 -0.0156  0.2873 -0.3598
17681W        W37961   0.145   1.964  11.212 -0.1349 -0.1399 -0.1301
17682W        W37962  12.129  10.968  14.155  0.2182 -0.0032 -0.1005
17683W        W37963   1.793   4.593  12.016  0.1936  0.0578  0.1869
17684W        W37964  11.462  10.510   3.202  0.1758 -0.0097 -0.1376
17685W        W37965   8.743   1.013  11.595 -0.2869 -0.1331 -0.0753
17686W        W37966  17.816   8.201   0.464  0.1249 -0.3709 -0.1199
17687W        W37967  11.408   2.824   4.087  0.3372 -0.0965 -0.1028
17688W        W37968   6.692  10.999  13.530  0.1620 -0.0716 -0.0680
17689W        W37969   6.700  13.466   0.200 -0.1015 -0.1868 -0.0294
17690W        W37970  17.088   6.874   2.198  0.1185  0.0490 -0.0716
17691W        W37971  14.406  17.211   0.997 -0.3995  0.1054  0.3841
17692W        W37972   7.114  13.363  12.283 -0.0655 -0.0374 -0.1619
17693W        W37973  11.903   1.604  14.015  0.1711  0.3980 -0.0858
17694W        W37974   1.855   0.193  13.896 -0.0446  0.1781  0.0596
17695W        W37975  11.444  13.029  13.620 -0.0446  0.0762 -0.1351
17696W        W37976   2.870  17.895  15.606  0.0271  0.1257 -0.1382
17697W        W37977  10.321   1.564   2.344  0.0670  0.0522 -0.1955
17698W        W37978   0.188   4.729   0.323  0.1129  0.1772  0.2426
17699W        W37979   9.143  16.206  14.554 -0.2422  0.4035 -0.1632
17700W        W37980   4.913  12.545   4.340  0.0748  0.1186  0.1191
17701W        W37981   1.159  13.143   4.236 -0.1985  0.0388 -0.2249
17702W        W37982   4.166   3.376  12.495 -0.0189 -0.0619 -0.0780
17703W        W37983  12.281   1.526  13.640 -0.0350 -0.1155 -0.1833
17704W        W37984  16.501  10.341   3.901 -0.1753  0.2215  0.0662
17705W        W37985   3.113   8.342   2.288  0.1452 -0.1266  0.0569
17706W        W37986  13.268  13.530  13.134  0.1843 -0.2670 -0.1427
17707W        W37987   3.851  14.981   1.926 -0.0670 -0.0426  0.2435
17708W        W37988  10.427   8.277   0.842 -0.0961  0.2097  0.1203
17709W        W37989  15.803   3.629  12.948  0.0540  0.0579 -0.1943
17710W        W37990   8.399   9.042   4.312  0.0075 -0.1075  0.1595
17711W        W37991   3.700   2.349  14.977 -0.1967 -0.0095  0.0146
17712W        W37992   5.549  18.187  12.008 -0.0128 -0.2048 -0.2399
17713W        W37993   7.912   0.218  15.827  0.2726  0.2025 -0.1400
17714W        W37994   0.726  16.180   0.395 -0.1067  0.1053 -0.0359
17715W        W37995  11.800  11.664   0.819 -0.3408  0.0726  0.3151
17716W        W37996   3.926  18.292  13.030 -0.1965  0.0143  0.2272
17717W        W37997   1.242  17.422   1.482 -0.0635 -0.0677 -0.3580
17718W        W37998  16.703  11.667  12.254  0.2353 -0.3764 -0.1649
17719W        W37999  17.280   3.478   3.534 -0.1506  0.0589  0.2059
17720W        W38000   4.428  15.279   3.007  0.0607  0.0300  0.0075
17721W        W38001  11.005  18.325  15.177  0.1477  0.2034  0.2980
17722W        W38002   1.295   4.070  13.951 -0.2934  0.0603 -0.1006
17723W        W38003   8.274  10.004  12.716  0.0388  0.0818 -0.0456
17724W        W38004   1.945   3.694  15.183 -0.0206 -0.2535 -0.0102
17725W        W38005  17.051  10.508  15.280  0.0288  0.2282  0.0125
17726W        W38006  17.576   4.949  12.812  0.0077  0.2797  0.1111
17727W        W38007   0.960   9.192   2.020  0.1307  0.0450  0.3369
17728W        W38008   4.692   6.048   0.825 -0.0890  0.2217  0.1240
17729W        W38009  10.493   0.883   0.518  0.2239  0.0909  0.0325
17730W        W38010   8.408  16.087   3.225  0.2831  0.0642  0.0107
17731W        W38011   2.512   4.029  13.193  0.0626  0.2815 -0.1472
17732W        W38012  17.758   6.552   4.554  0.0019 -0.0752  0.0769
17733W        W38013   5.562  15.387   1.292 -0.1521  0.2429 -0.1354
17734W        W38014   7.487  12.410   0.760  0.0357  0.2095 -0.3527
17735W        W38015   8.768   3.716  15.698  0.0453  0.1486  0.0366
17736W        W38016  18.049   1.495  14.038  0.1407  0.0028 -0.1237
17737W        W38017   7.559   3.795   2.545  0.2701 -0.0051 -0.1251
17738W        W38018  12.983  13.130   0.303  0.1752 -0.3000  0.1121
17739W        W38019  14.129  10.802   3.489 -0.4060  0.0229  0.0366
17740W        W38020   7.086  14.142  15.430  0.1670 -0.1738 -0.0813
17741W        W38021  12.305   8.638   4.774 -0.0776 -0.1543  0.2110
17742W        W38022   0.689   5.101  15.911 -0.1959  0.2193 -0.1066
17743W        W38023  17.001  17.533  12.236  0.0153  0.2118  0.0039
17744W        W38024   8.446  14.090   3.982  0.1153  0.5669 -0.1494
17745W        W38025   6.680  16.962  13.020  0.1258  0.4510 -0.0748
17746W        W38026  10.673   4.018   0.068  0.2288  0.2654  0.0292
17747W        W38027  14.974  15.913  13.160 -0.0254 -0.0377 -0.0553
17748W        W38028   7.305  13.478   2.998  0.1095 -0.0461  0.0206
17749W        W38029  17.463  11.226  13.795  0.2340 -0.0870  0.0884
17750W        W38030  11.428  14.394  12.449 -0.0021  0.0100  0.0149
17751W        W38031  12.944   3.836   1.545 -0.1031 -0.1549 -0.3192
17752W        W38032  11.717   2.113  15.681 -0.3575 -0.1234  0.5375
17753W        W38033   7.257   2.434   4.488  0.2126 -0.0769  0.0758
17754W        W38034   3.998  15.518   1.044 -0.0568  0.1086 -0.1051
17755W        W38035  17.880  15.388   1.272 -0.1647  0.2655 -0.0376
17756W        W38036   5.488   8.119   3.625 -0.1850  0.1025  0.1642
17757W        W38037  17.386   5.312  12.549  0.2323  0.0138 -0.1365
17758W        W38038   0.412  11.001   0.770  0.0263  0.0602  0.4253
17759W        W38039   9.772  17.047   2.912 -0.0065  0.0143  0.1857
17760W        W38040   9.567   0.589  11.717 -0.0932  0.4289  0.0992
17761W        W38041  11.012   7.586  15.164 -0.1256  0.2503  0.3220
17762W        W38042  13.819  16.473  14.083  0.0582 -0.0009 -0.1665
17763W        W38043   6.322  13.414   2.483  0.1653  0.0420 -0.0082
17764W        W38044   6.423   9.349   4.491  0.1710 -0.0309  0.2311
17765W        W38045  17.535  14.720  15.206 -0.4338 -0.1095 -0.2157
17766W        W38046   9.204  17.680  11.509  0.3575 -0.1073  0.0685
17767W        W38047   4.603   3.526  11.485  0.0054  0.0745 -0.3443
17768W        W38048  12.518   5.820  14.569  0.1343  0.1502 -0.2133
17769W        W38049   4.979  18.173   2.813  0.0037 -0.0259  0.0998
17770W        W38050  14.666  17.455   2.925 -0.0872  0.0535  0.2644
17771W        W38051  16.349   5.698   4.348  0.1921  0.1001 -0.0460
17772W        W38052   9.606  14.181  13.145  0.2926  0.0345  0.2067
17773W        W38053   5.718   5.281  15.812 -0.2810 -0.0724 -0.0742
17774W        W38054   0.676   7.226   1.675 -0.1934  0.2107 -0.2088
17775W        W38055   8.295   1.970  11.750 -0.0858  0.1825  0.0661
17776W        W38056   8.026  11.217   4.749  0.0196  0.2913  0.1270
17777W        W38057   1.873  16.710  12.873  0.2311 -0.1427  0.1801
17778W        W38058   1.913   7.803  13.698  0.0408 -0.3566 -0.0811
17779W        W38059   4.256  13.707  10.248 -0.0559  0.1427 -0.3392
17780W        W38060  14.233  16.523  10.978  0.0843 -0.0452  0.2321
17781W        W38061   1.221  14.288  11.630 -0.1206 -0.0317 -0.3186
17782W        W38062   7.102  14.672  15.324 -0.0442 -0.0055 -0.2773
17783W        W38063   0.436  12.127   2.964 -0.3923  0.0492 -0.2355
17784W        W38064  15.230   8.688  15.837  0.1107  0.0159 -0.3152
17785W        W38065   5.625   1.398   0.027 -0.1941 -0.0178 -0.1866
17786W        W38066   0.063   0.548   2.835  0.1439 -0.0863 -0.0353
17787W        W38067  10.989  10.352   3.204  0.2769  0.1251  0.3294
17788W        W38068   9.860   6.983   0.728  0.0646  0.2011 -0.0263
17789W        W38069   0.048  13.874   4.422  0.1812  0.4020  0.0298
17790W        W38070   6.195  13.627   0.249 -0.1748  0.0425  0.1467
17791W        W38071   1.499  16.728   0.103 -0.3212  0.0131  0.2058
17792W        W38072   4.706  14.199  11.106 -0.1554 -0.1679 -0.0206
17793W        W38073  17.008  13.426  13.334  0.1834  0.4381  0.4508
17794W        W38074  14.913  10.057  14.709 -0.2823  0.0571 -0.0913
17795W        W38075  15.214  16.398   0.252  0.0469  0.1654 -0.1653
17796W        W38076  10.451  11.681  13.855 -0.3259 -0.3058 -0.2364
17797W        W38077  11.901   1.507  15.213 -0.0454  0.0617  0.2146
17798W        W38078   9.946  16.799   1.180  0.0472  0.0645 -0.2497
17799W        W38079   6.274   3.988   3.924 -0.0942  0.2278 -0.0517
17800W        W38080  16.695   4.810   3.967  0.2033 -0.1035 -0.0314
17801W        W38081   8.703  15.336  13.017 -0.3262 -0.1404  0.1215
17802W        W38082  11.307  16.283   0.267  0.2258 -0.0551 -0.0635
17803W        W38083  12.931   1.860   4.254  0.3396  0.1487 -0.0417
17804W        W38084   4.939  10.867  11.589  0.1032 -0.0525 -0.0543
17805W        W38085   5.299  12.834  11.937  0.1445 -0.1159  0.1539
17806W        W38086   6.082   7.953  14.645 -0.0692 -0.0118  0.0549
17807W        W38087  16.006  10.810   4.598  0.3001  0.1061  0.0617
17808W        W38088   1.442   4.121   3.202 -0.1871  0.0646  0.3570
17809W        W38089  16.806   7.726  14.132 -0.0892 -0.2788 -0.0132
17810W        W38090   0.097  17.900   1.970 -0.1951  0.2190 -0.1500
17811W        W38091   4.205   3.982  14.914 -0.0840  0.0048  0.1122
17812W        W38092  15.127   2.665   0.372  0.0149 -0.1522  0.2099
17813W        W38093  11.992   9.029  14.741 -0.0402  0.1556  0.0867
17814W        W38094   5.102   2.618   1.478 -0.1724  0.0035  0.1407
17815W        W38095  18.078  14.518  13.561  0.0817 -0.1677 -0.1546
17816W        W38096  15.909   4.747  14.994 -0.2025 -0.0506 -0.0155
17817W        W38097  11.354  11.645   1.099 -0.0781  0.1582  0.0473
17818W        W38098  16.990  15.931   3.242 -0.1122 -0.0902 -0.0875
17819W        W38099  17.535  14.302   0.378  0.2169 -0.0357 -0.0689
17820W        W38100   5.819   2.634  13.621 -0.2767  0.1678  0.1858
17821W        W38101  10.289   3.330   3.573 -0.0798 -0.0167  0.3043
17822W        W38102  14.963   0.641   4.567 -0.2774 -0.1356  0.2316
17823W        W38103  15.698  15.577  13.302 -0.1889 -0.0968 -0.0000
17824W        W38104  14.393  12.787  13.947  0.2727 -0.2826  0.1873
17825W        W38105  13.573  10.251   2.349 -0.2968  0.0336 -0.1210
17826W        W38106   4.291   9.026   2.821  0.0730  0.0817 -0.2853
17827W        W38107   0.843   9.571  15.422  0.1751 -0.2328 -0.1589
17828W        W38108   5.045  14.388   1.981  0.4646 -0.2322 -0.3419
17829W        W38109  14.018   6.815   3.543 -0.0060 -0.0573  0.2274
17830W        W38110  12.532   8.520  12.988 -0.0257  0.1661  0.0575
17831W        W38111   8.846   1.861  11.292 -0.3027  0.1193 -0.0881
17832W        W38112   2.989   5.630  13.417 -0.2398  0.0377  0.0119
17833W        W38113   2.639   4.604   1.590 -0.1330  0.4078 -0.1037
17834W        W38114  12.428   6.030   1.572  0.2427  0.0282 -0.0270
17835W        W38115   2.832  11.338  12.322  0.2996 -0.2681  0.2629
17836W        W38116   9.144  17.994  13.269  0.0095  0.0947  0.1471
17837W        W38117  14.739   7.413   1.731 -0.0323 -0.0349  0.2802
17838W        W38118   7.425  10.040  13.224 -0.0394 -0.1286  0.0290
17839W        W38119  18.006  12.461  12.758  0.0300 -0.0431 -0.0093
17840W        W38120  17.413  16.059  14.028  0.1214  0.2925 -0.1777
17841W        W38121  15.150   9.112   3.205  0.0275 -0.0433 -0.1658
17842W        W38122   8.275  18.263  13.183  0.1558 -0.1479 -0.0093
17843W        W38123  11.306  17.114  13.422  0.1373  0.0124  0.0542
17844W        W38124  17.155  13.543   1.468 -0.1756 -0.0351 -0.0494
17845W        W38125   4.869   7.373  14.118 -0.1142  0.1425  0.2857
17846W        W38126  13.347   6.523   1.282 -0.0401 -0.0301 -0.2706
17847W        W38127   5.565  10.250   2.296 -0.0274 -0.1814  0.3643
17848W        W38128   6.560  11.059   4.283  0.3018 -0.0730  0.4865
17849W        W38129   0.568   4.537  14.697  0.1166 -0.3087  0.1660
17850W        W38130   7.740   7.701   2.666 -0.1366  0.1184 -0.3008
17851W        W38131   9.209  13.628  13.535  0.0398  0.0115 -0.0440
17852W        W38132   0.375   9.619  15.246  0.1942  0.1040 -0.0235
17853W        W38133   8.333   2.534   2.631  0.0040  0.0281  0.2073
17854W        W38134   4.543   4.244   0.258 -0.0905 -0.1602 -0.0118
17855W        W38135   5.478  13.385   1.510 -0.2376 -0.0793 -0.1304
17856W        W38136  16.109  16.745   1.460  0.0967 -0.2578  0.0608
17857W        W38137  12.232   9.310   4.269  0.1624 -0.0336  0.0022
17858W        W38138  17.971   7.918  11.666 -0.0217 -0.2013  0.2712
17859W        W38139   7.098   3.992   5.735  0.0471 -0.0798 -0.5632
17860W        W38140   5.862  10.322   4.551  0.0056  0.2978  0.1829
17861W        W38141   2.532  13.059   1.871  0.0485 -0.2402  0.2819
17862W        W38142  11.191   9.390   0.130  0.3337 -0.1162 -0.0317
17863W        W38143  16.930   5.384   3.357  0.1506  0.0671 -0.1113
17864W        W38144  17.916   7.439   3.740 -0.0232 -0.4446 -0.0470
17865W        W38145  13.007   3.448  13.746 -0.2733  0.3612 -0.2052
17866W        W38146   7.915  15.332   0.242 -0.0931  0.2138 -0.0660
17867W        W38147   2.588  13.571   1.102 -0.3176 -0.1234 -0.2642
17868W        W38148   9.921  11.605   1.530 -0.2844  0.1516  0.1664
17869W        W38149  12.533   6.933  11.796  0.1182 -0.1523  0.2553
17870W        W38150   2.883   7.811   4.337 -0.2862 -0.1329 -0.2162
17871W        W38151   6.206   3.777   2.963  0.3262 -0.2583 -0.0595
17872W        W38152   3.410   0.460  12.472 -0.0859  0.2665  0.1429
17873W        W38153   6.652  10.089  14.890  0.0231 -0.0562  0.1613
17874W        W38154   1.553   7.202  11.702  0.1447 -0.1929  0.2515
17875W        W38155  12.890  13.851   3.293  0.0890 -0.0282  0.0434
17876W        W38156  15.069  10.874   1.380 -0.2746 -0.3707 -0.2498
17877W        W38157  13.142  12.077   4.655  0.1326  0.0631 -0.2005
17878W        W38158   3.262   0.120   3.499 -0.2077 -0.2199  0.1450
17879W        W38159   0.752  14.968   3.159 -0.0767  0.1346 -0.2947
17880W        W38160   1.961   8.399  14.224 -0.3053  0.1526  0.0317
17881W        W38161   7.173   2.511   1.602 -0.2983  0.4177  0.3715
17882W        W38162  13.003   7.490  14.021  0.1212 -0.0910  0.2967
17883W        W38163  14.967  10.408   2.256 -0.4370  0.0426  0.0614
17884W        W38164  14.200  15.106   2.966  0.0507 -0.1191 -0.1246
17885W        W38165   9.958   3.867  12.994 -0.1052  0.0294  0.1252
17886W        W38166   8.183   2.757  12.330 -0.0347 -0.0657  0.2257
17887W        W38167  13.522   2.749  14.151  0.2992 -0.0026 -0.3084
17888W        W38168  11.682   8.113  14.066 -0.1616 -0.1337  0.0332
17889W        W38169   5.235  12.252   2.183 -0.0906  0.0654  0.0092
17890W        W38170   9.022   1.458  12.551  0.0381  0.0223  0.3076
17891W        W38171   9.799  11.350  13.358 -0.1286 -0.2565  0.0819
17892W        W38172   1.757   0.412  12.148  0.0664  0.4146 -0.2726
17893W        W38173   4.310  15.171  14.064 -0.2163  0.0577 -0.3026
17894W        W38174  15.251  16.172  15.433  0.2065 -0.2104 -0.3906
17895W        W38175  11.146  16.988   1.177  0.0576  0.0460  0.0162
17896W        W38176   8.870   3.125   1.676  0.0000  0.1045  0.1067
17897W        W38177   7.315  10.884   1.506  0.2981 -0.2168 -0.0817
17898W        W38178  14.658   7.927  14.267 -0.1847  0.3275  0.0873
17899W        W38179  10.827   8.002   0.585 -0.1224  0.2087  0.0628
17900W        W38180  13.873   0.133  11.722  0.1142  0.0519 -0.2396
17901W        W38181   6.606   2.685  14.860 -0.0321  0.1868 -0.0683
17902W        W38182   2.217   5.053  13.282 -0.1151 -0.1858 -0.2304
17903W        W38183   9.079  16.208  12.641 -0.3249 -0.1114  0.1088
17904W        W38184   1.625   7.465  14.689  0.1051  0.0677 -0.0417
17905W        W38185   0.016   8.975  12.155  0.3588  0.2744  0.1500
17906W        W38186   8.662  13.241  14.176 -0.0582  0.2251  0.4585
17907W        W38187   8.436  12.190  14.506 -0.2535  0.2652 -0.1287
17908W        W38188   9.139   2.791  15.709  0.1669 -0.1002  0.2004
17909W        W38189  13.973  13.896   4.632  0.0069 -0.1655  0.2281
17910W        W38190   9.965   5.227   0.829  0.0008 -0.1394  0.1888
17911W        W38191   3.102   0.060   0.948 -0.2260  0.1514  0.0199
17912W        W38192  17.527   7.381  14.234 -0.3721 -0.5384  0.1074
17913W        W38193  13.011   1.198   2.431  0.0594 -0.0700  0.2164
17914W        W38194   9.006   5.231  13.477  0.0698  0.1551  0.1383
17915W        W38195   4.348   5.107   4.256 -0.2302 -0.0222 -0.0930
17916W        W38196   8.049   4.002  11.816 -0.0016  0.2459 -0.0693
17917W        W38197   2.483   0.322  12.890  0.2563  0.1285 -0.3330
17918W        W38198  14.176   6.206   3.455  0.1693 -0.0133  0.0047
17919W        W38199  16.971   6.958  14.876  0.1614  0.4071  0.1604
17920W        W38200   6.594   7.653  15.446  0.0109  0.3638 -0.0430
17921W        W38201  17.441   3.051  15.844 -0.1071  0.0989  0.0792
17922W        W38202   2.645   5.148  15.380 -0.2366  0.0914  0.1664
17923W        W38203   6.071  11.247  11.645  0.0803  0.1649  0.1394
17924W        W38204   2.448   3.140  14.089  0.0674  0.0578 -0.3442
17925W        W38205  12.554   6.533  13.045  0.0472 -0.4116  0.2040
17926W        W38206   1.041  13.703  12.301  0.0924 -0.1134 -0.1652
17927W        W38207   0.882   6.907   0.203  0.0317  0.1517 -0.4346
17928W        W38208   8.934   5.964   1.863  0.1603 -0.3401 -0.0627
17929W        W38209   0.108   2.209   1.866 -0.2290 -0.1730  0.3283
17930W        W38210  14.253   1.584   3.285 -0.0174  0.1017 -0.0121
17931W        W38211  13.258   2.254  14.309 -0.0588  0.0496 -0.0432
17932W        W38212   7.909   9.235  14.436 -0.2617 -0.2987 -0.0979
17933W        W38213  17.206   8.279   5.075  0.1699  0.2071 -0.2240
17934W        W38214   4.533   6.727  15.509 -0.3099  0.0825  0.0355
17935W        W38215   8.864  11.801   2.909 -0.0831  0.0435 -0.1599
17936W        W38216   3.761   5.952   1.166  0.2658  0.0291  0.1105
17937W        W38217   4.301  15.813   1.318  0.2544 -0.0240 -0.1832
17938W        W38218   2.616   9.014  14.887 -0.2808 -0.2242 -0.3288
17939W        W38219  14.230   8.174  13.519 -0.1658  0.2875 -0.0095
17940W        W38220  12.407   2.628   1.740  0.3589  0.1193  0.2346
17941W        W38221   0.213   9.477  13.214  0.0637  0.1559  0.0252
17942W        W38222   8.056  13.973   0.673  0.1094  0.2067  0.0660
17943W        W38223  13.059  13.874  14.262 -0.1964  0.3706 -0.0611
17944W        W38224  12.323   4.133   2.156 -0.1420  0.1593  0.2093
17945W        W38225  12.199   1.412   4.233 -0.0088  0.0618  0.1863
17946W        W38226   0.139   0.757  14.234  0.3750 -0.1329  0.1330
17947W        W38227   0.008  12.802  13.335 -0.0434 -0.0405  0.0179
17948W        W38228  14.518   1.509  10.942 -0.2070 -0.1419 -0.3678
17949W        W38229   4.122  17.850   1.946 -0.1199 -0.2546 -0.1393
17950W        W38230   1.095  13.029   1.181  0.0718 -0.1362 -0.1076
17951W        W38231   0.016   2.346   2.545 -0.2377 -0.2075 -0.5282
17952W        W38232  14.705  16.326  11.201  0.0441 -0.0585 -0.1523
17953W        W38233   6.196  10.749   3.480  0.0866  0.0774  0.1051
17954W        W38234  11.498   8.641  11.940 -0.0413 -0.0768 -0.2574
17955W        W38235   5.382  11.437   3.614 -0.2660  0.1127  0.0478
17956W        W38236   1.425   3.001  13.554 -0.3067 -0.1574  0.0249
17957W        W38237  15.006   4.722  15.458  0.0831 -0.0582  0.2658
17958W        W38238   9.184  12.922   2.456  0.0525 -0.0313  0.0947
17959W        W38239  10.446   5.193   2.964  0.4467  0.1944 -0.0076
17960W        W38240   7.566   1.496   3.856 -0.1811  0.1706  0.0730
17961W        W38241   9.956   7.109   2.740 -0.1475 -0.4272  0.0153
17962W        W38242  16.241  15.397  12.812  0.1872  0.4064 -0.3655
17963W        W38243   8.704  15.703   3.444 -0.2340  0.1111  0.0955
17964W        W38244   9.740  14.461   3.773  0.0213  0.0114  0.2692
17965W        W38245  12.072   9.860  12.306 -0.0560  0.3957 -0.0011
17966W        W38246   1.356   3.786   2.770 -0.0652  0.1272 -0.2684
17967W        W38247  14.510   4.117  15.543 -0.0211  0.0713 -0.2287
17968W        W38248  16.069   2.672   1.381 -0.0164  0.0610  0.1156
17969W        W38249  14.913  13.990   0.984 -0.1223  0.1195 -0.0976
17970W        W38250   1.405  13.901  15.936  0.0473 -0.2362 -0.4818
17971W        W38251  15.121  13.330   4.561  0.1502  0.2175  0.2416
17972W        W38252   7.856  16.991   4.307 -0.0423  0.3471 -0.1078
17973W        W38253   8.447  12.810   4.601 -0.1441  0.1179  0.0154
17974W        W38254  11.385   5.792  12.017 -0.1873  0.0781 -0.1323
17975W        W38255   4.478  15.152  14.926  0.0424  0.0646  0.1970
17976W        W38256  12.306   2.901  12.571 -0.0722 -0.1596  0.1106
17977W        W38257  11.015  17.800   2.788 -0.0963 -0.0942  0.0493
17978W        W38258   0.131   2.755  11.545  0.0315 -0.0513 -0.0954
17979W        W38259  12.293   9.639  14.268 -0.0093  0.0279 -0.0310
17980W        W38260   8.867   9.487  15.115 -0.3408 -0.2989 -0.1949
17981W        W38261  16.123  17.703   2.340  0.0255  0.0533 -0.0379
17982W        W38262  17.869  10.555   5.236 -0.2307  0.0306 -0.0135
17983W        W38263   3.737  14.177   3.939 -0.3138  0.0961  0.1222
17984W        W38264   0.924   0.976   3.753 -0.1396  0.0251  0.0781
17985W        W38265   4.780  12.185   3.314  0.1836  0.0083  0.1467
17986W        W38266   8.931   2.928  14.999  0.0395 -0.3158  0.0036
17987W        W38267   8.406  12.911  12.424 -0.3495  0.0368  0.1762
17988W        W38268   6.792   0.446   3.528 -0.0697  0.3678 -0.2315
17989W        W38269  14.593  17.936  11.261 -0.0780  0.1700  0.0402
17990W        W38270   8.827   2.919  12.862  0.0551 -0.2065 -0.1317
17991W        W38271   8.153   9.052  15.217  0.2217 -0.4116  0.1001
17992W        W38272  13.039   0.256  15.590  0.0005 -0.1173  0.0866
17993W        W38273  12.559   4.821  15.179 -0.1029 -0.2348  0.2493
17994W        W38274   5.191  17.791   2.397  0.0122 -0.1168 -0.0084
17995W        W38275  13.028  17.919  14.835 -0.1478  0.0414 -0.1525
17996W        W38276  17.121   2.729   1.386  0.6034 -0.1357 -0.0556
17997W        W38277   3.648  15.514  14.973  0.1162 -0.1221 -0.0152
17998W        W38278  11.875  14.834  14.846  0.1911  0.3468 -0.2462
17999W        W38279   7.864  12.327  13.262  0.1108 -0.2743 -0.1154
18000W        W38280   2.978   6.285  11.807  0.1389  0.1537  0.2932
18001W        W38281   5.342  11.787  13.661  0.0618 -0.1541 -0.2562
18002W        W38282  17.317  11.904   4.281 -0.2937 -0.1306 -0.0857
18003W        W38283  17.401  11.614   3.325 -0.1623 -0.1769 -0.0952
18004W        W38284  14.829   7.643   0.178  0.1535 -0.1984 -0.1383
18005W        W38285   1.762   5.920  12.034  0.1032  0.0671 -0.0615
18006W        W38286  10.001   5.719  11.682  0.2228  0.1369  0.0541
18007W        W38287   7.452   4.990   1.589  0.3823  0.1623  0.2440
18008W        W38288  15.349  15.418  14.397 -0.0551 -0.0317  0.0918
18009W        W38289  10.541  12.635   3.915  0.3177 -0.1453  0.1025
18010W        W38290   1.030  15.458  15.264  0.1755 -0.1979 -0.0724
18011W        W38291   2.868   0.369   3.032 -0.1653  0.0248 -0.1212
18012W        W38292  10.407   3.182   2.583  0.0053  0.0428  0.0566
18013W        W38293  14.838   4.073   3.188 -0.0674 -0.2758  0.0029
18014W        W38294  17.043   4.104   2.972  0.2265 -0.0021 -0.0687
18015W        W38295   9.040   3.058  14.438 -0.1651 -0.1420  0.1117
18016W        W38296   7.962   5.934   1.254  0.0299 -0.1972 -0.1920
18017W        W38297   9.696   0.750   3.265  0.3948 -0.1281 -0.0516
18018W        W38298   2.793   0.856   1.911  0.0086 -0.0619  0.1939
18019W        W38299  13.387   5.924   2.586  0.0494  0.0242  0.0042
18020W        W38300  10.689  17.086   1.418  0.0443  0.1363 -0.4616
18021W        W38301   9.613  10.474   2.028  0.1529 -0.0691  0.3400
18022W        W38302  12.974   8.820  11.430  0.0818 -0.3826 -0.3091
18023W        W38303   9.041  16.751  15.760  0.1257 -0.1262 -0.2172
18024W        W38304  11.127   8.359  12.209 -0.0987 -0.2229 -0.2217
18025W        W38305  18.207   5.999   4.201 -0.1637  0.0876  0.1520
18026W        W38306   4.590  16.413   3.667 -0.2325  0.0992 -0.1527
18027W        W38307  17.291   2.817   0.801 -0.1409 -0.3265 -0.0485
18028W        W38308  10.635  10.455   3.625 -0.0300  0.2655 -0.0001
18029W        W38309   2.752   0.203   3.493  0.1876  0.1035 -0.0390
18030W        W38310   6.166  17.864   5.077 -0.0357  0.0110  0.1490
18031W        W38311  15.056   1.218   0.270  0.1726  0.1024  0.1256
18032W        W38312  16.448  12.946   1.580 -0.0864  0.0113  0.0192
18033W        W38313  15.385   4.572   2.631  0.1924  0.3091  0.1216
18034W        W38314   7.533  10.801  13.600 -0.1683 -0.3495  0.1803
18035W        W38315   5.982   0.570   2.086 -0.2336 -0.0837 -0.2242
18036W        W38316   0.340   2.900  12.327  0.1844 -0.1272 -0.1784
18037W        W38317  12.220  12.264   4.138 -0.3694 -0.0834  0.0845
18038W        W38318   5.097  13.204  15.151 -0.0973  0.1738 -0.2358
18039W        W38319   3.122   0.662  12.121 -0.2833  0.0246 -0.0687
18040W        W38320   1.062   5.348  12.479  0.0955  0.1994 -0.1330
18041W        W38321  17.548  15.069  11.707 -0.0349  0.1750  0.1640
18042W        W38322   5.447   3.266   2.613  0.1012 -0.1436  0.1105
18043W        W38323   9.558  16.676   3.406  0.3315  0.1867  0.0507
18044W        W38324   3.670   5.506  14.228  0.4010 -0.1365 -0.1543
18045W        W38325   8.858  13.264   5.231  0.0250  0.1026  0.0048
18046W        W38326   3.778  12.491   2.825 -0.0986  0.3178  0.0100
18047W        W38327  17.130  12.188  13.706  0.1080  0.2922 -0.1249
18048W        W38328   2.429   6.697  15.309  0.1653  0.1717 -0.2530
18049W        W38329   4.492  17.167   5.120  0.1090 -0.2362  0.0941
18050W        W38330   4.562  17.529  13.315  0.1399  0.2573  0.0125
18051W        W38331   4.274  14.648  14.900  0.2051 -0.0266 -0.0375
18052W        W38332  11.305   3.229   1.558  0.2184  0.0181  0.0739
18053W        W38333   1.172  10.323  13.707  0.3735 -0.1214  0.1894
18054W        W38334   9.981   1.849   1.574 -0.0110 -0.3072  0.0991
18055W        W38335   3.187   3.187  14.714  0.0713  0.1633  0.0730
18056W        W38336   2.814   5.892   4.473 -0.1255  0.1233  0.0493
18057W        W38337  15.372   8.998  11.973 -0.0593  0.0159  0.3139
18058W        W38338   2.421  16.311   3.926  0.0317  0.0617  0.2605
18059W        W38339   4.699   9.499  12.683 -0.1050 -0.4137 -0.0475
18060W        W38340  12.466   8.978   5.306  0.0789 -0.1217  0.1286
18061W        W38341   7.774   9.814   1.438  0.2216 -0.2315 -0.0450
18062W        W38342  17.610  17.501   2.169  0.0810 -0.0881  0.1839
18063W        W38343   4.471   4.046  13.967 -0.0433 -0.1993 -0.1525
18064W        W38344  14.171  13.433  14.901  0.0437 -0.0090  0.1626
18065W        W38345   8.452   0.525  11.830  0.0342  0.0993  0.1774
18066W        W38346   5.800  17.972   1.668  0.1080 -0.0152 -0.2048
18067W        W38347  11.728  17.205   3.349  0.0554 -0.0636  0.0310
18068W        W38348   3.401  13.565   1.729  0.2303  0.2950 -0.0365
18069W        W38349   9.010   7.397   3.548 -0.0046  0.1485  0.0533
18070W        W38350   9.877   4.357   1.611 -0.5470  0.1115 -0.0203
18071W        W38351   9.142   4.771   3.268 -0.2092  0.0560 -0.0664
18072W        W38352   3.654  16.751  15.417 -0.1020  0.1408 -0.1509
18073W        W38353  16.852   2.953  11.296 -0.2601 -0.1270  0.0055
18074W        W38354   0.457   8.909  12.466 -0.1211  0.0300 -0.1845
18075W        W38355  15.198   8.998  10.766 -0.1738 -0.0757 -0.1236
18076W        W38356   3.976  17.019   1.991  0.1045  0.0215  0.0023
18077W        W38357   6.019  11.971   2.916 -0.1050 -0.2398 -0.1256
18078W        W38358  15.084   4.156  11.900  0.0934  0.1005  0.0708
18079W        W38359  13.866   3.144  14.072  0.4970  0.0399 -0.0077
18080W        W38360   7.862  10.381  12.405  0.3036 -0.0640 -0.3934
18081W        W38361   3.481   0.457   3.916  0.0365 -0.1457  0.3481
18082W        W38362  12.888   9.706   3.927  0.1354  0.0437 -0.0815
18083W        W38363  16.380  13.680   0.380  0.1978 -0.2149 -0.0734
18084W        W38364   8.871  18.059  11.751 -0.0684  0.1840 -0.0301
18085W        W38365  16.922  17.453  15.929 -0.0192 -0.1675  0.1732
18086W        W38366   7.384   6.640   0.581  0.0897  0.1398  0.3208
18087W        W38367   0.116   0.766  13.732  0.1131 -0.0031 -0.0342
18088W        W38368   8.087   9.484   0.138  0.0792 -0.0658  0.1399
18089W        W38369   7.308   8.074  12.752 -0.0179 -0.2822 -0.0784
18090W        W38370   1.410  17.228  13.944 -0.0656  0.2249 -0.2082
18091W        W38371  14.771  14.602  14.591  0.3359  0.3026  0.1742
18092W        W38372   9.577   0.388  13.477  0.0109  0.1021  0.4625
18093W        W38373  14.814  16.757   0.120 -0.0135  0.5642  0.1830
18094W        W38374   2.262   1.611   1.442  0.3048  0.2848  0.0891
18095W        W38375   8.548   4.760   2.604  0.0485 -0.0186 -0.3199
18096W        W38376  11.751   5.130   0.445  0.0674 -0.0518 -0.0111
18097W        W38377  18.318   6.025   3.040 -0.1622 -0.2599  0.0679
18098W        W38378  16.249  11.375   1.954 -0.0236 -0.1782  0.1452
18099W        W38379  14.658   2.201   0.386 -0.1736 -0.1958  0.2148
18100W        W38380   2.144   3.792  12.962  0.1474 -0.0977  0.1373
18101W        W38381  16.959   8.430   2.855 -0.0142 -0.0602 -0.1238
18102W        W38382   6.206  14.582  14.659 -0.1388 -0.0669  0.1334
18103W        W38383   1.303  18.000  14.213  0.0617 -0.0279  0.2781
18104W        W38384  10.855   8.079   2.861 -0.2376 -0.1944 -0.0086
18105W        W38385   8.270   8.491  13.882 -0.2613 -0.0192  0.1683
18106W        W38386  16.260   0.096   1.300 -0.1233 -0.0548  0.0908
18107W        W38387   4.729  11.273  14.388  0.2847 -0.1026 -0.1034
18108W        W38388   0.958   0.906  14.681  0.1603  0.3214 -0.3904
18109W        W38389  15.335  17.241  12.711 -0.4045  0.0510 -0.1089
18110W        W38390   8.463   7.321  14.511  0.3176  0.0869 -0.2619
18111W        W38391   3.824   6.389  11.468  0.2565 -0.0781 -0.2750
18112W        W38392  18.161   8.673   0.170 -0.1398 -0.1940 -0.1969
18113W        W38393  14.493   7.477  14.773  0.0422  0.1709  0.1597
18114W        W38394   9.029   6.828   0.684 -0.0026  0.2343  0.0720
18115W        W38395  17.261  11.515  15.046  0.1077  0.1066  0.1391
18116W        W38396   2.514   9.346   3.237  0.2314 -0.0455  0.1852
18117W        W38397  12.509  13.995   2.031 -0.1056 -0.0102  0.0780
18118W        W38398   1.476  14.805  11.757  0.0767 -0.0135 -0.4756
18119W        W38399  14.179   2.196  14.664 -0.0258 -0.1712  0.2861
18120W        W38400   4.983   2.287  13.785 -0.2563 -0.2304 -0.0721
18121W        W38401  15.198  10.566   2.804 -0.1239  0.1744  0.1952
18122W        W38402   5.448   4.280   1.468 -0.0373 -0.3030  0.0906
18123W        W38403  16.692  10.605  14.950 -0.2149 -0.0408 -0.0870
18124W        W38404  17.616  12.047   1.881 -0.3446  0.1209 -0.0463
18125W        W38405  16.538   6.211  12.832  0.1543 -0.0448  0.4167
18126W        W38406  14.457  12.660   2.211 -0.1489  0.2371  0.0009
18127W        W38407   1.892   0.876  13.689 -0.2213  0.0254 -0.0229
18128W        W38408  16.171   3.901   0.314  0.0636  0.1010  0.1837
18129W        W38409   2.975  13.285   3.011 -0.1051  0.1986  0.0573
18130W        W38410  15.661  13.829   2.475  0.2495  0.0185 -0.3039
18131W        W38411  10.107   6.089   3.788  0.1152  0.2563 -0.2366
18132W        W38412   8.044  12.984  15.567 -0.2572  0.1988  0.1155
18133W        W38413   9.810   7.418   3.934 -0.1376 -0.3296  0.1054
18134W        W38414  10.410   0.029   1.722  0.0463  0.1104  0.0646
18135W        W38415  15.817   0.001   0.526  0.0149  0.1035  0.1846
18136W        W38416   6.392  11.566  11.959 -0.0033  0.0876  0.0482
18137W        W38417   0.301   5.850   1.367 -0.0263 -0.3500  0.0640
18138W        W38418   8.416   4.091  13.554  0.0980  0.0652  0.0416
18139W        W38419   9.441   2.083   4.420 -0.0953  0.0371 -0.1544
18140W        W38420   9.695   6.082  12.462  0.2178  0.0517 -0.1196
18141W        W38421  16.149  13.936  12.902  0.0417 -0.1819  0.0582
18142W        W38422  15.678   6.638   2.668  0.2045  0.3136 -0.1685
18143W        W38423  13.172   0.549   4.217 -0.1313  0.3591 -0.0266
18144W        W38424   5.272  12.870  14.116  0.3409  0.0736  0.3317
18145W        W38425  10.736  10.411   1.007  0.0636 -0.2007  0.0059
18146W        W38426   6.846  16.560  15.236  0.1682  0.1331  0.1252
18147W        W38427   7.855  18.179   0.246  0.0544  0.3492  0.0504
18148W        W38428  14.690   0.491   2.488  0.4087 -0.1395 -0.0064
18149W        W38429   2.210  17.534  14.834  0.4093  0.1481 -0.0769
18150W        W38430   0.387  14.492   0.049  0.0847 -0.1082 -0.2583
18151W        W38431   5.776   2.028  12.710 -0.6374 -0.0277 -0.0447
18152W        W38432   1.016   2.663   4.454  0.0568 -0.1547 -0.3272
18153W        W38433   9.419  14.375   0.922  0.0881 -0.1258  0.1299
18154W        W38434   7.505  15.536  14.037  0.2126 -0.0368 -0.0722
18155W        W38435  18.037   7.594  13.289  0.0387  0.1458  0.0939
18156W        W38436  14.139  16.796  13.168 -0.0657 -0.1285  0.1080
18157W        W38437  10.725   9.927  11.650  0.0111  0.2293  0.0486
18158W        W38438  11.058   7.362   4.316 -0.1766 -0.0815 -0.3859
18159W        W38439  16.369   0.771  14.441  0.0873 -0.1038  0.0073
18160W        W38440  15.932  15.040   0.906 -0.0001  0.0511  0.1446
18161W        W38441   4.083  17.566  12.670 -0.0736  0.0017 -0.0316
18162W        W38442  17.789  15.794  15.346  0.2691 -0.3037 -0.2215
18163W        W38443   8.487  12.237   4.371  0.0905  0.3343  0.0948
18164W        W38444   7.327   8.081   0.056  0.2029  0.0293 -0.1340
18165W        W38445  10.166   2.083  11.658 -0.1684  0.0302 -0.0469
18166W        W38446  11.728  15.130  12.103 -0.1377 -0.1404 -0.2001
18167W        W38447  11.846   2.338   0.911  0.0633  0.0372 -0.4260
18168W        W38448  14.836   9.502   4.597  0.0175 -0.0653  0.0782
18169W        W38449   6.806  11.970   3.266  0.4418  0.0748  0.0102
18170W        W38450   9.796  14.218   0.495  0.0197  0.0422  0.2045
18171W        W38451   2.741   7.253   4.975 -0.0557 -0.3483 -0.3196
18172W        W38452  18.287   7.378  12.480  0.0262  0.1072 -0.2550
18173W        W38453   0.271   0.810  12.982 -0.0077 -0.3656  0.0502
18174W        W38454  17.235   0.830  12.437  0.0092 -0.0527 -0.1175
18175W        W38455   7.196   8.735  13.730  0.1196  0.1993 -0.0366
18176W        W38456   4.253  13.800   1.686  0.1482 -0.1521  0.0446
18177W        W38457   2.201   3.130  13.177  0.0329  0.2027 -0.0530
18178W        W38458  16.310  15.158   2.641 -0.1883 -0.0795 -0.0777
18179W        W38459  16.456  12.294  15.891  0.1846  0.0905  0.0257
18180W        W38460   7.118   2.970   4.333 -0.3175  0.1485  0.1489
18181W        W38461  14.353   0.336  14.625 -0.1042  0.1046 -0.1567
18182W        W38462   5.058  12.801  13.100  0.3007 -0.1896  0.0378
18183W        W38463   8.766   1.088  13.068  0.2334  0.1102 -0.0998
18184W        W38464  11.337  11.624   0.574 -0.1500  0.1345  0.0122
18185W        W38465  14.729  12.657   2.614 -0.1485  0.0350  0.0011
18186W        W38466   1.737  10.078   0.757 -0.2163 -0.1397  0.2541
18187W        W38467  12.309   3.494   3.014 -0.1013  0.0217  0.2528
18188W        W38468  13.444  13.109   0.137 -0.1884  0.0494 -0.1765
18189W        W38469   6.850   8.310   3.875  0.2947  0.4505 -0.4034
18190W        W38470   8.502  15.513   2.395 -0.1432 -0.1654  0.1669
18191W        W38471   3.290  14.494   3.477  0.2169  0.2046 -0.2389
18192W        W38472  17.630  15.760   0.987  0.0445 -0.0655 -0.0306
18193W        W38473   0.625  10.092  11.776 -0.0026  0.1164 -0.1815
18194W        W38474   6.839  12.095   4.209  0.2200  0.0685 -0.2941
18195W        W38475  16.958   2.416   2.891 -0.1347 -0.1210  0.2338
18196W        W38476  14.458  12.143   1.586  0.1670  0.2003  0.1596
18197W        W38477   6.316  15.745  14.006  0.3395  0.0391 -0.0354
18198W        W38478  17.023   6.698  15.878 -0.0358  0.3668  0.1074
18199W        W38479   8.912   9.442   0.830  0.0204 -0.1744  0.2270
18200W        W38480   6.096  16.622  11.250  0.0915 -0.1240 -0.0155
18201W        W38481  14.298   3.229   3.065  0.0506  0.0214  0.1198
18202W        W38482  16.909   3.607  12.414  0.3221  0.0186 -0.0291
18203W        W38483   8.661   3.567   1.582 -0.0945  0.0655  0.1535
18204W        W38484   0.085  14.041   0.211  0.0484  0.0810  0.3313
18205W        W38485   0.645  10.528   4.199 -0.1915 -0.1656 -0.1319
18206W        W38486   2.877   5.309   0.251 -0.3145 -0.0365  0.3718
18207W        W38487   3.955   8.251   3.240  0.1310  0.3572  0.2042
18208W        W38488   3.163  11.646  11.631  0.0681  0.0459  0.3989
18209W        W38489  13.695   5.253   1.487  0.0459 -0.0509  0.1801
18210W        W38490  15.656   4.849   2.238 -0.0206  0.1618  0.3648
18211W        W38491  16.347   7.276   2.587 -0.1831  0.0540  0.2234
18212W        W38492  12.124   5.283   2.650 -0.0260 -0.2018 -0.1736
18213W        W38493   8.671   6.393  15.425  0.0366 -0.0556  0.0365
18214W        W38494   7.546  13.717   3.366  0.2323  0.3233  0.0335
18215W        W38495   4.986   1.114   0.392 -0.2344  0.0933 -0.0485
18216W        W38496  15.813   9.679  12.148 -0.1679  0.0551  0.0029
18217W        W38497   8.002   1.557  15.492  0.1182  0.2690 -0.0890
18218W        W38498   8.332   3.958  14.870  0.2736  0.1246  0.2029
18219W        W38499   4.513  10.213   1.166  0.2796  0.1733 -0.1214
18220W        W38500  11.746  10.395  14.730  0.3297  0.1022 -0.2833
18221W        W38501  14.578  15.656   0.530  0.0767 -0.3023  0.0750
18222W        W38502  11.480   9.588  12.495  0.1886 -0.0118 -0.0366
18223W        W38503   2.319   2.822  11.833 -0.2489  0.0136  0.0808
18224W        W38504   7.546   3.193   4.642  0.1275  0.0045 -0.0569
18225W        W38505   0.031  11.980   1.243  0.2656  0.0790  0.1078
18226W        W38506  13.104  10.667   0.900  0.0713 -0.1057 -0.1984
18227W        W38507  12.835   1.034  15.343 -0.0135 -0.0233  0.1029
18228W        W38508   7.780  10.389  13.351  0.0001  0.2106  0.0062
18229W        W38509  11.310   5.307  12.179 -0.2342  0.2849  0.2996
18230W        W38510   4.436  11.890  10.746 -0.0070  0.2120 -0.0489
18231W        W38511   2.696   3.858   2.209 -0.0627 -0.1655 -0.0619
18232W        W38512   4.249   7.776  15.099  0.2048  0.0710 -0.1357
18233W        W38513   4.013  14.141  12.712 -0.2373 -0.0586 -0.0045
18234W        W38514   7.070   0.744  11.635  0.1439  0.0159 -0.0662
18235W        W38515  10.379  14.101  14.039  0.1036  0.2196  0.1847
18236W        W38516  16.596  17.454  12.994  0.1865 -0.1617 -0.0967
18237W        W38517   6.267  13.891   1.332  0.0153  0.4337  0.2525
18238W        W38518  13.067   8.312  12.978 -0.1515  0.0129 -0.0669
18239W        W38519  14.090  14.916   0.452 -0.1392 -0.2357  0.3008
18240W        W38520   3.205  13.635  13.775  0.2712  0.0024 -0.2147
18241W        W38521  13.359   7.215  14.672  0.0129 -0.0333 -0.0504
18242W        W38522   0.640  16.589   0.655 -0.2709 -0.3315 -0.0129
18243W        W38523  12.295   2.529   2.807 -0.0805  0.1135  0.3027
18244W        W38524  17.135   8.924   4.399 -0.0401 -0.1869 -0.1006
18245W        W38525  13.551  15.522  13.599 -0.0281 -0.0204 -0.2542
18246W        W38526  11.104   8.627   4.499 -0.1470 -0.1341 -0.2613
18247W        W38527  17.171  16.378  11.914  0.1461  0.0531  0.0086
18248W        W38528  14.050   6.723   4.711 -0.1463  0.1648 -0.1384
18249W        W38529   5.383  10.913   1.614  0.0875 -0.2737  0.0794
18250W        W38530   2.444  10.629  12.789 -0.2497  0.2490  0.0643
18251W        W38531   3.658   6.296   0.808  0.0074 -0.1604  0.0423
18252W        W38532   3.001   4.833   0.418  0.1057  0.1510  0.0666
18253W        W38533  12.587  10.862   2.349 -0.1475 -0.0156 -0.1041
18254W        W38534   6.345  15.144   4.696  0.0600 -0.0126  0.1906
18255W        W38535  15.125   1.216  15.065 -0.0565  0.2338 -0.5532
18256W        W38536   8.099  16.506  15.461  0.0469 -0.0927  0.3978
18257W        W38537  11.835   0.511   3.424  0.2920 -0.3145  0.0096
18258W        W38538   2.481   7.611   2.430  0.0816 -0.2102 -0.0591
18259W        W38539   1.127   7.522   2.900 -0.0549 -0.0822 -0.0006
18260W        W38540  14.166   8.780   0.625 -0.0580 -0.1879 -0.2072
18261W        W38541   3.742   9.766   0.596  0.0186  0.3486  0.0621
18262W        W38542   1.664   9.792  12.122 -0.0550 -0.0151 -0.1545
18263W        W38543  18.059   2.727   1.481 -0.2379  0.2770  0.0913
18264W        W38544  17.716   9.012   3.198  0.1879 -0.0986  0.2688
18265W        W38545  16.286   7.977   0.638  0.1399 -0.0828 -0.1373
18266W        W38546   9.173  17.101  15.457 -0.0853  0.0865  0.0732
18267W        W38547  16.592   3.171   0.772 -0.0561  0.0740  0.2134
18268W        W38548   7.848  12.284   1.965  0.3105 -0.1411 -0.3190
18269W        W38549   2.004  10.096  14.259  0.3129 -0.3077 -0.2070
18270W        W38550  12.140  17.273  12.746 -0.3491  0.2295 -0.2298
18271W        W38551   8.185  18.174   2.258 -0.2336 -0.0177 -0.0494
18272W        W38552  15.518   1.378  12.595  0.0050 -0.1132  0.5869
18273W        W38553  15.933  16.047  13.331 -0.3183  0.1151  0.1227
18274W        W38554   8.234   0.664   1.497 -0.0520  0.0249  0.1744
18275W        W38555  14.461   6.440   4.545  0.2677 -0.0728 -0.1359
18276W        W38556   2.240  10.753   4.239 -0.0145  0.1776 -0.1236
18277W        W38557  12.398   5.607   3.382  0.3152  0.0611  0.0608
18278W        W38558   8.794   1.014   3.033  0.2411  0.2092 -0.1940
18279W        W38559   6.187  16.437   4.113 -0.0723  0.0627 -0.5310
18280W        W38560  12.233  10.400  14.887 -0.0653  0.0759 -0.0128
18281W        W38561  13.245   8.310  13.902  0.0027 -0.0065 -0.0676
18282W        W38562   8.784   2.554  14.572  0.1238 -0.2825 -0.0390
18283W        W38563  15.808   5.430  11.678  0.1146 -0.2495  0.1338
18284W        W38564   3.943  14.871  14.317 -0.2257 -0.0284 -0.1534
18285W        W38565   1.354   4.041   4.291 -0.0385  0.3996 -0.3865
18286W        W38566   8.506   4.513  10.920  0.0197 -0.1335 -0.2128
18287W        W38567   3.796  12.173   0.150 -0.4530  0.1466 -0.1622
18288W        W38568  16.672   3.526   3.770  0.1299 -0.0115 -0.2084
18289W        W38569   2.307  17.067  11.376 -0.0374 -0.1625  0.0772
18290W        W38570   6.044   5.112  15.370  0.1266 -0.2128  0.0655
18291W        W38571  11.193  11.176   0.328  0.1001 -0.2617 -0.0364
18292W        W38572  11.049   9.171  14.943  0.0277 -0.2717  0.1042
18293W        W38573   7.776  12.806   2.193 -0.1162  0.0074  0.3926
18294W        W38574  12.939  10.040   3.510  0.0505  0.2949  0.3366
18295W        W38575  12.440  17.849  13.439 -0.1903 -0.0240 -0.0870
18296W        W38576   7.129   3.800  13.818  0.1658 -0.1217  0.0707
18297W        W38577   7.031   4.902  11.602 -0.3314 -0.0269 -0.2409
18298W        W38578   6.135   6.120  12.996 -0.3189 -0.1655 -0.2180
18299W        W38579  10.814   1.327  11.829  0.0569  0.0544 -0.0961
18300W        W38580   4.970   9.446  15.190  0.0087 -0.0240 -0.2676
18301W        W38581  11.064  14.436   1.184  0.0138  0.0425  0.1687
18302W        W38582  16.482  10.511  15.411  0.1234 -0.1037 -0.0928
18303W        W38583   1.107   1.681   4.284 -0.1090 -0.0360 -0.1320
18304W        W38584   5.825  15.787   1.429  0.0814 -0.0070  0.0600
18305W        W38585  10.569  17.979  14.427 -0.1662  0.0832 -0.2555
18306W        W38586  14.748  17.922   2.797  0.1630 -0.1620 -0.0594
18307W        W38587   9.019  12.218   3.604  0.1898  0.1099  0.0589
18308W        W38588  12.445   5.713   0.233 -0.1384 -0.1578  0.2604
18309W        W38589   8.149   2.603  11.482 -0.1533  0.0522  0.1008
18310W        W38590  11.544   5.158  15.926  0.2628  0.2007 -0.0584
18311W        W38591   0.108   2.151  12.804 -0.2287 -0.2307  0.0208
18312W        W38592  15.281  12.432   1.484 -0.0504 -0.1619 -0.1682
18313W        W38593   5.232   2.628  13.433  0.1195 -0.1156  0.2829
18314W        W38594  12.129  12.792  12.534  0.0885 -0.1628 -0.0054
18315W        W38595   4.696  11.771   3.652 -0.1201 -0.0199  0.0937
18316W        W38596  16.556  13.992  14.792  0.0452  0.3783  0.2160
18317W        W38597   8.735   9.866  13.573  0.1554 -0.0287 -0.2049
18318W        W38598  16.538  11.367  13.760  0.1245 -0.2024  0.1314
18319W        W38599  12.498   1.915   0.520 -0.2169  0.0347  0.1061
18320W        W38600  11.973   1.346   2.999  0.4156  0.2595 -0.0391
18321W        W38601   1.496  14.975   4.276 -0.1689  0.1851  0.2009
18322W        W38602  14.427  11.300   1.789  0.2048  0.3719  0.3364
18323W        W38603  12.396  15.887   2.173 -0.1313 -0.1780  0.0231
18324W        W38604  18.262   2.902  11.947  0.0045  0.0264  0.0371
18325W        W38605   9.348   9.027   3.969  0.0645 -0.1643  0.1300
18326W        W38606  17.897   7.616   2.355 -0.0441 -0.0699  0.2222
18327W        W38607  14.129  13.605  13.008 -0.0767  0.3690  0.3500
18328W        W38608   2.281   8.419   0.103  0.0474  0.0447  0.2023
18329W        W38609   8.839  16.633   0.307  0.0021 -0.1045 -0.2593
18330W        W38610  11.768  15.600  15.877 -0.1599  0.2902  0.0378
18331W        W38611   5.372   3.708  12.165  0.1103  0.0527 -0.1678
18332W        W38612   0.562  16.124   3.680 -0.0326  0.2681 -0.3028
18333W        W38613   7.218  11.837   1.660  0.0436 -0.0898  0.0514
18334W        W38614  12.479   7.095   3.791 -0.0274 -0.1928  0.0711
18335W        W38615   6.807   6.771  15.271  0.1225  0.0086 -0.1382
18336W        W38616   3.411   7.015   0.260  0.0472  0.0358 -0.3564
18337W        W38617   9.377   4.657   3.675  0.1324  0.2916  0.0399
18338W        W38618   0.418  14.126   0.569 -0.1314  0.0767 -0.1481
18339W        W38619   5.068  16.352   3.415  0.2783 -0.0701  0.2930
18340W        W38620  16.743  15.589   5.000 -0.0036 -0.0053  0.1393
18341W        W38621   4.950  17.238  14.458  0.2273  0.0111 -0.1259
18342W        W38622  15.495   6.107  14.880 -0.0419 -0.0876  0.0444
18343W        W38623  11.580  16.655   0.519  0.2537 -0.2414  0.0195
18344W        W38624   1.054   7.301  13.994 -0.1402 -0.0877  0.0029
18345W        W38625   3.951  16.936  13.791 -0.0889  0.1518  0.0706
18346W        W38626  14.688   2.809   3.691 -0.1224  0.1757 -0.1003
18347W        W38627   1.045   5.721   0.485 -0.1723 -0.0781 -0.1032
18348W        W38628  17.374   2.281  11.987  0.2385 -0.0748 -0.3763
18349W        W38629   5.405  17.628  15.668  0.0446 -0.2865  0.1255
18350W        W38630   8.352   5.989  11.142 -0.1903 -0.0844 -0.2815
18351W        W38631   4.265  18.096  12.671 -0.4525 -0.1128 -0.1173
18352W        W38632   9.559   4.343   2.304  0.0774 -0.1927 -0.0199
18353W        W38633  15.381   1.769   4.562  0.0541  0.0418  0.1609
18354W        W38634   6.582   8.152  14.685  0.2339  0.2444 -0.1998
18355W        W38635  17.185   5.665  13.168  0.0658 -0.4638  0.1245
18356W        W38636   7.769  13.872  14.609  0.3282 -0.3874  0.4410
18357W        W38637   6.502  16.626   1.519 -0.0780  0.2350  0.1070
18358W        W38638  11.212   5.552   0.090 -0.0017  0.1991  0.4853
18359W        W38639  13.178  12.171   0.316  0.2752  0.2018  0.5026
18360W        W38640  11.440  15.368   0.573  0.1249 -0.1465  0.1304
18361W        W38641  18.074  15.062  15.857 -0.1298 -0.1242  0.0007
18362W        W38642  18.191  16.031   3.161 -0.0023  0.0125 -0.0208
18363W        W38643  10.743   5.107  11.759 -0.0233 -0.0370  0.0892
18364W        W38644   6.523  16.263  11.343  0.3978  0.0775  0.0965
18365W        W38645  14.416   5.662  14.093 -0.1439  0.1967 -0.0509
18366W        W38646   8.657   8.811   1.536 -0.1545  0.4681  0.0707
18367W        W38647   0.882   7.710  13.810  0.0480  0.1919  0.0158
18368W        W38648  13.080  18.042  14.289  0.4664 -0.1506 -0.2398
18369W        W38649   1.485  15.721   0.129 -0.0304  0.0792  0.0971
18370W        W38650  14.175  18.285  15.246  0.0220  0.1126 -0.0103
18371W        W38651  17.093   7.881   1.750 -0.0105 -0.1316 -0.1257
18372W        W38652   6.933   9.308   2.215  0.2528  0.1805  0.2898
18373W        W38653  16.642  10.115  15.137  0.4049  0.0021 -0.2792
18374W        W38654  16.616  16.748   1.207  0.2365 -0.2767 -0.2159
18375W        W38655  12.191   4.718  14.718  0.0820 -0.3200 -0.1022
18376W        W38656   5.446   9.370   0.419  0.1320  0.0971 -0.2696
18377W        W38657  13.948   3.449   3.457 -0.4474 -0.1031 -0.3094
18378W        W38658  11.609   3.790   1.918 -0.0033 -0.0274 -0.1822
18379W        W38659   4.664   5.966   4.065 -0.3159 -0.2677  0.1160
18380W        W38660   4.257  17.740  14.268  0.4653 -0.1179  0.0064
18381W        W38661   2.017   6.428  14.067 -0.4064  0.2172 -0.0531
18382W        W38662   7.362  17.854   0.448 -0.1657 -0.0438  0.0015
18383W        W38663   2.392   6.731   2.797  0.1246  0.0788 -0.2079
18384W        W38664   4.919   0.202  14.826  0.2561 -0.2827  0.2016
18385W        W38665   7.078  12.856   5.238  0.0091  0.2121 -0.1152
18386W        W38666   0.745  15.115  13.804 -0.1308 -0.1879 -0.0596
18387W        W38667  18.284   1.615   0.355 -0.1803  0.2601 -0.0336
18388W        W38668  14.511   5.228  14.634  0.0142 -0.2902  0.0538
18389W        W38669  12.496  12.811   4.909 -0.0174  0.3534 -0.1928
18390W        W38670   6.278  13.841   2.784  0.0954 -0.3116  0.2280
18391W        W38671   4.215  15.615  14.955 -0.1729 -0.1603  0.0555
18392W        W38672   0.276   1.663   4.682  0.2224  0.0572  0.0747
18393W        W38673  10.851   5.415   0.692  0.2545 -0.0239 -0.0419
18394W        W38674  13.141  14.831   2.123  0.0809  0.1051 -0.0463
18395W        W38675   4.287   2.593  11.904 -0.1190 -0.0165 -0.0582
18396W        W38676  16.084  16.833  14.554 -0.1320 -0.0401 -0.0435
18397W        W38677   2.286  12.081   1.934 -0.0209  0.0431 -0.1632
18398W        W38678   9.632   4.064  10.626 -0.2621  0.0326  0.2349
18399W        W38679   8.382  17.138   4.570 -0.1599  0.1079 -0.0076
18400W        W38680   0.041  17.322  13.378  0.1289  0.2068 -0.1763
18401W        W38681  13.280  14.476   2.461 -0.0036  0.1123  0.1246
18402W        W38682   9.040   6.600  15.217  0.0777  0.0254  0.0342
18403W        W38683  11.317  12.399   2.133 -0.1775  0.1529 -0.3002
18404W        W38684   4.255   3.056   1.280 -0.3211 -0.0538  0.0166
18405W        W38685   8.142   2.608   0.062  0.1225 -0.0015 -0.1246
18406W        W38686   2.095   2.807  13.977 -0.2297  0.2216  0.1943
18407W        W38687   9.771   4.149  14.982  0.3069 -0.0062  0.0195
18408W        W38688   6.697  10.357  15.313  0.0083  0.1146  0.2354
18409W        W38689   3.207   6.435  13.123  0.2225 -0.1737 -0.2581
18410W        W38690   4.939   8.152   1.606 -0.3234 -0.2961  0.0000
18411W        W38691  13.123  17.526  12.926 -0.0848 -0.2052  0.1310
18412W        W38692  16.603   6.001  13.921 -0.5851  0.4402  0.0071
18413W        W38693  14.429  17.321  14.928 -0.0173 -0.0027 -0.0717
18414W        W38694   8.160   7.756  12.792 -0.0748  0.0327  0.2403
18415W        W38695  12.783   9.089  14.060 -0.0590  0.0873  0.1809
18416W        W38696   4.994   4.838   2.771  0.0733  0.1368  0.0547
18417W        W38697   2.873  17.799  12.315  0.1125 -0.0521  0.3970
18418W        W38698   3.095   5.218   2.035  0.2486  0.0509  0.1438
18419W        W38699  17.873   6.096  10.738 -0.3559  0.0201 -0.1688
18420W        W38700  13.486   5.753  13.753 -0.0894 -0.0766 -0.1807
18421W        W38701  15.333  15.204   0.392  0.2410 -0.1981  0.0230
18422W        W38702  13.192   1.265   1.622 -0.0999  0.3980  0.0996
18423W        W38703  14.800   5.087   4.430 -0.0193 -0.1127  0.3818
18424W        W38704  17.203   9.901   2.608  0.0444  0.1201  0.1221
18425W        W38705   9.886   1.959   4.183 -0.2127  0.0895 -0.2370
18426W        W38706   4.140   4.337  12.334  0.3271  0.3007  0.0442
18427W        W38707  12.707   3.952  15.053  0.1281 -0.0098  0.0598
18428W        W38708   5.478   4.756  15.069  0.1344 -0.1386  0.2669
18429W        W38709  16.984   8.186  14.300  0.2360  0.1829  0.1980
18430W        W38710   0.469   0.549  14.672  0.0360 -0.1400  0.0526
18431W        W38711  17.454   0.716  13.609  0.2773 -0.1881 -0.0974
18432W        W38712   6.777   2.888   1.771 -0.0803 -0.0342 -0.0175
18433W        W38713   2.193  13.662  10.731  0.0153  0.1080 -0.0679
18434W        W38714   8.423   6.309  13.875  0.2841 -0.2899  0.3220
18435W        W38715   2.094  11.610  15.698 -0.2129  0.1413  0.1332
18436W        W38716   5.447   8.651   2.356  0.0747  0.2553  0.2113
18437W        W38717   1.147   8.671  14.025 -0.1826 -0.3482 -0.0087
18438W        W38718   4.649  17.822  15.274  0.1902  0.2629 -0.2385
18439W        W38719   2.370   3.763  15.537  0.0919 -0.1427  0.0057
18440W        W38720   0.816  15.312   2.626 -0.0585 -0.0370 -0.3159
18441W        W38721  15.742  12.409  10.973  0.0456  0.2030 -0.0679
18442W        W38722  16.828   3.977   0.980 -0.4273  0.4687 -0.2541
18443W        W38723  14.532   8.913  12.283 -0.1989  0.2512  0.2507
18444W        W38724   8.758   0.403  15.242  0.0349  0.1138 -0.1292
18445W        W38725  16.963   6.635   0.792 -0.2446 -0.1971 -0.0682
18446W        W38726   5.809   1.907   4.365  0.1715 -0.2077  0.0891
18447W        W38727   4.179  16.320   0.356  0.1773  0.0901  0.0071
18448W        W38728  13.811  17.672   3.292 -0.2820 -0.4524  0.0399
18449W        W38729  14.240  18.186   2.740  0.1507  0.1365 -0.0914
18450W        W38730  11.640  12.758  11.340 -0.0302  0.1188  0.1101
18451W        W38731  10.719   0.901   1.409  0.0469  0.2204 -0.2354
18452W        W38732   6.861   8.925   3.965  0.1114 -0.2089  0.0201
18453W        W38733   2.365   6.024   4.591  0.0701  0.0687  0.2666
18454W        W38734  10.022  17.056  13.916 -0.0204  0.1084 -0.1472
18455W        W38735   6.789  17.649  12.439 -0.1850  0.1049 -0.1654
18456W        W38736   2.092   7.007   1.813 -0.2427  0.0194  0.2153
18457W        W38737   6.067   1.179   0.843  0.0837 -0.0813  0.1086
18458W        W38738  17.523  12.986  13.852 -0.0491  0.2048 -0.4083
18459W        W38739   3.366  18.294   2.436  0.1654 -0.3963 -0.0082
18460W        W38740   3.489   5.975   2.834  0.0131  0.0539 -0.1563
18461W        W38741   5.723  10.285  14.158 -0.1403 -0.0614  0.3810
18462W        W38742  17.519   5.159  14.242  0.0613  0.1186 -0.3824
18463W        W38743   8.788   3.979  15.224  0.2184 -0.0625  0.0854
18464W        W38744  17.020  12.218  15.775  0.1475 -0.4372  0.0271
18465W        W38745  12.520  12.707   0.871 -0.1711 -0.0969  0.1139
18466W        W38746   3.289  17.622  12.801  0.3005 -0.0900  0.1877
18467W        W38747   3.789   9.298  14.622 -0.0670 -0.4174 -0.0166
18468W        W38748   3.283   0.295  15.927 -0.0043  0.1428 -0.0785
18469W        W38749   5.547  15.219   0.770 -0.0266 -0.2457 -0.0195
18470W        W38750   0.985  13.763   0.211 -0.0975  0.0083 -0.2084
18471W        W38751  15.464  14.697  12.972 -0.2813  0.0678  0.2661
18472W        W38752   8.580   5.417  15.847  0.1048 -0.2339  0.4185
18473W        W38753  16.003  13.575   3.761 -0.0974 -0.0473 -0.0625
18474W        W38754  14.709  14.479   1.094  0.2440 -0.1875 -0.1959
18475W        W38755   4.918  17.968  12.564 -0.1731 -0.1688 -0.0373
18476W        W38756  12.781  16.769  12.553  0.0088  0.0884 -0.1243
18477W        W38757   4.367  11.034  15.813 -0.0190  0.2545 -0.2034
18478W        W38758   2.787  18.288  13.130  0.2438  0.2927  0.1914
18479W        W38759  12.862  10.907   1.896 -0.0053  0.2578 -0.0623
18480W        W38760   3.989  14.756  15.381  0.3131  0.0317 -0.0520
18481W        W38761   5.843  10.847   0.987  0.1773  0.0951  0.0680
18482W        W38762   8.682   5.632   2.231  0.0019 -0.2587  0.2985
18483W        W38763  15.810   6.687   3.284 -0.1435 -0.4356 -0.1484
18484W        W38764   4.175   7.484  12.428 -0.0601  0.1234 -0.1143
18485W        W38765   3.737  14.150   3.393  0.0700 -0.1107  0.6698
18486W        W38766   5.523   4.355   4.499 -0.1873 -0.0490 -0.2655
18487W        W38767   4.247   5.252   0.983 -0.0007 -0.1197 -0.2036
18488W        W38768  12.381  16.472  11.823 -0.2213  0.0784  0.1461
18489W        W38769  17.731  17.788   3.225  0.1381  0.0337  0.0912
18490W        W38770  14.694  14.425  12.709 -0.3259 -0.3467  0.3480
18491W        W38771   0.863  10.970   4.316 -0.0879 -0.4059 -0.0649
18492W        W38772   5.141   5.540   4.637  0.0046 -0.0320 -0.2349
18493W        W38773  16.391  15.291   4.431  0.2264  0.2244  0.0428
18494W        W38774   3.834   8.246  15.058  0.0011  0.1222 -0.1388
18495W        W38775   5.748  16.057   0.122  0.0836 -0.2300 -0.0444
18496W        W38776  17.624   0.564  12.195 -0.0096  0.0777  0.0030
18497W        W38777   4.512  17.619   0.332  0.3291  0.0472 -0.1275
18498W        W38778   5.528  13.292   5.498 -0.0068 -0.1277  0.0585
18499W        W38779   7.580  13.622   1.136  0.0955  0.0870 -0.0711
18500W        W38780  12.303  16.041  12.078  0.0025 -0.1213 -0.0323
18501W        W38781  13.934  17.502   0.931  0.0991  0.0027 -0.1740
18502W        W38782  11.133   4.210  13.481 -0.2100 -0.2179 -0.1584
18503W        W38783  11.372  15.463  11.483 -0.0642  0.0089  0.2794
18504W        W38784   5.448   4.746   1.123 -0.0051  0.1555 -0.0388
18505W        W38785   7.023  15.532  10.575  0.0405 -0.0804 -0.1031
18506W        W38786  13.155  10.679  13.457  0.0290 -0.1115  0.0324
18507W        W38787  10.468   6.933   2.797 -0.1655 -0.0924 -0.3138
18508W        W38788   8.830  15.410  15.644  0.1889  0.0864  0.0579
18509W        W38789   3.965  16.660   3.037  0.0268 -0.1679  0.2126
18510W        W38790   8.105   1.948   0.961 -0.1013  0.1256  0.0222
18511W        W38791  13.140  12.315  12.524  0.1096 -0.2780 -0.0713
18512W        W38792  10.385   3.121   3.125  0.0410  0.2760 -0.1827
18513W        W38793  14.814   3.272   1.542  0.1501 -0.3679  0.1563
18514W        W38794  11.888   0.884   0.885 -0.2769  0.1261  0.0963
18515W        W38795  17.706   7.031   4.396 -0.1788  0.1266 -0.2255
18516W        W38796  15.958  18.033   2.650  0.2237 -0.0587 -0.0728
18517W        W38797  14.232  17.759  15.349 -0.0902  0.0198 -0.0733
18518W        W38798   5.681  11.186   0.612  0.0483  0.0290 -0.2248
18519W        W38799  11.543   1.776  14.321  0.2105  0.2896 -0.0982
18520W        W38800   4.674   0.959   2.019  0.0370  0.1620 -0.0299
18521W        W38801   3.467   6.565  13.657 -0.2050  0.2031  0.1518
18522W        W38802  10.066   9.463   3.973  0.0843  0.2792 -0.0519
18523W        W38803  13.356  17.354   2.449  0.1452 -0.2663  0.0943
18524W        W38804   5.343  12.695  13.580 -0.0280  0.1440  0.5657
18525W        W38805   5.212   2.376   2.552  0.2108 -0.0313 -0.1602
18526W        W38806  10.375   5.632  15.447 -0.0137 -0.0252  0.2673
18527W        W38807   8.533  14.994   2.233  0.2621  0.3212  0.1085
18528W        W38808   8.634   7.631   0.151 -0.1845 -0.0722  0.2032
18529W        W38809  14.102  15.938   0.780 -0.0469 -0.2623  0.1214
18530W        W38810   3.897  12.069   0.679  0.0568 -0.0075  0.0641
18531W        W38811   6.346   9.913  15.808  0.1152 -0.0894 -0.0724
18532W        W38812   7.852  16.170   2.046  0.0336 -0.0811  0.3767
18533W        W38813   5.075   7.216   0.151 -0.2304 -0.0035 -0.0429
18534W        W38814  15.768  11.411  12.159  0.0185  0.3280 -0.1619
18535W        W38815  11.834  12.162  13.638  0.3987 -0.0456 -0.1633
18536W        W38816  15.098   3.626  15.000 -0.1454  0.1679  0.3538
18537W        W38817  14.322  17.791  13.951 -0.3149  0.1312  0.0131
18538W        W38818   3.090  10.176   0.733  0.0733  0.0701 -0.2224
18539W        W38819   9.236   2.031  15.432 -0.0326  0.0072  0.3739
18540W        W38820  11.086  18.012   4.254 -0.2002  0.2683 -0.1142
18541W        W38821   3.246  15.954  12.310  0.0454 -0.0277  0.0424
18542W        W38822  16.302   3.334   0.350 -0.1342  0.0573 -0.0209
18543W        W38823  11.662  11.196  13.302  0.0987  0.0054  0.0351
18544W        W38824   9.610  16.501   0.905 -0.1408  0.0336 -0.1059
18545W        W38825  18.169   6.456  14.853 -0.0249  0.1379 -0.2115
18546W        W38826   5.879  13.572   4.296 -0.2369  0.1551  0.1762
18547W        W38827   8.449   4.885  11.875  0.1423  0.1656 -0.2146
18548W        W38828   0.307  12.904   0.980  0.1026  0.1561 -0.2413
18549W        W38829  17.364   1.753  15.269 -0.1924 -0.0147 -0.0301
18550W        W38830   2.381  17.178   0.673 -0.1992  0.0208 -0.0203
18551W        W38831  16.068  15.121  14.309  0.3157 -0.0546 -0.1761
18552W        W38832   3.495  16.123  11.869  0.1338 -0.0275 -0.1810
18553W        W38833   6.022   9.082  13.785  0.2533  0.0934 -0.0112
18554W        W38834  10.969   6.179  15.689 -0.0726  0.1524  0.0069
18555W        W38835   3.010   4.841  13.185 -0.0000 -0.1170 -0.3330
18556W        W38836   6.435   0.786   3.496 -0.1772 -0.1147 -0.1057
18557W        W38837   5.154  14.179  12.039  0.4726 -0.0800  0.1509
18558W        W38838  14.390  10.259   0.511  0.3556  0.0192 -0.2371
18559W        W38839  10.052  16.700   3.169  0.2338 -0.1381  0.4476
18560W        W38840  14.540   0.094  12.496  0.0347  0.2037  0.0908
18561W        W38841  13.981   5.739  12.229  0.1290  0.2291 -0.1006
18562W        W38842   8.272  12.339  11.236  0.1327  0.1644  0.2276
18563W        W38843   2.526  13.618   4.380 -0.0654 -0.0430  0.0767
18564W        W38844  11.777   6.115   2.077 -0.2309 -0.2577  0.1233
18565W        W38845   4.049   6.784  14.810 -0.0170  0.1379 -0.3499
18566W        W38846  12.402  15.231   3.215  0.0798 -0.1086  0.0463
18567W        W38847  13.846  14.374  13.994  0.2577 -0.2150  0.3195
18568W        W38848  10.976  12.404  15.625 -0.0993  0.0523 -0.0923
18569W        W38849   0.605   5.850  15.157  0.1840  0.1092  0.2228
18570W        W38850  10.220   8.748  13.351 -0.1898  0.3204  0.1478
18571W        W38851  11.941   6.341   5.100  0.4076  0.4104 -0.2237
18572W        W38852  10.729   4.618  11.573 -0.1197  0.0181 -0.2555
18573W        W38853   8.048  12.597   4.364  0.0919  0.0854  0.2570
18574W        W38854   3.256   8.113   3.635 -0.1824 -0.0786  0.0386
18575W        W38855   1.702  11.837   2.238  0.3566  0.6180  0.1970
18576W        W38856   0.467  13.156  15.528 -0.0761 -0.2442  0.1067
18577W        W38857  10.965   9.280  12.423  0.1711  0.2099  0.1393
18578W        W38858  17.777   7.163   0.944 -0.1023  0.1199  0.3233
18579W        W38859  12.036   6.011   0.129  0.0930  0.2286  0.1426
18580W        W38860  11.262  11.083  12.574 -0.1326  0.3856 -0.0324
18581W        W38861  14.168   9.020   3.796  0.2463  0.0771  0.1512
18582W        W38862  15.810  12.863   0.804 -0.0588  0.0217  0.0957
18583W        W38863  17.887   7.315   1.780 -0.1741  0.0911  0.0364
18584W        W38864   0.822   1.227   1.413  0.0389  0.0317 -0.2118
18585W        W38865   3.113  15.540   0.852  0.3526  0.2521 -0.1472
18586W        W38866   4.437   8.248   3.296  0.3855 -0.0622  0.0646
18587W        W38867   3.430   3.432   2.235  0.1653  0.0875  0.1396
18588W        W38868   6.571  16.650  13.452  0.1824 -0.0756  0.0858
18589W        W38869  13.491   9.777  12.100  0.1480  0.2977 -0.0196
18590W        W38870  15.008   2.541  15.820  0.1022 -0.2426  0.1552
18591W        W38871   7.553  16.739   4.614  0.1440  0.3606 -0.0241
18592W        W38872  14.670   5.094   1.049 -0.1914  0.1732  0.4523
18593W        W38873  12.810   4.066   4.231  0.0869  0.0390 -0.0564
18594W        W38874  17.583  13.933   0.797 -0.1194 -0.1905 -0.2348
18595W        W38875   2.748   4.714  11.623 -0.1249 -0.2034 -0.0059
18596W        W38876  16.237   2.106  14.813  0.1326  0.1132  0.3038
18597W        W38877  11.444   5.267   4.301 -0.0504  0.3669  0.3184
18598W        W38878  12.916   4.132  13.043  0.1570 -0.2347  0.0628
18599W        W38879   0.116  17.330  14.745  0.2779  0.0580  0.1126
18600W        W38880   4.624   2.389  15.765  0.2126  0.0814 -0.1961
18601W        W38881   2.917   8.818   0.523  0.0231  0.1350  0.0359
18602W        W38882   5.511   7.599   1.545  0.1400  0.0078  0.1177
18603W        W38883   7.099   5.238   0.191  0.0828  0.1057  0.0743
18604W        W38884   7.160   0.752  13.770  0.0119  0.1264 -0.0580
18605W        W38885   5.591  13.257  12.031 -0.0021 -0.3658 -0.0970
18606W        W38886   7.265   8.679   2.658 -0.2034 -0.3216 -0.2381
18607W        W38887   0.521   2.636  14.865 -0.1355 -0.0328  0.2065
18608W        W38888  11.606   1.721  11.744 -0.1597 -0.1743 -0.1139
18609W        W38889  15.035  11.008  12.047 -0.1341 -0.1159 -0.0327
18610W        W38890   2.584   5.896  11.694 -0.2219 -0.1973 -0.1185
18611W        W38891  12.028  17.090   0.924  0.1290  0.0849 -0.2604
18612W        W38892  10.842  17.141   0.367  0.2917  0.1155  0.1740
18613W        W38893  16.324  17.154  15.224 -0.2277 -0.1735 -0.1443
18614W        W38894   0.290  14.260  14.273  0.0570 -0.1003 -0.3035
18615W        W38895   2.059   5.970  15.372  0.0007 -0.0253  0.3324
18616W        W38896   1.709  11.065   0.619 -0.3154  0.0826  0.3726
18617W        W38897   1.300   5.308  14.727  0.3792  0.0711 -0.1749
18618W        W38898   1.653   5.050  15.448  0.1865  0.3679  0.0197
18619W        W38899  12.702   5.133  13.718 -0.4048 -0.1183  0.1822
18620W        W38900  15.945   6.300   2.415  0.0591  0.2637 -0.3029
18621W        W38901   0.293   9.637   1.754 -0.0149 -0.0749  0.1682
18622W        W38902   2.334   0.038  13.622  0.0807 -0.0942  0.0645
18623W        W38903   5.831   4.841  13.218  0.0583  0.0298  0.1384
18624W        W38904  15.697   5.846   3.039  0.1329 -0.2860 -0.0705
18625W        W38905   7.138   3.198  12.104  0.0913  0.3729 -0.0600
18626W        W38906   0.122   6.748   2.175 -0.0279 -0.0376 -0.0798
18627W        W38907   8.215  10.757   4.876 -0.0320  0.1546  0.0780
18628W        W38908  10.851   7.824   4.863  0.1471 -0.1991 -0.5114
18629W        W38909   7.225  17.723  13.391 -0.1892 -0.1488  0.0505
18630W        W38910  10.664  15.006   4.432 -0.2006 -0.1175 -0.0912
18631W        W38911   1.580  13.471   0.297 -0.0352 -0.0796  0.0615
18632W        W38912   7.569   0.957  14.007 -0.1075  0.2018  0.0504
18633W        W38913   5.626  17.428   2.721 -0.0462  0.4152 -0.1043
18634W        W38914  16.040  12.118   2.576 -0.0182  0.3877  0.0841
18635W        W38915   5.384   0.899  12.077 -0.0114  0.1042 -0.3206
18636W        W38916  16.057   9.906  13.029  0.0229 -0.3003  0.0286
18637W        W38917   9.980   4.038   1.980 -0.4820 -0.4584 -0.1007
18638W        W38918  11.977   6.609  14.331  0.0556  0.2140 -0.0184
18639W        W38919  16.507   9.262   4.054  0.4398 -0.1728  0.2071
18640W        W38920  13.580   8.781   1.991 -0.2415 -0.1935  0.0897
18641W        W38921   1.667  14.056   1.752 -0.0686  0.1459 -0.0367
18642W        W38922   6.262   0.907   2.468  0.1533  0.0936  0.1237
18643W        W38923  17.145  14.058   0.543 -0.2255  0.3296  0.2356
18644W        W38924  16.446  12.303   2.803  0.1589 -0.1530 -0.0816
18645W        W38925   3.836   2.196   2.127  0.1648 -0.0960  0.0726
18646W        W38926   3.855  13.575   2.052  0.0027  0.1279 -0.0804
18647W        W38927   8.601   8.409   1.824  0.0363 -0.2589 -0.5279
18648W        W38928   1.281   0.042   1.761 -0.1862 -0.1888 -0.0620
18649W        W38929   9.049   2.404  12.916  0.0090  0.0438 -0.2144
18650W        W38930   9.510  14.058   3.885 -0.2524  0.0713  0.2265
18651W        W38931  15.765  17.034  12.587 -0.0127  0.1250  0.0034
18652W        W38932  12.357  16.426   0.784  0.1221 -0.1365  0.2376
18653W        W38933   9.135   8.454   1.348  0.1812 -0.0974  0.0002
18654W        W38934  12.319   5.913  11.666 -0.2357  0.1327 -0.0584
18655W        W38935   8.842   5.129  14.489  0.0927  0.1659 -0.1974
18656W        W38936  11.498  17.389   5.510 -0.2471 -0.0332  0.1222
18657W        W38937   4.936   2.758   0.047 -0.0460 -0.1672  0.1084
18658W        W38938   5.544   9.490   1.288  0.2167 -0.2590 -0.1882
18659W        W38939  13.343  13.042   0.710 -0.1832  0.1111 -0.0345
18660W        W38940  15.917  18.300  14.942 -0.2110 -0.0058 -0.0097
18661W        W38941   6.373  13.755  12.120 -0.2534 -0.2484 -0.1871
18662W        W38942   0.348   4.806   1.809  0.0517 -0.1681  0.3917
18663W        W38943   6.162   4.430  11.755 -0.0626  0.1661  0.0467
18664W        W38944   6.555   4.919  15.779  0.4685  0.3532  0.1726
18665W        W38945  16.557   1.012   1.258 -0.1714  0.0347  0.2208
18666W        W38946   0.667   3.176  14.714  0.2517 -0.0940  0.0555
18667W        W38947   6.062  15.935  15.661  0.0296  0.3944 -0.1041
18668W        W38948   7.855   4.314  14.890  0.2503  0.0499  0.0007
18669W        W38949  13.433  11.688  13.652 -0.1408 -0.2892 -0.2760
18670W        W38950  14.536   3.565   1.857  0.0042  0.1393  0.1417
18671W        W38951  12.182   5.793  13.191  0.0288 -0.0785  0.2207
18672W        W38952  12.266  12.884  14.135 -0.2778 -0.0311 -0.0179
18673W        W38953   0.395  17.742   0.897 -0.1819 -0.0237 -0.0311
18674W        W38954  15.334  12.715  15.236  0.1359 -0.2365 -0.0347
18675W        W38955   0.993  10.752  15.858 -0.1419  0.2161  0.2459
18676W        W38956   6.286   1.841  14.461  0.3946  0.0576 -0.0398
18677W        W38957  15.371   5.559   3.240  0.0375  0.1812  0.1088
18678W        W38958   2.410  10.257   2.719  0.0802  0.2254 -0.0095
18679W        W38959   3.055   1.118   3.682  0.2162 -0.0216 -0.1965
18680W        W38960   2.128  12.031   2.443  0.1390 -0.0833  0.0181
18681W        W38961   6.672   4.004  15.434 -0.0737  0.0595  0.0634
18682W        W38962   9.792  12.639   3.638 -0.2773  0.0036  0.0292
18683W        W38963  15.493   8.482   1.642 -0.0300 -0.1738 -0.2486
18684W        W38964   4.047   0.541   1.441  0.0452 -0.5477 -0.0856
18685W        W38965   2.724   1.905   0.348  0.1013  0.3795 -0.0491
18686W        W38966   4.225  13.682  13.472 -0.1152 -0.1202 -0.2876
18687W        W38967   0.301  13.462   3.159  0.2362  0.1375 -0.0249
18688W        W38968  17.849  13.017   4.058 -0.1480  0.0856  0.0460
18689W        W38969   7.829  11.245   3.219  0.0638  0.2104  0.1733
18690W        W38970   4.842  13.712  15.838  0.1724  0.2182 -0.1465
18691W        W38971   7.196  18.046  11.613  0.0257 -0.1649  0.0843
18692W        W38972   3.090  15.570  15.471 -0.0905  0.1000 -0.1413
18693W        W38973   2.053  15.976   0.996 -0.2554  0.0085 -0.1600
18694W        W38974  17.143  17.896  13.798  0.0106  0.2616  0.0121
18695W        W38975   3.639   5.411   2.781 -0.0989 -0.2197  0.2640
18696W        W38976  16.393  13.417  15.868 -0.1916 -0.2012 -0.0100
18697W        W38977   0.788   0.922   3.226  0.0887  0.0799 -0.0074
18698W        W38978  13.191   2.501   2.867  0.0851  0.1760  0.1146
18699W        W38979   1.499  17.489  12.300 -0.0197 -0.1285 -0.2185
18700W        W38980   5.705  15.429   2.651  0.1077  0.1105 -0.1464
18701W        W38981   0.486   4.210   5.537 -0.3405 -0.0927 -0.4766
18702W        W38982   9.407   2.670   0.257 -0.1649  0.1318  0.0335
18703W        W38983  15.867   4.730   0.897  0.1970 -0.0370  0.2114
18704W        W38984   3.878  11.056   0.084 -0.2424 -0.2588 -0.0637
18705W        W38985   0.044  14.694   2.743  0.1789 -0.2196  0.1335
18706W        W38986  15.741   3.088   5.573 -0.0512 -0.0240 -0.1804
18707W        W38987   1.741   8.338  12.849 -0.2833 -0.2741 -0.0897
18708W        W38988  15.663   7.700   2.081  0.0653  0.2156 -0.0638
18709W        W38989  10.669  16.366  13.411 -0.0688  0.0621  0.3010
18710W        W38990  13.443   4.688  12.878 -0.3259  0.0278  0.2093
18711W        W38991   7.960   6.419   1.326  0.1123 -0.1099 -0.0215
18712W        W38992   7.502  13.624  13.840 -0.1847 -0.0074 -0.0295
18713W        W38993   8.365   8.886   2.026  0.0085  0.0242 -0.0260
18714W        W38994  10.971   4.438  14.409 -0.1599  0.0049 -0.3557
18715W        W38995   6.829  12.470  12.391  0.1147 -0.1521 -0.0915
18716W        W38996  10.354   1.919   2.735  0.1086  0.2120 -0.1390
18717W        W38997   5.203   6.986  13.862  0.4778 -0.1435  0.0229
18718W        W38998  16.951   0.617  12.842 -0.2947  0.0217  0.0446
18719W        W38999  17.757   6.712  14.666 -0.0639 -0.1553 -0.1537
18720W        W39000   3.790  14.497  14.975 -0.1542  0.1129 -0.2231
18721W        W39001   9.400   2.346  15.796  0.2216  0.2354  0.0525
18722W        W39002   7.888   9.527   0.656 -0.0034 -0.0883  0.3371
18723W        W39003  14.560  15.289   3.788 -0.1166 -0.1917 -0.0245
18724W        W39004  16.726   5.911  11.909 -0.1747  0.0146 -0.3828
18725W        W39005  16.678  14.238   1.727  0.1403 -0.0306 -0.1748
18726W        W39006   3.310  10.973   2.711 -0.0573  0.2138  0.0735
18727W        W39007   7.632   3.149   1.064  0.1135 -0.1478 -0.2019
18728W        W39008   6.656   0.375   0.809 -0.3774 -0.0616 -0.0537
18729W        W39009   6.242   0.185  12.559  0.2410 -0.1689 -0.1001
18730W        W39010  18.299   6.847   0.412 -0.1481 -0.0174  0.1677
18731W        W39011   0.338   1.583  14.648 -0.3117 -0.0072 -0.0012
18732W        W39012   9.255   5.112   2.728 -0.0408  0.0071  0.1683
18733W        W39013  12.145  11.392   2.920  0.1518  0.1198 -0.1255
18734W        W39014   8.500   4.386  15.172 -0.1121 -0.2687  0.0758
18735W        W39015   9.479  14.359   4.617 -0.0378  0.1730 -0.0569
18736W        W39016  15.773  10.951   0.465 -0.4554 -0.0569 -0.0734
18737W        W39017   4.372   0.481   2.907  0.0672  0.1499 -0.0100
18738W        W39018   5.592   2.480  12.732 -0.1227 -0.0246 -0.3010
18739W        W39019   2.343  12.456  12.902  0.1817  0.0474  0.0418
18740W        W39020   2.463   4.525   4.211 -0.0770  0.2377 -0.0325
18741W        W39021   5.134   5.237  11.442  0.0714  0.1253  0.1152
18742W        W39022   3.412  11.343  15.074  0.1700  0.1013 -0.0627
18743W        W39023   3.351  17.380  15.554  0.1158  0.1294  0.0647
18744W        W39024  16.958  11.575   5.674  0.0737 -0.1078 -0.1748
18745W        W39025   8.846   0.978   4.217 -0.0650 -0.0475  0.0148
18746W        W39026   1.200  14.546   1.446 -0.0728  0.0753 -0.0799
18747W        W39027   9.630   4.929   1.370 -0.1865  0.0596  0.1302
18748W        W39028  15.610  16.954   1.449 -0.1657  0.0733 -0.3253
18749W        W39029   8.203   5.775   0.672 -0.0557  0.0512  0.2378
18750W        W39030  17.838  13.893  14.183  0.2205 -0.1852  0.0825
18751W        W39031   1.724   7.120   0.384 -0.1480  0.0600  0.0073
18752W        W39032  12.745   8.479   0.924 -0.1525  0.1956  0.0900
18753W        W39033   2.675  17.430   1.740 -0.1406 -0.1348 -0.3447
18754W        W39034  13.233   0.045  14.907  0.1682  0.0586  0.1628
18755W        W39035   7.406   6.983  14.394 -0.1139 -0.1468  0.0576
18756W        W39036  11.594   7.466   4.348  0.1691  0.3798  0.2741
18757W        W39037  10.560   6.665   1.582 -0.0166 -0.1614 -0.0483
18758W        W39038   2.497  17.828   1.266 -0.1762  0.2360 -0.1633
18759W        W39039  15.182   5.154   0.142  0.2319  0.1504 -0.2834
18760W        W39040  17.150   9.435   0.220 -0.1154  0.0772 -0.2577
18761W        W39041  15.296   5.695  15.209  0.2242 -0.2400  0.1049
18762W        W39042   9.322   9.776   3.506 -0.0156  0.0184 -0.0155
18763W        W39043   5.400  15.292  13.891  0.1265  0.1370  0.1296
18764W        W39044   5.134   4.216  13.488 -0.0684 -0.2767  0.0757
18765W        W39045   5.124  15.503   1.019  0.2112  0.2422  0.0484
18766W        W39046   7.408  17.333  13.621 -0.0969  0.1216 -0.0228
18767W        W39047   2.221  14.596  14.783 -0.0889  0.2970 -0.2099
18768W        W39048   8.531  13.199   1.946  0.1365 -0.0922  0.2471
18769W        W39049  17.480  14.756   0.847  0.1312  0.1614  0.1012
18770W        W39050   2.549  14.813  13.621 -0.2348  0.0729 -0.0502
18771W        W39051  11.119   1.652   3.357 -0.2121 -0.2804  0.1293
18772W        W39052   8.721   8.726   3.548  0.3891  0.2998 -0.3545
18773W        W39053  11.083   0.119  10.951 -0.1488  0.0814  0.0133
18774W        W39054   3.703  18.329   3.948 -0.1995  0.0431 -0.0411
18775W        W39055   3.015  13.517   2.029  0.1146 -0.1943  0.0903
18776W        W39056   4.209   7.921   3.588  0.1864  0.0437 -0.1048
18777W        W39057   7.494  16.484   2.043 -0.3114 -0.2189 -0.4003
18778W        W39058   2.496   1.128   0.148  0.0533 -0.0954 -0.3125
18779W        W39059   9.636  10.724  12.998  0.0274 -0.3367 -0.1706
18780W        W39060   2.152  12.853  14.724 -0.3063  0.2023 -0.0218
18781W        W39061  16.555  13.616   4.224  0.2130 -0.2614  0.1920
18782W        W39062  12.124   7.098  14.499 -0.1495 -0.3457 -0.0231
18783W        W39063   2.069  16.771   3.372  0.1913 -0.0758  0.0340
18784W        W39064   8.223  15.597   0.772  0.0292  0.0707 -0.1491
18785W        W39065  12.021  17.136   3.732  0.1453  0.0848  0.2741
18786W        W39066   8.042   6.228  10.872 -0.0090 -0.3089 -0.1230
18787W        W39067   0.438   1.632  13.558 -0.2006 -0.2204  0.0214
18788W        W39068  10.674   5.700   4.295  0.2522 -0.2493  0.1253
18789W        W39069   8.657  14.526  11.577 -0.1639  0.1009 -0.0497
18790W        W39070  17.674  10.123   1.385  0.1410 -0.3075 -0.0738
18791W        W39071   1.227  13.001   2.116 -0.0486  0.1656 -0.4178
18792W        W39072  10.155  12.243   4.092  0.0717 -0.2091 -0.3404
18793W        W39073   7.521   7.020   0.251 -0.0829 -0.2237 -0.2194
18794W        W39074   7.264   1.628   2.153 -0.0126  0.0370 -0.0335
18795W        W39075  11.840   0.989   1.363 -0.2775 -0.1196 -0.0886
18796W        W39076  16.028   5.236  12.143  0.0321 -0.0003  0.1086
18797W        W39077  17.918  13.906   4.140 -0.0222 -0.0425  0.0112
18798W        W39078   3.754  15.584  11.607  0.1921 -0.0474  0.0142
18799W        W39079  17.822  11.447  13.553  0.0619 -0.1122  0.1666
18800W        W39080  10.868   3.340   2.897  0.1326  0.1054 -0.0620
18801W        W39081  11.800   4.329  12.488  0.0597  0.1500  0.1107
18802W        W39082   3.937   8.653   4.320 -0.0761 -0.0188  0.0062
18803W        W39083  16.935  16.211  11.509  0.0688 -0.1843  0.0782
18804W        W39084  15.331   1.877  12.205 -0.0998  0.1446  0.2353
18805W        W39085   5.406   0.071   3.044 -0.1984  0.1570 -0.0368
18806W        W39086  12.611  10.189   2.554  0.1654 -0.0801  0.1019
18807W        W39087  14.417  17.088   5.344  0.0769  0.1079  0.1943
18808W        W39088   0.691   2.702  15.318  0.1010  0.1657  0.0308
18809W        W39089  10.030   0.075  13.635  0.0772  0.1173  0.0445
18810W        W39090  16.512   2.557   2.001  0.1836  0.0156 -0.0743
18811W        W39091   0.337  14.733  13.297  0.0318  0.1839 -0.1305
18812W        W39092  13.995  13.803   2.963 -0.3466  0.3157  0.0881
18813W        W39093  11.248  14.547   0.597 -0.0958  0.0384  0.1275
18814W        W39094   9.702   0.621   2.796  0.1898  0.1122 -0.1631
18815W        W39095  13.610   7.495   2.919  0.1916 -0.3268 -0.1580
18816W        W39096   8.519   7.811  15.393  0.1445  0.1614 -0.2935
18817W        W39097  17.474  11.453  12.077  0.2400  0.0055  0.0007
18818W        W39098   7.542  11.150  12.636 -0.3372 -0.2957  0.1795
18819W        W39099   3.594   1.441  14.117 -0.1250  0.0659  0.1534
18820W        W39100   3.924   1.687   3.711  0.1303 -0.1943 -0.0714
18821W        W39101   8.476   2.581   3.262 -0.0060  0.0837  0.0946
18822W        W39102   2.804   4.404  12.723  0.2290  0.1056  0.3124
18823W        W39103   6.299  16.256   0.019  0.0900 -0.0224 -0.0263
18824W        W39104   1.797  11.407  11.921 -0.0200  0.0752 -0.2171
18825W        W39105  16.000   8.929  14.251  0.2374  0.1812  0.2442
18826W        W39106   6.847  14.496   2.453 -0.0688 -0.0390  0.3881
18827W        W39107  13.500  17.846   0.353  0.0057 -0.2292  0.2563
18828W        W39108   6.421   4.660  14.752  0.1554  0.3597  0.0506
18829W        W39109  13.976  17.520   1.795 -0.2182 -0.0298 -0.0713
18830W        W39110  10.636   7.614   0.954  0.1618 -0.1313 -0.1406
18831W        W39111   0.400  17.855   4.885 -0.0878 -0.0900 -0.0444
18832W        W39112   8.449   4.682  12.323 -0.1909  0.0832 -0.2771
18833W        W39113  13.942   5.094  11.653 -0.1218 -0.0799 -0.2103
18834W        W39114   3.491   6.414   4.219  0.0163  0.0515 -0.1049
18835W        W39115  14.900   0.265  13.984 -0.3012 -0.1618 -0.1695
18836W        W39116  12.739   4.387  14.359  0.0803  0.1727 -0.1586
18837W        W39117   8.091   4.792  15.029  0.2612 -0.0376  0.0243
18838W        W39118  18.335  17.056  14.287 -0.2717 -0.3540 -0.1253
18839W        W39119  14.117   6.159   1.250 -0.1921 -0.4319 -0.3488
18840W        W39120   9.038   2.333  12.355  0.3093 -0.1257  0.0713
18841W        W39121   1.848  11.020  13.268 -0.1763  0.0078 -0.1481
18842W        W39122  18.056   8.725  11.800 -0.1485 -0.0240 -0.0644
18843W        W39123  17.952   2.409  11.834  0.0085  0.5251  0.3025
18844W        W39124   5.054   2.880  15.054 -0.3919  0.0753  0.0369
18845W        W39125  16.080   0.327  12.369 -0.1855  0.3708  0.0416
18846W        W39126   2.927   7.545  11.220 -0.0777  0.0757  0.0571
18847W        W39127   2.517   2.571   0.795 -0.0520  0.0026 -0.2268
18848W        W39128   3.341  13.147   0.658 -0.1531 -0.1179  0.0635
18849W        W39129  13.546  12.903   2.947 -0.0091  0.2309  0.4725
18850W        W39130  10.051   7.622  15.188  0.1637 -0.1797 -0.0939
18851W        W39131   7.319  15.219  13.659 -0.0200 -0.1978 -0.0348
18852W        W39132   6.161   2.843   2.927  0.1949 -0.3002 -0.1133
18853W        W39133  12.491   9.050   1.353  0.1659 -0.2304 -0.0208
18854W        W39134  13.705   2.606   2.306 -0.1675  0.0106 -0.0015
18855W        W39135   4.298   3.592   0.551  0.1368  0.1244  0.0448
18856W        W39136  11.138  13.369   3.040  0.1181 -0.0678  0.0743
18857W        W39137  12.916  13.406   3.040  0.5776  0.0523  0.2082
18858W        W39138  14.324   6.454   1.579  0.2510  0.2710 -0.1730
18859W        W39139   6.149  11.896  12.557  0.1325 -0.1021 -0.0458
18860W        W39140   4.739  17.075   2.970 -0.3512 -0.2128  0.4453
18861W        W39141   5.319  13.830   0.405 -0.2767  0.0696 -0.0736
18862W        W39142  15.724  17.745   0.782  0.0425 -0.1617 -0.0815
18863W        W39143   1.265  10.128  15.108  0.2606 -0.0830  0.0581
18864W        W39144  15.407  13.417   2.721  0.0859  0.1605  0.2259
18865W        W39145   0.482  18.256   2.215  0.0433 -0.2228 -0.1703
18866W        W39146   9.783  14.228  12.241 -0.1259 -0.0975 -0.0228
18867W        W39147  14.793   7.300  13.174  0.1246  0.3005 -0.0171
18868W        W39148  12.755  11.802  11.371  0.0126  0.0836  0.0867
18869W        W39149   3.316  16.604  11.929 -0.2263 -0.3667 -0.2304
18870W        W39150   7.621  13.967  13.096  0.0081 -0.2823  0.2203
18871W        W39151  11.275  12.293   2.963  0.1876  0.1504  0.0054
18872W        W39152   3.035  13.640   4.367  0.2571  0.0031  0.1161
18873W        W39153   1.510  18.067   3.105  0.2294  0.0147 -0.0779
18874W        W39154  10.012   0.806  14.060  0.0346  0.1777 -0.0220
18875W        W39155   4.521  11.860  15.215 -0.3705 -0.2972 -0.0304
18876W        W39156  15.349   8.522   0.757  0.2350  0.1217 -0.0526
18877W        W39157   8.837  13.716  15.786  0.0627  0.2083  0.2312
18878W        W39158  13.410  17.889   2.534 -0.1120 -0.0454 -0.1133
18879W        W39159  17.942   4.138  14.613  0.1181  0.0900 -0.0547
18880W        W39160   1.227  12.175   2.242 -0.2199 -0.3440  0.1168
18881W        W39161  10.404  12.293  14.220 -0.1453  0.2211  0.1186
18882W        W39162  13.214   0.016  13.922  0.2464  0.0578  0.3537
18883W        W39163   6.867  18.127  12.198 -0.1141 -0.1375 -0.0776
18884W        W39164   3.863   3.320   3.789 -0.0534  0.1258 -0.0249
18885W        W39165  13.364   3.468  13.387 -0.0588 -0.1496 -0.1531
18886W        W39166  15.282   8.101   3.141 -0.0953 -0.0196  0.0200
18887W        W39167  14.513  13.006  15.516  0.1455  0.0898 -0.0565
18888W        W39168   6.959  15.386  11.762  0.1126  0.0323  0.3384
18889W        W39169   7.546  13.072   0.366  0.2257 -0.2214  0.0330
18890W        W39170  11.499   9.942  13.322 -0.1785  0.0537  0.0462
18891W        W39171   5.016  14.125  13.070  0.1306  0.2764 -0.0304
18892W        W39172   8.399  15.653  15.660 -0.0676 -0.1226 -0.1694
18893W        W39173  11.567   1.152  15.153 -0.0022 -0.3240 -0.1983
18894W        W39174   7.244  15.463   3.772 -0.1853  0.3955 -0.3512
18895W        W39175  14.109   9.545   0.080  0.1390 -0.0527 -0.2109
18896W        W39176   8.867   6.078  15.054  0.1910 -0.2224 -0.1319
18897W        W39177   3.579   8.540   1.714 -0.0508 -0.2097  0.2672
18898W        W39178  14.986   7.223   0.919  0.0563  0.0707  0.0183
18899W        W39179  12.664   8.002   1.311 -0.0161  0.0839  0.0637
18900W        W39180  11.681   6.586  15.157 -0.1790  0.2407  0.1785
18901W        W39181   0.457  16.019  15.850 -0.0789 -0.2205 -0.0833
18902W        W39182   6.601  12.178   3.715  0.1864 -0.2293 -0.0553
18903W        W39183  14.556  11.262  14.302  0.1955 -0.0357  0.0534
18904W        W39184  15.035   1.386   0.730  0.1077 -0.3273 -0.0198
18905W        W39185  10.174  16.715  11.545  0.0204  0.1966  0.1353
18906W        W39186  14.490   7.844  13.803  0.0247  0.0688  0.3415
18907W        W39187   1.223  17.067   3.476 -0.0031 -0.4313  0.0660
18908W        W39188   1.650  15.946  11.432 -0.0537 -0.3569  0.1882
18909W        W39189   9.960  10.056  12.284 -0.0557 -0.0660 -0.1441
18910W        W39190  13.741  13.304  13.086 -0.0097 -0.0066  0.0451
18911W        W39191   2.650   1.737   2.513 -0.0554 -0.1001  0.0990
18912W        W39192   4.135  13.540   4.050 -0.1573 -0.2125  0.0775
18913W        W39193  18.155  18.045   2.403  0.1676 -0.1439  0.0740
18914W        W39194  17.111  11.355   1.529  0.1263  0.1901  0.0594
18915W        W39195  13.821  14.875   3.273  0.0031  0.2464  0.0884
18916W        W39196   5.815  12.713   2.795  0.0669 -0.0999  0.0042
18917W        W39197  13.924   4.123  15.531  0.2542 -0.3051  0.0644
18918W        W39198   2.540  13.594  13.421  0.3427  0.0920 -0.1140
18919W        W39199   1.185   6.300  12.518  0.3324 -0.1403 -0.1862
18920W        W39200   0.848   0.624  12.438 -0.3165 -0.0227  0.1115
18921W        W39201   1.165  11.967   3.498  0.1098  0.2158 -0.1606
18922W        W39202   2.895  17.829  13.754  0.2525  0.1064 -0.3363
18923W        W39203  17.117   1.750   3.240 -0.2275  0.0516  0.0862
18924W        W39204  12.065  10.554  13.755 -0.1974  0.3689 -0.0249
18925W        W39205   7.885  13.679  11.972 -0.1817 -0.0540  0.0599
18926W        W39206   5.696  16.862  13.259  0.1799 -0.0707  0.0407
18927W        W39207  10.547   0.313  11.638 -0.2328  0.3038 -0.0350
18928W        W39208  12.212   5.314  14.578 -0.0826  0.0104 -0.3210
18929W        W39209   2.119   7.218   4.242  0.1698  0.2011 -0.0049
18930W        W39210  17.441   8.041  11.871  0.1873 -0.1141 -0.1025
18931W        W39211   3.755  15.094   1.417  0.1352  0.1417  0.3444
18932W        W39212   8.841   5.164   1.899  0.0290 -0.1315 -0.0757
18933W        W39213   4.115   3.265   0.094 -0.1498 -0.0724 -0.1269
18934W        W39214  12.847  11.957   3.593  0.4548  0.2939  0.2669
18935W        W39215  14.697  14.038  12.283  0.1251  0.0579  0.1504
18936W        W39216  13.771  10.546  15.821  0.1320 -0.0777  0.2464
18937W        W39217   1.239   8.820   4.528 -0.1361 -0.2271  0.3253
18938W        W39218   4.109  17.576   3.939 -0.1205  0.1472 -0.0928
18939W        W39219  17.715  14.064  15.771 -0.0710 -0.2603  0.1072
18940W        W39220   1.441  17.574   2.022  0.2223  0.0650  0.0583
18941W        W39221   9.650  18.140  15.306 -0.0501 -0.1808 -0.0108
18942W        W39222   6.971  12.323  13.017 -0.0736  0.1078 -0.2681
18943W        W39223  15.049  14.990   1.953  0.0355 -0.1657  0.0240
18944W        W39224   9.218   6.211  15.468  0.1139 -0.1548 -0.1262
18945W        W39225   4.691   2.431   1.172 -0.1344 -0.2657 -0.1715
18946W        W39226  14.217  16.376  14.668  0.0198  0.1250 -0.1844
18947W        W39227   0.066  11.106  14.410  0.0952 -0.2088  0.2904
18948W        W39228   0.388  12.471  12.579  0.2373  0.2289  0.0726
18949W        W39229  14.680  11.911   4.739 -0.0962 -0.1111 -0.1503
18950W        W39230   8.828   5.362   1.246 -0.1373  0.1539 -0.0503
18951W        W39231   6.897   0.894   3.310 -0.0923  0.2054 -0.0082
18952W        W39232   3.409   0.929   1.014 -0.1135  0.0068  0.0338
18953W        W39233  15.666  14.385  15.183 -0.1991  0.0643  0.1957
18954W        W39234  18.220   1.766   1.564 -0.3215 -0.2397 -0.2876
18955W        W39235   0.606   3.759  11.508  0.0427 -0.3516 -0.0517
18956W        W39236   7.078   7.660   1.426 -0.0703  0.0831  0.1827
18957W        W39237   5.700   3.463   1.598  0.1082 -0.0663  0.1046
18958W        W39238   0.990  16.126   2.387 -0.0746  0.1419 -0.0675
18959W        W39239   3.593   3.596   1.317  0.2798 -0.4989  0.0340
18960W        W39240   7.249   5.979   4.360  0.1462  0.1151 -0.1413
18961W        W39241  17.948  14.444  12.373 -0.2194 -0.2781 -0.0121
18962W        W39242   6.381  11.422   4.019  0.1186 -0.2447  0.0064
18963W        W39243  15.792  10.804   2.016  0.0985  0.1160 -0.1488
18964W        W39244   3.103   8.129  12.030  0.0163 -0.0394  0.2842
18965W        W39245  12.548   9.258  14.565  0.0691  0.1823  0.4956
18966W        W39246   2.713  14.257   1.841 -0.0629 -0.3508 -0.0598
18967W        W39247  11.740   1.030   3.419  0.2610  0.3088 -0.0759
18968W        W39248  11.088   9.461   2.035 -0.1525  0.0217 -0.1405
18969W        W39249   2.658  13.702  12.927 -0.0787  0.0768 -0.1736
18970W        W39250   0.320  17.787   1.468  0.2084 -0.2668  0.0826
18971W        W39251  14.246  10.830   2.032 -0.4478  0.0686 -0.0170
18972W        W39252  16.288  11.833   4.283  0.0536  0.2070 -0.0165
18973W        W39253  14.193  15.044   3.653  0.0953  0.0395  0.0017
18974W        W39254  16.197   4.418   0.154 -0.5273  0.3463 -0.1627
18975W        W39255   4.413  17.830   3.611  0.1088 -0.3312 -0.1011
18976W        W39256   5.078   3.007  13.926  0.2783 -0.1672 -0.2382
18977W        W39257   7.566  11.827  14.375 -0.3353 -0.1383 -0.0811
18978W        W39258   6.854   5.584   0.456  0.1338 -0.0619 -0.2981
18979W        W39259   5.529  12.822  15.206 -0.0330 -0.1844 -0.0785
18980W        W39260   0.151  15.279   0.705 -0.1299 -0.1011 -0.0406
18981W        W39261  13.259   7.678   1.076 -0.4055 -0.0511 -0.4216
18982W        W39262  12.613   6.363  14.435 -0.2637 -0.0473  0.2673
18983W        W39263   8.175   6.645   4.352 -0.0259  0.3280 -0.0063
18984W        W39264  18.209  12.716  11.878  0.1358  0.0142 -0.0159
18985W        W39265   9.382   0.484   0.018  0.1765 -0.3194  0.2109
18986W        W39266  17.664  13.248  12.499  0.2400 -0.0436 -0.1827
18987W        W39267   9.019  11.303   1.045  0.1887 -0.0040  0.0160
18988W        W39268   0.390  12.023   0.653 -0.3336  0.1055  0.0996
18989W        W39269  13.640  14.642   0.040  0.2774 -0.1949 -0.2990
18990W        W39270  17.550   9.207   4.488  0.0698 -0.0912 -0.3864
18991W        W39271  12.882  13.843  13.079 -0.0448 -0.1711  0.0060
18992W        W39272   6.848  16.848   3.463  0.1887 -0.1341 -0.0491
18993W        W39273  10.438   5.164  13.267 -0.0326  0.0092 -0.2671
18994W        W39274  14.230  15.401   0.120  0.0976 -0.1039 -0.1121
18995W        W39275   8.356   0.118  12.178 -0.0120  0.2536  0.1695
18996W        W39276   4.598   1.863   2.876  0.0154  0.4832  0.1313
18997W        W39277  12.791  14.872   2.541  0.0412 -0.0835  0.0212
18998W        W39278   5.208  10.515   3.825  0.0341  0.0772 -0.0638
18999W        W39279  11.628   1.857   1.503 -0.1468 -0.2968 -0.0203
19000W        W39280   5.158  16.439   0.432 -0.3699 -0.0164  0.0595
19001W        W39281   5.802   0.398  13.867  0.0945 -0.0137 -0.2421
19002W        W39282   8.564   2.228   4.311 -0.3986  0.2266 -0.0293
19003W        W39283   3.618   8.266  13.694 -0.2386 -0.0759 -0.2316
19004W        W39284  17.658  14.358   1.093 -0.0929  0.0488 -0.1251
19005W        W39285   3.769   4.194   4.030  0.2700 -0.1354 -0.1449
19006W        W39286  17.000   3.762  15.863  0.0013  0.2387  0.0984
19007W        W39287   6.888  17.748  13.725  0.1552  0.0401 -0.4306
19008W        W39288   9.666   7.301  11.870  0.1707 -0.0737 -0.1473
19009W        W39289  15.226  15.994   2.997 -0.1282  0.1862  0.0025
19010W        W39290  17.960   4.708  12.086  0.0715  0.0858 -0.1762
19011W        W39291  13.280  17.969  12.172 -0.0660 -0.1799  0.0217
19012W        W39292   8.793  11.820   1.930  0.2867 -0.1258  0.1714
19013W        W39293   2.972  14.535   0.985  0.3174  0.1499 -0.1967
19014W        W39294  17.406   2.984   2.619 -0.0648 -0.1669 -0.0200
19015W        W39295  16.855  12.329   0.404 -0.3183  0.1310 -0.3956
19016W        W39296  11.905  16.376  12.018 -0.2369  0.3155 -0.2589
19017W        W39297   7.266  15.102   4.530 -0.1383  0.0574  0.1911
19018W        W39298  16.231   2.135  11.476 -0.2427 -0.0136 -0.0319
19019W        W39299   9.512   7.128  13.784 -0.3586 -0.1205  0.0848
19020W        W39300  13.862   2.949   0.085  0.0945  0.1070  0.1228
19021W        W39301   1.311  10.594   3.945  0.3957 -0.1290  0.2805
19022W        W39302   4.813  15.896   1.146 -0.0106  0.0035  0.0181
19023W        W39303   7.035  16.051  11.266  0.1270 -0.0035 -0.0582
19024W        W39304  15.658   9.922   4.229 -0.2601  0.0126 -0.2540
19025W        W39305   6.336  15.434  13.504  0.1134  0.2660  0.2089
19026W        W39306  12.439   0.930  15.635  0.0538  0.0766 -0.0334
19027W        W39307   6.834   7.061   3.575  0.1174  0.3906 -0.1762
19028W        W39308   7.784   5.736   4.359 -0.0769  0.2446 -0.2040
19029W        W39309  17.952   3.790  11.786 -0.3262  0.2767 -0.2647
19030W        W39310   8.186  12.488  12.229  0.2980 -0.0037  0.2182
19031W        W39311  11.547  17.157  15.814 -0.0212  0.2703 -0.3414
19032W        W39312   5.504   8.613  14.675 -0.2315 -0.3356 -0.0271
19033W        W39313  12.173  12.945   1.101 -0.1507 -0.1834  0.2318
19034W        W39314   0.831   8.510  13.366  0.1833  0.0981  0.0151
19035W        W39315   0.851  15.173  14.296  0.1638  0.0227  0.0939
19036W        W39316   8.725   3.442   2.601  0.0584  0.0100  0.2650
19037W        W39317   4.184   2.226   2.937 -0.2937  0.1691  0.0316
19038W        W39318   5.458  13.204  13.511  0.1038  0.1473  0.3394
19039W        W39319  11.039  10.897   3.237 -0.0763 -0.1678 -0.2084
19040W        W39320   3.288   9.017   3.580  0.0892 -0.2581  0.1140
19041W        W39321  17.577  16.112  15.700 -0.2088  0.1853  0.0150
19042W        W39322   9.454  17.522   3.875  0.0669  0.0149  0.2926
19043W        W39323  15.295  13.656  14.789  0.0172  0.1884 -0.1014
19044W        W39324   0.686  12.328  11.768 -0.2831  0.1114 -0.4562
19045W        W39325   0.268   4.407   1.489 -0.1491  0.2102  0.0630
19046W        W39326  12.191  15.000  12.048  0.0646  0.2060 -0.1966
19047W        W39327  13.635   8.131  14.158 -0.1808  0.2846 -0.0692
19048W        W39328   8.861   1.474   1.578 -0.2981 -0.0432  0.1374
19049W        W39329  13.074  17.350   2.828 -0.1077  0.3630 -0.2315
19050W        W39330  16.318  11.043   4.314 -0.1363  0.2441  0.2102
19051W        W39331   0.104  11.184   1.785  0.0567 -0.4599 -0.0624
19052W        W39332   6.260   7.842  13.303  0.0301  0.0900 -0.1367
19053W        W39333   2.544   1.593  13.948 -0.2509  0.2093  0.0249
19054W        W39334   9.921  11.380   4.947  0.1198 -0.2081  0.0621
19055W        W39335   7.623   2.888   3.666 -0.2910  0.3503 -0.2226
19056W        W39336   4.454   8.725  14.046  0.0120 -0.0237  0.2719
19057W        W39337   0.701  17.862   4.043 -0.0394 -0.0658 -0.0244
19058W        W39338  16.389  10.690  12.498 -0.0039 -0.0470 -0.0401
19059W        W39339   4.161   9.689  13.659  0.4678  0.2229  0.0075
19060W        W39340   2.692   7.014  15.064 -0.2014  0.0790 -0.1188
19061W        W39341   7.610   5.651   0.900  0.1685  0.0742  0.2886
19062W        W39342   9.669  11.661   2.006 -0.1343 -0.0581 -0.1887
19063W        W39343  18.143  14.459   3.718  0.0636  0.2630  0.2187
19064W        W39344   1.884   5.892   3.101 -0.1680 -0.0519 -0.3523
19065W        W39345  16.598  14.291  13.876  0.1761  0.1725  0.1648
19066W        W39346   2.806   2.388   1.313 -0.1296 -0.1850  0.2051
19067W        W39347   9.903   6.909  14.490 -0.1832 -0.1730  0.2294
19068W        W39348   5.711  17.465   1.524  0.1678 -0.2634  0.0710
19069W        W39349   6.561   2.931   3.183  0.0275  0.0076 -0.2364
19070W        W39350  15.373   0.904  11.323 -0.2185 -0.0253  0.3219
19071W        W39351   8.774   6.866   1.686  0.0774  0.1518 -0.1802
19072W        W39352   7.300   7.306  12.234 -0.1352 -0.2724  0.0468
19073W        W39353  12.703  13.409  14.911 -0.0475 -0.2221  0.2136
19074W        W39354  16.020  17.825  14.580 -0.0579 -0.0959 -0.0769
19075W        W39355   6.960   9.768   0.292  0.0703  0.0722  0.1438
19076W        W39356   6.104  10.386   0.303 -0.3547 -0.1694  0.2592
19077W        W39357  13.224   8.494   3.151 -0.0352  0.0757 -0.1508
19078W        W39358   4.064   3.872   0.207 -0.0167 -0.1920 -0.1663
19079W        W39359  11.902  16.329   0.292 -0.0920  0.2370 -0.0247
19080W        W39360   7.882   1.819  10.998 -0.2782  0.1122  0.0028
19081W        W39361  11.231   1.045   3.551  0.3017  0.0856  0.2999
19082W        W39362  10.991  15.329   5.544 -0.0053 -0.4066 -0.1273
19083W        W39363   1.510   3.079  14.169 -0.0078  0.2871  0.1107
19084W        W39364   2.092   5.513  14.968  0.1354  0.2578  0.0336
19085W        W39365  15.369  17.298   2.243  0.4602  0.0486  0.2371
19086W        W39366  11.439  12.792   0.234 -0.1305 -0.1769  0.2167
19087W        W39367  11.967   7.178   5.157  0.2380  0.0316 -0.3291
19088W        W39368  16.947   5.392   1.070 -0.1715 -0.0729 -0.0252
19089W        W39369  17.910   2.655   3.860 -0.2097 -0.3444  0.3287
19090W        W39370  17.621   2.883  11.653  0.3063 -0.1869  0.0642
19091W        W39371  12.497  17.769  15.775  0.0653 -0.1650 -0.0406
19092W        W39372   3.564  11.356  11.385  0.0803  0.0908  0.0265
19093W        W39373  13.109  13.250   1.210  0.0372 -0.1595  0.1464
19094W        W39374  13.411  13.059  11.999 -0.1969 -0.0051  0.0918
19095W        W39375  17.624   8.681  14.870  0.1060  0.1178  0.3228
19096W        W39376   0.307  17.854   0.366  0.0739 -0.2149 -0.0247
19097W        W39377   6.613   7.611  14.638 -0.1543  0.1170 -0.1127
19098W        W39378  10.720   0.377  12.144  0.1698 -0.1265 -0.0026
19099W        W39379   1.590   5.866  13.445  0.3015 -0.0314  0.2244
19100W        W39380  12.396  17.229  15.922 -0.5238 -0.0245 -0.2363
19101W        W39381  16.958   4.312  12.495  0.1402 -0.1349 -0.0741
19102W        W39382  11.200   6.156   4.052 -0.1206 -0.0130 -0.0359
19103W        W39383   3.812  14.001  12.262  0.2094 -0.1691 -0.0548
19104W        W39384  18.309   8.059   0.860 -0.0760  0.0256 -0.0790
19105W        W39385  12.220   6.849   1.713 -0.1839 -0.1389  0.0007
19106W        W39386   5.655   5.291   4.430  0.3494  0.1666 -0.3495
19107W        W39387  10.319  10.037   1.110 -0.0518 -0.2957 -0.2002
19108W        W39388   3.400  14.676   4.162 -0.2384  0.0460 -0.1721
19109W        W39389  10.223  12.029  13.212 -0.0504  0.0956  0.1861
19110W        W39390  13.447   0.088  13.275 -0.1639 -0.2710  0.1508
19111W        W39391   5.901  15.482   1.842 -0.1336  0.1462  0.2997
19112W        W39392   1.831   8.916   2.093  0.2117 -0.1613 -0.3343
19113W        W39393  13.251   2.885  14.987  0.0751 -0.2236 -0.0451
19114W        W39394   4.239   4.160  15.780 -0.0510 -0.0996 -0.2852
19115W        W39395   0.490   7.419  12.786  0.0681 -0.3319  0.0653
19116W        W39396  18.122   1.903  11.840  0.0947 -0.1512  0.3393
19117W        W39397   2.437  10.882   0.122 -0.2110 -0.0588  0.1371
19118W        W39398  17.746   6.419  12.556  0.0998 -0.1021  0.0460
19119W        W39399   9.437  12.914  15.862 -0.0581 -0.0609  0.0923
19120W        W39400  15.665   5.344  13.963  0.3581  0.1930 -0.0716
19121W        W39401   2.511  12.346   3.025 -0.1251 -0.3465  0.2977
19122W        W39402   8.529   1.732   4.525 -0.0059  0.0320 -0.1952
19123W        W39403  13.079   2.546  11.761  0.0838 -0.0992 -0.0540
19124W        W39404   2.119  17.047   2.479 -0.4244 -0.0913 -0.2031
19125W        W39405   0.355  14.212  15.599 -0.1884  0.0203 -0.3095
19126W        W39406   6.325   1.536   0.632 -0.0364  0.1101 -0.0285
19127W        W39407  16.805   3.875   4.130  0.1605  0.0259  0.0245
19128W        W39408  13.826  14.115   2.118 -0.0788  0.0212  0.0311
19129W        W39409   2.943   7.323   2.474  0.0079 -0.0394  0.0769
19130W        W39410  13.160   0.698  14.550 -0.0260  0.1190 -0.0327
19131W        W39411  16.353  11.627   3.393 -0.2258 -0.1173 -0.1917
19132W        W39412   1.690   1.511  13.790 -0.0797  0.0497  0.1704
19133W        W39413   6.236  10.201  15.415  0.0007 -0.3691  0.1142
19134W        W39414  13.775  12.157   3.342  0.2628 -0.2210 -0.1011
19135W        W39415  13.658  10.071  14.404  0.1655  0.0579 -0.0572
19136W        W39416  10.167  16.808   2.714 -0.0293 -0.2534 -0.3034
19137W        W39417  11.446  10.420   5.683 -0.0617 -0.0112  0.0656
19138W        W39418   9.706  12.813   2.410  0.2573  0.1639 -0.0997
19139W        W39419  10.373   9.563  11.685  0.0924  0.0760  0.2029
19140W        W39420   2.027   1.436   1.839 -0.2108  0.0113  0.0806
19141W        W39421  14.026   6.454   0.262  0.0834  0.1322 -0.5826
19142W        W39422   9.944   6.842  13.883 -0.1050  0.1409 -0.1441
19143W        W39423   5.884   4.639   0.746  0.1041  0.0946 -0.2904
19144W        W39424   3.832  11.309  11.800 -0.1684  0.0883 -0.4035
19145W        W39425   6.263   8.181  14.253 -0.1345 -0.1702 -0.1604
19146W        W39426  16.479   6.525   0.938  0.0838 -0.1474  0.2597
19147W        W39427  12.255   4.510  11.723 -0.3204  0.0213  0.3206
19148W        W39428   4.474   0.522  15.324 -0.0454  0.0295 -0.0155
19149W        W39429  11.868   7.217  13.172  0.2334 -0.1308 -0.1098
19150W        W39430  15.153  17.930  11.218 -0.0411 -0.0607  0.0242
19151W        W39431   9.995   3.197  15.809 -0.0878 -0.0544 -0.1760
19152W        W39432  11.907  10.058   4.099 -0.1728 -0.1073 -0.0457
19153W        W39433   5.582   6.271   4.301  0.0464 -0.2323 -0.0561
19154W        W39434  13.666  16.525   4.403 -0.1250  0.0917  0.0549
19155W        W39435  16.473   6.863  12.583  0.2217  0.1272 -0.2591
19156W        W39436  10.902   2.692   0.763 -0.0472  0.0685  0.1910
19157W        W39437   5.665   0.990   1.141 -0.1777 -0.1109 -0.1355
19158W        W39438   1.204  17.127  12.444  0.2240  0.1881 -0.2647
19159W        W39439  14.273  16.464  11.439 -0.0922  0.1926 -0.1703
19160W        W39440  10.252  11.698   1.891  0.1968 -0.3888  0.2019
19161W        W39441   3.301  15.071  12.617  0.0386  0.1592 -0.2615
19162W        W39442   5.280  17.514  14.697 -0.0191 -0.2629  0.1606
19163W        W39443   2.346   4.110  13.657  0.0930  0.2131  0.0315
19164W        W39444  17.385   7.230  12.064  0.0196  0.2337 -0.3468
19165W        W39445  16.271   7.125  13.457  0.1279  0.0405  0.0348
19166W        W39446  15.782  18.254   3.108 -0.0054  0.1585  0.3945
19167W        W39447  14.633   2.818   4.250 -0.1110  0.0635 -0.2106
19168W        W39448  15.346   5.544  11.740  0.3052  0.0090 -0.1762
19169W        W39449  16.720   8.054   3.195 -0.3077  0.1273  0.1231
19170W        W39450  10.825  13.693   2.822  0.3613  0.0159 -0.3094
19171W        W39451  16.714  17.891  12.165 -0.0770  0.0150  0.2991
19172W        W39452   4.870  11.324   4.984 -0.0812  0.2330 -0.3014
19173W        W39453  11.862  16.289   0.782  0.1805 -0.2673 -0.0500
19174W        W39454  16.328   7.401  11.762 -0.1491  0.0381  0.1297
19175W        W39455  10.450  10.851  13.529  0.0422 -0.0681  0.0730
19176W        W39456   3.506   9.789   1.964 -0.0505 -0.0527  0.3847
19177W        W39457  15.545  15.711  11.998 -0.0528  0.1823 -0.0365
19178W        W39458   4.079  13.028   4.071  0.0775  0.0543  0.0361
19179W        W39459  10.131   2.824   4.618 -0.2318 -0.1689 -0.0500
19180W        W39460  14.234   5.206  12.100 -0.0012 -0.1396  0.3020
19181W        W39461   1.371  11.046  11.963 -0.0250  0.0141 -0.1924
19182W        W39462   0.314   4.292  12.345 -0.2371  0.0682  0.0768
19183W        W39463  13.251   9.137   4.145  0.0262  0.2359 -0.0000
19184W        W39464  16.026  15.761  14.665  0.2930 -0.0077 -0.0216
19185W        W39465   8.605  10.432   4.661  0.0368  0.0850  0.0921
19186W        W39466  18.199   1.634   3.761 -0.2120  0.2415  0.0149
19187W        W39467   3.389   9.058  15.056  0.4100  0.1091 -0.0138
19188W        W39468  15.459  16.076  12.931 -0.4480  0.0244  0.1292
19189W        W39469   7.778  11.986  12.793 -0.0106 -0.1132  0.1697
19190W        W39470  17.168   4.880   0.487  0.0673 -0.0038  0.1109
19191W        W39471  11.004   3.383   4.677  0.1980 -0.4353  0.0056
19192W        W39472   6.356  15.474  14.879 -0.0171  0.0157 -0.2331
19193W        W39473  12.482   2.043  15.572  0.0744  0.2613 -0.0043
19194W        W39474   0.224   8.918   3.638 -0.1295  0.0799 -0.0978
19195W        W39475   5.939   6.473  15.421  0.1129 -0.1749 -0.0066
19196W        W39476  13.543   8.842   3.008 -0.0665  0.1043  0.2411
19197W        W39477   3.339   7.628   3.652 -0.0881  0.0891  0.1159
19198W        W39478   4.113  12.822   0.900  0.2145 -0.2600 -0.2305
19199W        W39479   2.950   8.728   4.625  0.0193  0.1997  0.0572
19200W        W39480  17.043  12.159   3.920 -0.2731  0.1072 -0.1736
19201W        W39481   9.276   3.810  14.597  0.1125 -0.1675  0.1666
19202W        W39482  14.222   9.505  15.048 -0.4143 -0.0800  0.2163
19203W        W39483   8.498  17.038   3.604 -0.1370 -0.1606 -0.1005
19204W        W39484   1.145   5.559   1.521  0.1114 -0.2246  0.0188
19205W        W39485   7.755   9.852  12.470 -0.2353  0.0419 -0.0199
19206W        W39486   3.829  16.064  14.967  0.1046  0.0779 -0.1786
19207W        W39487   0.309   7.625   0.969  0.1352 -0.0938 -0.1962
19208W        W39488  17.228  15.367  13.252 -0.0517  0.0450 -0.0570
19209W        W39489   7.613   9.643  15.397 -0.5652 -0.1196 -0.0031
19210W        W39490  10.965   3.785   3.308 -0.1380 -0.1171 -0.1276
19211W        W39491   7.572  16.766  13.721  0.0410 -0.5015  0.1878
19212W        W39492   7.011   3.000   1.386 -0.2136  0.0230  0.0301
19213W        W39493   7.653   9.813   2.918 -0.0990 -0.3007 -0.0765
19214W        W39494   5.079  15.156   1.387 -0.1208 -0.1613 -0.2679
19215W        W39495   3.133   1.737  11.276 -0.0603 -0.1979 -0.3937
19216W        W39496  11.358  16.364   3.702 -0.0253 -0.2064 -0.0875
19217W        W39497  17.209  14.397  14.097  0.0747  0.1305  0.0045
19218W        W39498   4.261   3.657   2.011 -0.1797  0.0668 -0.1406
19219W        W39499  15.180  12.107   3.214  0.0085 -0.0589  0.1088
19220W        W39500   3.231  14.674   2.914 -0.0935  0.0947  0.2153
19221W        W39501   3.541  10.322   3.724 -0.2121  0.0522 -0.1406
19222W        W39502   2.825  10.801  12.181 -0.3952  0.0805  0.2154
19223W        W39503   7.842  14.372   2.400  0.0643 -0.1135 -0.1891
19224W        W39504  11.041   0.495  11.692  0.0330 -0.1757  0.3190
19225W        W39505   5.335   8.946   0.164  0.1985  0.1471  0.0418
19226W        W39506   3.659  11.179  12.793  0.1616 -0.0730  0.0705
19227W        W39507  10.579   3.354  13.572 -0.1518 -0.0301 -0.0581
19228W        W39508   7.433   0.806   2.349  0.0790 -0.1463  0.1144
19229W        W39509  17.362   7.917  15.716 -0.0968  0.0208 -0.0760
19230W        W39510   6.868   5.442   2.107  0.1214  0.1831  0.4366
19231W        W39511  13.662   5.027   2.510 -0.2816 -0.2428  0.0781
19232W        W39512   5.450  14.951   4.217 -0.1870 -0.0240 -0.2053
19233W        W39513   8.309   7.319  12.408 -0.2270 -0.0592 -0.1342
19234W        W39514   8.227  13.552   2.205 -0.5474  0.2668 -0.0205
19235W        W39515  12.222  10.844   1.991 -0.2226  0.0515 -0.3224
19236W        W39516   4.402   2.103  12.210 -0.2195 -0.1225  0.1193
19237W        W39517  14.475  13.438   3.939 -0.1107 -0.0697  0.1884
19238W        W39518   0.049   4.469  14.878 -0.0042 -0.0730 -0.0643
19239W        W39519   9.722  11.988   0.815  0.0461  0.1376 -0.0379
19240W        W39520   9.456   5.887   4.359 -0.1738 -0.1187 -0.1167
19241W        W39521   5.466  17.232  14.212  0.1487  0.0822  0.0521
19242W        W39522   0.848   3.075   3.965 -0.1803  0.2929  0.0361
19243W        W39523  17.254   6.210  15.191 -0.1918  0.4129  0.1602
19244W        W39524   3.916  12.387   1.094 -0.1069 -0.3277  0.2603
19245W        W39525   7.999  13.055   4.539  0.0119 -0.1405  0.0414
19246W        W39526   6.096   9.940   2.072  0.1595 -0.3227 -0.0069
19247W        W39527  16.957  15.806  13.892  0.2025 -0.0618  0.2213
19248W        W39528  14.311  14.748   2.522 -0.3309 -0.0301  0.3738
19249W        W39529   8.099   1.321   3.092  0.1944  0.0421  0.0713
19250W        W39530   8.423  11.206  13.272 -0.3955  0.3659 -0.0148
19251W        W39531   8.009   7.549  12.101 -0.2535 -0.1369 -0.0233
19252W        W39532  18.062  10.879   2.977 -0.0868 -0.1425  0.0383
19253W        W39533   3.609   0.086   0.747 -0.1501 -0.1397 -0.0823
19254W        W39534   8.745  17.320   0.994 -0.1423  0.3603  0.1039
19255W        W39535   3.939  10.284  12.693 -0.0346 -0.1827 -0.1444
19256W        W39536   8.180  11.965  14.165  0.2042  0.0162  0.0079
19257W        W39537  14.374  15.642  12.389  0.0893 -0.0095  0.1082
19258W        W39538   4.620  18.125  13.970 -0.2534 -0.0260  0.1695
19259W        W39539   1.866   9.883   2.655 -0.1696 -0.0062 -0.2949
19260W        W39540  13.109  12.030  13.903 -0.0341  0.3686  0.0946
19261W        W39541  12.470  10.281  12.888 -0.1026 -0.1091  0.0313
19262W        W39542  18.221   0.673   1.025  0.0631  0.0941 -0.0468
19263W        W39543   0.796   9.648   5.314 -0.2804 -0.1093  0.0195
19264W        W39544   4.074   7.747   4.067  0.0619 -0.0466  0.0410
19265W        W39545   8.738  11.041   0.618  0.0131 -0.0335 -0.0473
19266W        W39546   4.942  17.189   3.905  0.0082  0.0038 -0.0946
19267W        W39547  17.898   2.700   2.409  0.0161  0.2307  0.2088
19268W        W39548   6.013   2.483  11.869 -0.2869  0.0939  0.0484
19269W        W39549   5.994   0.525   3.630 -0.0983 -0.0448 -0.1866
19270W        W39550  10.377  16.999   1.007 -0.0180  0.1585 -0.0581
19271W        W39551  16.985  14.942   0.927  0.1885  0.1134 -0.2072
19272W        W39552   8.903   4.410   3.773  0.2557 -0.4300 -0.2241
19273W        W39553   5.815  11.717   2.532  0.0795 -0.2402  0.0695
19274W        W39554  13.024  18.271  13.433 -0.1837 -0.1174 -0.2611
19275W        W39555   4.556  12.989   2.369  0.4061  0.3495 -0.2606
19276W        W39556  13.805   9.991  11.690  0.1400 -0.0848 -0.2503
19277W        W39557   0.192  17.211   4.212  0.3901  0.0878  0.0685
19278W        W39558   2.979   0.879   2.825  0.2139  0.0904 -0.0374
19279W        W39559   9.119   3.332   0.492 -0.1176 -0.0717  0.2525
19280W        W39560   5.648  13.774   3.235  0.2517  0.3190  0.0042
19281W        W39561   8.526   1.856  12.210 -0.2144  0.1144 -0.2100
19282W        W39562   0.937   3.084  12.815 -0.1634  0.2839  0.2881
19283W        W39563   3.836   8.117  13.034  0.0044 -0.3544 -0.3028
19284W        W39564  16.909  17.928   2.491 -0.1562  0.0582  0.0580
19285W        W39565   1.957   2.128  13.241  0.0626  0.1754  0.1377
19286W        W39566  18.249  16.666  15.097 -0.2117 -0.1422  0.1581
19287W        W39567  12.081  11.478  15.230 -0.0733 -0.0363  0.0584
19288W        W39568   6.942   8.615  12.423 -0.0196 -0.0521 -0.2050
19289W        W39569   3.333  15.274  11.502  0.2727  0.1070 -0.0153
19290W        W39570  13.328   1.723   3.451  0.5705  0.1523 -0.0429
19291W        W39571   6.738  15.747  11.558  0.0168  0.1531 -0.1549
19292W        W39572  11.508  10.912   2.942  0.1089 -0.0934 -0.1335
19293W        W39573   4.766  13.155  11.361 -0.2734 -0.2015 -0.0582
19294W        W39574   7.936  15.323  14.781  0.1845 -0.1242  0.2832
19295W        W39575   1.188  16.925   1.533  0.2130 -0.2220 -0.4393
19296W        W39576  17.282   8.931  14.676  0.0280 -0.0269  0.2438
19297W        W39577   2.083   9.741  14.581  0.2054  0.0343 -0.0954
19298W        W39578  16.621   1.795  11.250  0.1423 -0.3463 -0.3124
19299W        W39579  17.436   3.866   3.256 -0.4679  0.3330  0.1184
19300W        W39580   6.393  11.390  13.185  0.1172 -0.0555 -0.2123
19301W        W39581   6.961  13.293  11.797 -0.0172  0.2608 -0.0398
19302W        W39582   7.361  11.651   0.296  0.1854 -0.3281  0.1177
19303W        W39583  14.782  15.322   4.315 -0.1243 -0.1633  0.0923
19304W        W39584  13.609   2.071  15.685  0.0820  0.1495 -0.1632
19305W        W39585   3.041  10.658  12.929 -0.0244 -0.2641 -0.0211
19306W        W39586  16.198  17.328   4.991 -0.1295 -0.0528 -0.0472
19307W        W39587   0.792   2.312  15.688  0.2881 -0.1940  0.0772
19308W        W39588  11.323   5.878   3.581 -0.2698  0.0992  0.3274
19309W        W39589  15.921  15.510   2.381  0.1077  0.0163 -0.1783
19310W        W39590   1.415   3.734   0.718 -0.2094  0.0835 -0.1621
19311W        W39591   5.603   0.000  13.054 -0.0837  0.0206 -0.2110
19312W        W39592   1.055   2.996   1.256 -0.1891 -0.2270  0.0761
19313W        W39593  11.880   5.085  15.522 -0.0102  0.1083 -0.0359
19314W        W39594   1.290   6.777   0.466 -0.2064  0.0310  0.1131
19315W        W39595   7.539   0.103   2.895  0.0847 -0.0442  0.1143
19316W        W39596  16.792   2.517   0.136 -0.1256  0.1853  0.0035
19317W        W39597  12.988  12.516   0.752 -0.0577  0.1108  0.3053
19318W        W39598  12.790   9.279   2.809 -0.1097 -0.1937  0.1061
19319W        W39599   8.491   2.491   1.304 -0.0904 -0.1205  0.1374
19320W        W39600  16.286  13.784   0.925  0.0524 -0.1638 -0.2488
19321W        W39601  15.247  11.403  15.153 -0.3239  0.2386 -0.3497
19322W        W39602   2.615  14.908  14.264 -0.2355  0.1851  0.1181
19323W        W39603  17.856   8.679   2.868 -0.1262 -0.1749 -0.1232
19324W        W39604  10.287   3.733  13.380 -0.1529 -0.2061 -0.1477
19325W        W39605  11.206   6.519   1.599 -0.1418  0.2894  0.0557
19326W        W39606  14.583   8.114   0.049 -0.1978  0.0602 -0.0493
19327W        W39607  16.100   9.498   1.115 -0.0792  0.2536  0.1809
19328W        W39608   0.699   6.686   2.968  0.0331 -0.2264 -0.3429
19329W        W39609  13.593   8.166   2.022 -0.0385 -0.0945 -0.0524
19330W        W39610   5.285   7.244   1.213  0.0390 -0.2529 -0.0283
19331W        W39611   5.424  13.883   1.217  0.4100  0.1125 -0.1823
19332W        W39612   4.161   1.174   1.361  0.0454  0.2708  0.0238
19333W        W39613   7.922   7.699   1.752 -0.1215  0.0325 -0.2752
19334W        W39614  15.775  16.008   3.539  0.2214 -0.2781  0.1583
19335W        W39615  15.180  14.026   3.993  0.1422 -0.1787 -0.2378
19336W        W39616  17.718  16.798   3.060  0.3600 -0.0208 -0.0585
19337W        W39617   2.993   0.321  12.800  0.0474  0.1622  0.1594
19338W        W39618   9.135   5.327  11.968  0.0282 -0.2730 -0.2282
19339W        W39619  17.692  15.623   4.526  0.1322 -0.1829 -0.0631
19340W        W39620  10.386  11.793  14.378 -0.0410  0.0316 -0.1229
19341W        W39621   6.209  16.799  13.083 -0.2451  0.2709  0.1140
19342W        W39622   3.632  11.915   1.142 -0.2956 -0.2468 -0.1206
19343W        W39623  15.741  11.326  14.574 -0.1787  0.3469  0.1456
19344W        W39624   0.844  16.209  14.012 -0.2065  0.1106  0.1223
19345W        W39625   8.873   3.675  12.304  0.3296 -0.0540 -0.0984
19346W        W39626  16.555   6.610  13.592  0.1516 -0.0117  0.1172
19347W        W39627  16.640  15.029  15.784 -0.1928 -0.4183 -0.0482
19348W        W39628   0.077  10.202   0.717  0.0980 -0.0734 -0.0212
19349W        W39629  10.526  13.645  13.252  0.0651  0.0503  0.1140
19350W        W39630  12.522  12.076  11.809 -0.3551 -0.0094 -0.0680
19351W        W39631  11.864   5.886  11.889  0.2488 -0.1731  0.1267
19352W        W39632  18.179  11.304  13.953 -0.4063  0.1875 -0.3941
19353W        W39633   9.500  16.876  13.300 -0.1525 -0.0291  0.1826
19354W        W39634  12.551   9.752   3.455  0.0760  0.0504  0.1691
19355W        W39635  16.225   4.872  12.952  0.0212  0.3088  0.1270
19356W        W39636   5.812   8.115  15.898 -0.4048  0.0577  0.2618
19357W        W39637   5.069   1.138  12.401 -0.2578  0.1174  0.0413
19358W        W39638  13.870  15.915  14.041  0.1649  0.0327  0.0416
19359W        W39639   0.456  11.448  14.346 -0.0959 -0.1044 -0.2282
19360W        W39640   7.144   1.738  13.798  0.3924 -0.3452  0.0829
19361W        W39641  13.223   0.410  13.598  0.0375 -0.0410 -0.0472
19362W        W39642   4.850   2.381   0.651  0.1709  0.0224  0.1615
19363W        W39643  17.346  16.629   3.787 -0.1729  0.0916 -0.1164
19364W        W39644   1.491  15.867   2.986 -0.0463 -0.0126  0.3479
19365W        W39645  12.389   5.226  15.458  0.0050 -0.0251 -0.0144
19366W        W39646  17.456   4.790   2.694  0.1540  0.2829  0.2268
19367W        W39647   4.718  16.569   1.793 -0.1461  0.0388  0.1801
19368W        W39648   8.415   0.437  14.231  0.1185 -0.2822 -0.1942
19369W        W39649  15.430   0.143  15.158  0.2817  0.4341  0.0653
19370W        W39650   2.745  14.061   4.308 -0.1564 -0.0999 -0.0147
19371W        W39651  11.885  17.643  14.973  0.2298 -0.1039 -0.1325
19372W        W39652   5.625  17.791  13.081 -0.2854  0.0664  0.0625
19373W        W39653   3.892   9.827  14.660 -0.0367 -0.0243 -0.0502
19374W        W39654  13.845  12.885   4.603  0.3693  0.1779 -0.0773
19375W        W39655   5.184  12.368   3.483 -0.0875 -0.0039 -0.0814
19376W        W39656  12.233  14.958  14.499  0.2827 -0.1111  0.0971
19377W        W39657  15.482  15.201   2.146 -0.0604 -0.1465  0.1917
19378W        W39658   1.415   3.638   4.590 -0.0217  0.1345  0.0662
19379W        W39659  14.614  15.422   2.748 -0.0907  0.0309  0.0018
19380W        W39660   8.688   6.589  15.923 -0.0194  0.1012  0.0148
19381W        W39661  13.150  11.489  14.580 -0.1553 -0.1994  0.0554
19382W        W39662   3.555   6.679  14.724 -0.2908 -0.1056  0.0200
19383W        W39663   3.227  18.020   3.955 -0.2175  0.1636 -0.0132
19384W        W39664   2.056  13.332  14.406 -0.0149 -0.1061  0.2675
19385W        W39665  13.895   7.754  12.585 -0.1018 -0.0083  0.1404
19386W        W39666   4.568  12.095  13.000 -0.3206 -0.1666  0.1755
19387W        W39667   8.787  15.233   3.920 -0.2563 -0.2892  0.3323
19388W        W39668   1.656  13.013   0.399  0.2793  0.0031 -0.0754
19389W        W39669   0.069  14.853   5.466  0.2385  0.2360  0.1203
19390W        W39670   2.851  15.028  15.224  0.0366 -0.1054  0.0670
19391W        W39671  11.713   7.206   0.267 -0.1656  0.4369 -0.0887
19392W        W39672  15.668  15.562   3.326  0.2974 -0.0553 -0.0294
19393W        W39673   7.431  15.018   4.017  0.2330 -0.2537 -0.0808
19394W        W39674   1.736  13.889   3.010  0.1034 -0.1177 -0.1121
19395W        W39675  16.027  11.321   2.411  0.0813 -0.2984 -0.1462
19396W        W39676  13.738   3.292   0.539  0.1365  0.0189 -0.1500
19397W        W39677   3.115  12.779  15.150  0.2748 -0.2910  0.2625
19398W        W39678  10.117   0.470  14.866 -0.1169  0.0881  0.2079
19399W        W39679  17.847  12.082   4.161 -0.1161  0.2213  0.1855
19400W        W39680  10.199   9.043   3.596 -0.3613 -0.1495  0.2824
19401W        W39681  14.789   6.768   2.487  0.1034 -0.0620  0.1615
19402W        W39682   1.366   6.244   0.433 -0.2905 -0.0448  0.0551
19403W        W39683   8.347  16.707   4.351 -0.1680 -0.2262 -0.3350
19404W        W39684  10.350   0.761   2.103  0.1682 -0.0943 -0.1116
19405W        W39685  16.672   3.814  11.594  0.1842 -0.1496 -0.2195
19406W        W39686  18.270   3.207  10.289 -0.0472  0.2797 -0.3521
19407W        W39687  14.955  13.798  14.432  0.0599 -0.0115  0.1132
19408W        W39688   1.280  17.892  10.456 -0.0877 -0.0467  0.1689
19409W        W39689   0.386   9.649  11.668  0.3585 -0.1043  0.2325
19410W        W39690  10.297  16.299  11.337  0.0732 -0.2683 -0.1392
19411W        W39691  10.846   2.624  11.629 -0.0380  0.0127 -0.0622
19412W        W39692  10.292   2.600  11.611  0.2832 -0.0099 -0.1738
19413W        W39693   6.416   9.539  13.962 -0.0826 -0.1672  0.2430
19414W        W39694   8.041   4.237  12.340  0.0253 -0.1852  0.0262
19415W        W39695   4.461  11.970   1.726  0.0611 -0.2884  0.0330
19416W        W39696  10.843   4.876  14.626 -0.1637  0.1733 -0.4503
19417W        W39697  16.830   3.907  13.708 -0.0351 -0.0201 -0.0925
19418W        W39698  17.152   7.036   4.513  0.1178  0.0375  0.0809
19419W        W39699   8.552   2.755   1.693 -0.1926 -0.1910  0.0562
19420W        W39700   5.787  18.052  11.465  0.0215  0.1582  0.0635
19421W        W39701  17.476   3.505  11.650 -0.2572 -0.0679 -0.1474
19422W        W39702   8.700   7.670   4.896  0.0507  0.2108  0.1175
19423W        W39703  11.980  12.285  15.028  0.1215 -0.0460  0.1512
19424W        W39704   2.578   5.317  14.866 -0.0328 -0.1336 -0.1199
19425W        W39705  16.219   0.877  15.394  0.0697 -0.0605  0.2881
19426W        W39706   7.598  11.559   1.857  0.1883 -0.0814 -0.0363
19427W        W39707  16.749  13.446  14.061  0.2029  0.1165  0.0435
19428W        W39708  17.497   1.275   4.083  0.0925  0.0047  0.0693
19429W        W39709  11.551   0.060   3.455 -0.1758  0.0905 -0.0194
19430W        W39710   3.607   5.309  12.392  0.0468 -0.0160  0.0148
19431W        W39711   7.334   4.232   0.981  0.0132  0.2652 -0.2079
19432W        W39712   9.977   6.629   2.586 -0.2989 -0.0604 -0.2745
19433W        W39713   2.228   1.366  10.536  0.1289 -0.0689 -0.0226
19434W        W39714  13.448   2.257  11.962  0.0389 -0.4107 -0.1754
19435W        W39715   0.396  10.330   2.813  0.0026  0.0627  0.0159
19436W        W39716   0.223   1.735  11.865 -0.0717  0.1642  0.0179
19437W        W39717   4.150  11.855  13.249 -0.1941  0.0209 -0.3822
19438W        W39718  15.478   1.850   4.072 -0.0131 -0.0650 -0.2633
19439W        W39719   6.511  17.285   0.307  0.1891 -0.1648  0.0225
19440W        W39720   8.636  10.166  13.171  0.1761  0.0412  0.1279
19441W        W39721   3.728  10.944  13.831 -0.1560  0.0671 -0.4412
19442W        W39722  18.234   2.384  13.536  0.2881  0.0121 -0.0940
19443W        W39723   6.818   4.526  15.591 -0.1232 -0.0172  0.0937
19444W        W39724  11.198  13.271  14.293  0.1368  0.0235  0.2551
19445W        W39725   8.048   6.097  15.340 -0.2429  0.1337  0.4491
19446W        W39726   0.944  13.722   2.453 -0.0730 -0.1204 -0.1164
19447W        W39727  11.922   9.669   2.682  0.2497 -0.0287  0.1103
19448W        W39728   8.870   3.670   0.789  0.0115 -0.1208 -0.0046
19449W        W39729   2.199   4.567  14.254  0.0353  0.0680  0.0679
19450W        W39730  17.326  12.493  14.061 -0.1496  0.2035  0.0963
19451W        W39731   7.461  13.829  15.274  0.1548 -0.2572  0.2898
19452W        W39732   4.210   8.402   2.816 -0.1164 -0.1031  0.1378
19453W        W39733  14.479   3.450   2.687  0.0099 -0.0607 -0.0214
19454W        W39734   7.168   2.986   4.911  0.0392  0.1826 -0.2299
19455W        W39735   6.954   9.904  12.524  0.1780 -0.3190 -0.0258
19456W        W39736  13.157  13.397   1.774 -0.1275  0.0398  0.2328
19457W        W39737  14.915   4.837  14.107 -0.1435  0.1504 -0.0086
19458W        W39738   4.672   0.070  15.297 -0.0262  0.1821 -0.0424
19459W        W39739  11.083   5.265  13.345 -0.1647  0.2559 -0.0367
19460W        W39740  13.133  18.177   1.054 -0.1751 -0.0104  0.1258
19461W        W39741   0.322  17.028   3.725  0.0808 -0.0374 -0.1396
19462W        W39742   2.318   2.813   0.381  0.1647  0.3791  0.0023
19463W        W39743   4.792   8.685   4.023  0.0216  0.0325  0.2854
19464W        W39744  16.187  15.596  13.262  0.1582 -0.0186 -0.2199
19465W        W39745  10.853   7.836   3.311 -0.1091 -0.0303 -0.0457
19466W        W39746   2.684   6.236   3.660 -0.2450 -0.2219  0.0602
19467W        W39747   0.257  14.133   1.954 -0.2492 -0.2339 -0.2787
19468W        W39748   1.690  15.199  13.732  0.1944 -0.0532  0.4447
19469W        W39749   6.218   8.691   1.024  0.1080  0.0169  0.0162
19470W        W39750  17.491   4.563   0.168  0.0408 -0.1002  0.0110
19471W        W39751  14.921  13.085  11.734 -0.2319  0.1103  0.1848
19472W        W39752  11.075   2.533   3.648  0.3396 -0.0504 -0.0938
19473W        W39753   0.190   1.435   2.273  0.0937  0.3436 -0.3282
19474W        W39754  10.012   9.104   2.972  0.0695  0.1596  0.2861
19475W        W39755   1.567   6.120  15.264  0.0818  0.2416 -0.0312
19476W        W39756   3.344  13.681   0.611 -0.1658  0.3529 -0.2416
19477W        W39757  10.347   5.685   3.957 -0.1354  0.1485  0.0532
19478W        W39758   4.152   3.244   5.210 -0.0224  0.0641  0.1367
19479W        W39759   1.011   7.743   2.399  0.0486  0.0366 -0.0415
19480W        W39760   5.568   4.838   1.614 -0.1378 -0.0823 -0.0110
19481W        W39761  17.155   8.398   4.541 -0.1847  0.1292 -0.0203
19482W        W39762  15.897   5.441  13.510 -0.0600  0.0155  0.2728
19483W        W39763   6.627  12.547  10.946  0.0322 -0.0418 -0.2019
19484W        W39764  13.943   8.835   0.203  0.2142 -0.0368  0.0882
19485W        W39765   8.452  11.303  12.695  0.0111 -0.0002  0.0595
19486W        W39766  10.246  11.178   4.144 -0.3487  0.0680  0.1001
19487W        W39767  16.720  13.708   3.357  0.1328  0.1041 -0.1391
19488W        W39768  12.795  15.673   1.025 -0.1896  0.0347  0.0484
19489W        W39769   9.132  10.878   4.055 -0.1012  0.0517 -0.3974
19490W        W39770  10.349   0.645  12.426 -0.1219  0.2680  0.2105
19491W        W39771   9.644  17.590   0.761  0.2381 -0.3306  0.1279
19492W        W39772  15.976  16.826   0.205  0.1561  0.1292  0.0503
19493W        W39773  11.085  17.646  13.136  0.0275 -0.0807 -0.1730
19494W        W39774  14.149  14.440   0.198 -0.3463  0.0873 -0.1583
19495W        W39775  15.322   3.545   2.269 -0.0299  0.0519 -0.0987
19496W        W39776  12.012   8.519   2.147  0.1116  0.0117  0.0529
19497W        W39777   9.035  11.399   4.599 -0.2373 -0.1514  0.1074
19498W        W39778  16.404  16.381  12.375 -0.1050  0.0504  0.0358
19499W        W39779   0.281  16.852  13.152  0.3928  0.1324  0.0170
19500W        W39780   1.095  11.346  12.981 -0.3828 -0.0973  0.1557
19501W        W39781   3.561  10.093  14.926 -0.0538 -0.1766 -0.0031
19502W        W39782   2.069   6.451   4.386  0.1105  0.0445  0.0500
19503W        W39783  15.336   5.290  14.364 -0.0325  0.0272 -0.1258
19504W        W39784   1.012  15.604  12.023  0.2121  0.1310 -0.2547
19505W        W39785   5.392   8.341   0.085  0.0025  0.0080  0.0966
19506W        W39786   3.277   2.073   2.510 -0.0887  0.1855 -0.0227
19507W        W39787   7.872  17.590   3.270  0.2268 -0.1455  0.2213
19508W        W39788  17.700   7.556  15.126  0.0336 -0.0578  0.1340
19509W        W39789   5.827   3.879  12.251 -0.1558 -0.0965 -0.0888
19510W        W39790   9.531   5.508  11.628 -0.0944  0.2696  0.1965
19511W        W39791  15.895   6.911   1.715  0.0771  0.3300 -0.0450
19512W        W39792  16.835  12.393  13.331 -0.1429  0.0361 -0.0185
19513W        W39793   7.070  13.629   1.225 -0.0491 -0.0036  0.2816
19514W        W39794   0.864  16.233   1.118  0.0760 -0.1646  0.3830
19515W        W39795   4.290  10.099  13.483  0.1547 -0.5020  0.1477
19516W        W39796   5.755  12.119  13.700  0.2833  0.0925 -0.1282
19517W        W39797  16.433   6.414   2.447  0.1062  0.0634 -0.4498
19518W        W39798  15.685   2.448  12.713  0.1426  0.0862  0.0120
19519W        W39799  12.272   5.855  13.698 -0.2242  0.0821  0.1021
19520W        W39800   0.101   0.083   3.072 -0.0823 -0.0616  0.1856
19521W        W39801   9.011  12.872  12.437 -0.0295  0.0502  0.0929
19522W        W39802  10.391   7.106   4.878 -0.1810  0.3587  0.1486
19523W        W39803   6.093   6.653   0.291  0.0974 -0.2707 -0.0541
19524W        W39804   3.997  12.156  11.498 -0.2629 -0.1436 -0.1445
19525W        W39805   3.936  15.874   2.442  0.3430 -0.1498 -0.0242
19526W        W39806   9.718  12.587  14.616 -0.0923  0.3058 -0.0431
19527W        W39807  12.010  14.716   3.771  0.3083 -0.0755  0.2521
19528W        W39808   0.849  14.171   2.789 -0.3354 -0.1992  0.2675
19529W        W39809  15.382   2.270  15.191  0.2082  0.0594 -0.2144
19530W        W39810  13.100   0.440   2.835 -0.0024 -0.0898 -0.0534
19531W        W39811   2.781   0.643  15.517 -0.0654 -0.1091 -0.1369
19532W        W39812   3.089   8.299  10.360  0.1145  0.0627  0.0689
19533W        W39813   5.409   1.018  14.345 -0.0818 -0.2286 -0.0773
19534W        W39814  18.064   2.876  15.565 -0.4277 -0.0246  0.4526
19535W        W39815  11.236   3.053  15.578 -0.0753 -0.0345 -0.1482
19536W        W39816  12.311  14.728  11.588  0.0527  0.0705 -0.0559
19537W        W39817   2.368  17.447  13.868 -0.2344  0.0429 -0.2667
19538W        W39818  13.150  16.027  11.901  0.0241 -0.0410 -0.1558
19539W        W39819   0.731  12.115   3.825  0.0413 -0.1785 -0.2785
19540W        W39820   8.360  11.634  15.267 -0.0002 -0.1065  0.0170
19541W        W39821   7.633  14.830   2.259 -0.0537  0.2158 -0.4550
19542W        W39822  11.104  12.128  15.249  0.0666  0.2296 -0.1526
19543W        W39823   2.718  12.829   3.472  0.2226  0.3313 -0.2289
19544W        W39824   8.359   0.169   1.324  0.0678 -0.2483 -0.3007
19545W        W39825  14.354  16.156   4.405 -0.2084 -0.0033  0.0041
19546W        W39826   6.760  12.496  15.008 -0.1569  0.5951  0.0901
19547W        W39827   4.364   4.947  14.268 -0.0686  0.0383  0.3243
19548W        W39828  14.327  13.680   2.220 -0.0016  0.1278  0.2155
19549W        W39829  14.290  13.157   1.754  0.0260  0.0682 -0.3144
19550W        W39830   2.109   8.404   4.151  0.0943  0.1119  0.1273
19551W        W39831  13.819   5.334   0.953  0.0742 -0.0158  0.0235
19552W        W39832   1.763   3.467  12.009 -0.0316 -0.2580  0.1372
19553W        W39833   3.461  11.899   2.856 -0.0007  0.1020 -0.0048
19554W        W39834  10.229   1.911  13.674  0.2738  0.0539 -0.2315
19555W        W39835  15.620   4.310   0.694  0.1077  0.0121  0.3003
19556W        W39836  15.833   7.481  13.039 -0.2004  0.0808  0.0954
19557W        W39837   4.556   4.602  15.747 -0.1583  0.1756 -0.0404
19558W        W39838   9.946   0.016   3.666 -0.3534  0.1093  0.0458
19559W        W39839  14.929   9.879   1.233 -0.0707  0.3126  0.1493
19560W        W39840   4.993  10.561  14.190  0.1561  0.1609 -0.0232
19561W        W39841   3.094  17.989  11.943 -0.0894  0.1145  0.0865
19562W        W39842  17.199   5.076   2.992  0.0179 -0.1050  0.3686
19563W        W39843   8.058   2.714   1.699  0.0770 -0.0877 -0.1537
19564W        W39844   9.882   2.284   2.621  0.2110  0.0196 -0.0232
19565W        W39845  15.152   0.503  14.900  0.0188 -0.0797  0.1990
19566W        W39846   5.880   1.574   3.292  0.0401  0.2824 -0.1127
19567W        W39847   4.188  10.301   2.297 -0.0257 -0.2493 -0.2225
19568W        W39848   3.286   5.730  14.384  0.0412 -0.0558  0.1495
19569W        W39849   5.040  13.713   3.771  0.3807  0.0032 -0.1429
19570W        W39850   2.692  10.394  14.784 -0.4481  0.2693 -0.0550
19571W        W39851   7.537   4.513  11.253  0.0789 -0.3040 -0.3621
19572W        W39852   0.405   1.127  13.962  0.1657  0.6148  0.1171
19573W        W39853   3.871   9.243   3.147  0.0489  0.0118 -0.1988
19574W        W39854  16.584   2.880   2.539 -0.0594  0.1387 -0.0440
19575W        W39855   3.403   0.517   3.100  0.0114  0.1027  0.1572
19576W        W39856   3.646   6.821  11.740  0.0693  0.2323  0.2054
19577W        W39857  11.075  12.021  12.057 -0.6136  0.0095  0.0129
19578W        W39858  11.900   4.750   2.696  0.1224  0.1724 -0.1372
19579W        W39859  14.937  16.259  15.816  0.1740 -0.1375  0.0500
19580W        W39860   6.654   4.348   0.185  0.1597 -0.0440 -0.1594
19581W        W39861  16.383  10.167   3.130 -0.5103  0.0752  0.0363
19582W        W39862   6.704   5.580   1.173  0.0588 -0.1648 -0.0386
19583W        W39863  15.127   5.129   3.429  0.1707  0.2015  0.2599
19584W        W39864  14.719  14.160  13.160  0.2342 -0.2774 -0.1184
19585W        W39865  14.151   1.423  15.199  0.0625  0.0958 -0.3442
19586W        W39866  16.837  12.586  13.865  0.0199 -0.2120  0.1539
19587W        W39867  13.732  16.485  12.140 -0.1932 -0.0043 -0.1338
19588W        W39868  16.558  17.685   0.983  0.2464  0.0264 -0.2503
19589W        W39869  16.988   8.868   1.405  0.1737 -0.0518  0.0943
19590W        W39870  10.077   5.184   3.323  0.0041 -0.2481  0.0368
19591W        W39871   5.042   7.924  14.768 -0.0949  0.2019 -0.3991
19592W        W39872   3.176   7.901  13.856 -0.0962 -0.0079  0.2769
19593W        W39873  12.127  17.559  13.191 -0.1709 -0.0453  0.0862
19594W        W39874  17.648   1.343  11.613  0.0087 -0.2693  0.0032
19595W        W39875  12.630   5.227   2.643 -0.1949 -0.2037  0.1025
19596W        W39876  17.883  11.749   2.283  0.2253  0.2390  0.3210
19597W        W39877  15.681   1.032   3.800 -0.0783 -0.0204 -0.0104
19598W        W39878   9.640   3.817   1.634  0.3402 -0.2662  0.2936
19599W        W39879   3.035   0.629   3.461 -0.1550  0.0454 -0.2798
19600W        W39880   8.286  17.309  13.613  0.2121 -0.0892 -0.0935
19601W        W39881   7.032   0.022   2.824 -0.0512 -0.2538  0.1016
19602W        W39882  11.986   9.306  13.007  0.1182  0.0139 -0.2111
19603W        W39883  15.453   7.923   0.798  0.3562  0.0511  0.0185
19604W        W39884  12.340   6.126  12.091 -0.2722 -0.0333 -0.0767
19605W        W39885   9.838   7.927   3.453 -0.0750 -0.2502  0.2042
19606W        W39886  11.622  15.964  13.410  0.1250 -0.0505  0.0779
19607W        W39887   8.816  14.736  12.029 -0.0651 -0.1457  0.0461
19608W        W39888   8.651   6.659   4.403  0.2939  0.3078  0.4116
19609W        W39889   7.585   1.656  11.898 -0.1629 -0.5457  0.4797
19610W        W39890  14.719   3.913   0.086 -0.0891 -0.1907  0.2166
19611W        W39891   2.848   8.012   0.474 -0.4919  0.0364  0.0188
19612W        W39892   9.065  14.429   1.933 -0.4176  0.2026 -0.0162
19613W        W39893   7.047  13.819  13.103  0.1642  0.2712 -0.0394
19614W        W39894  15.725  14.642  13.831  0.1392  0.1814  0.1031
19615W        W39895   2.076   0.346  14.401 -0.3557  0.2369 -0.0053
19616W        W39896  13.651   6.110  10.683  0.2953  0.3755 -0.1158
19617W        W39897  16.144   1.679  15.754  0.2377 -0.1547 -0.0576
19618W        W39898   7.471   0.207  15.420 -0.2342  0.0577  0.0673
19619W        W39899  17.325   5.521   0.750 -0.0403 -0.0743 -0.0394
19620W        W39900   4.583  12.954   1.380  0.3284 -0.0965 -0.0557
19621W        W39901  14.549  18.231  13.311  0.0498 -0.1018 -0.2216
19622W        W39902  18.182  12.056   0.689  0.1559 -0.2488 -0.0199
19623W        W39903  12.839  14.898   0.373 -0.2351  0.0920 -0.1322
19624W        W39904   8.304   8.797  14.325  0.3545 -0.2765 -0.0982
19625W        W39905   3.147   9.669  11.339  0.1518 -0.1138  0.4499
19626W        W39906  13.452   6.382  13.543  0.0906  0.0649 -0.0768
19627W        W39907   6.171  13.620   3.799  0.1410 -0.1788  0.0785
19628W        W39908  17.413  11.147  12.924 -0.1285 -0.3177 -0.0351
19629W        W39909   0.994   2.377  12.825  0.0159  0.0005  0.2150
19630W        W39910   0.012  14.957  11.248  0.0518 -0.1385 -0.0436
19631W        W39911  15.067  10.207  13.160  0.0719  0.0657  0.1410
19632W        W39912  16.151   6.766   2.713  0.0896 -0.2470 -0.0844
19633W        W39913   1.682  16.514  14.311 -0.0978  0.0218  0.1871
19634W        W39914   3.148  15.126  14.804 -0.1156  0.1204 -0.1074
19635W        W39915  14.103  10.716   1.590 -0.1158 -0.2994 -0.3294
19636W        W39916   2.862   0.477  13.788  0.0276  0.0798  0.0294
19637W        W39917  15.263   5.819  12.926 -0.1495 -0.1826  0.0526
19638W        W39918  16.657   3.842  13.234  0.1642 -0.1910  0.0204
19639W        W39919  13.194  13.942  12.428  0.0503  0.1370  0.0088
19640W        W39920   4.210  10.008   3.560  0.1066 -0.2372 -0.0628
19641W        W39921   6.502   8.420  13.127  0.0286 -0.2023  0.0943
19642W        W39922  14.893  10.573   4.214  0.2097 -0.0344 -0.4869
19643W        W39923   3.865   9.184  11.682  0.0221 -0.2063  0.0268
19644W        W39924   1.541   5.586  13.045  0.2947 -0.2877 -0.0970
19645W        W39925  14.796   1.186  12.321  0.0338  0.0637  0.0831
19646W        W39926  10.034   5.729   0.988  0.1535  0.1872 -0.0394
19647W        W39927  10.102   5.040   1.342  0.3170 -0.4056 -0.0965
19648W        W39928  17.361  12.613   3.121 -0.1139  0.0889 -0.1570
19649W        W39929   8.548  14.718   0.885 -0.1645  0.3189  0.0992
19650W        W39930  11.394  17.503  14.416  0.0111 -0.1626  0.1101
19651W        W39931  13.072   3.319   3.369 -0.2262  0.4986 -0.0001
19652W        W39932   0.586  11.596  13.442  0.1918  0.1218  0.0232
19653W        W39933  10.209  11.827   2.863 -0.4226  0.0699  0.1600
19654W        W39934  11.384   5.991   1.717 -0.0418  0.2218  0.0754
19655W        W39935  14.088   1.383  15.701  0.1772 -0.1146  0.0542
19656W        W39936  10.598  13.557   1.864  0.1320  0.1530 -0.0368
19657W        W39937   4.060   0.187  15.917 -0.0314  0.1140 -0.4285
19658W        W39938   7.695  14.558   3.943 -0.2593 -0.0892 -0.0536
19659W        W39939  15.368   9.965  12.171  0.1095 -0.1764  0.1192
19660W        W39940   3.668  12.468   4.298 -0.1753 -0.1125 -0.1499
19661W        W39941   1.692   0.169   2.952  0.2264  0.0284 -0.2309
19662W        W39942   9.874   8.730   3.221 -0.0752  0.0688  0.3254
19663W        W39943   9.212   4.003   3.040  0.3724 -0.1949  0.1209
19664W        W39944  14.704  11.220   1.182 -0.1861  0.0760 -0.0751
19665W        W39945   1.500   7.818   2.729 -0.0149 -0.0020 -0.0016
19666W        W39946   7.010   6.629  13.678  0.1505 -0.1955  0.0849
19667W        W39947  12.632  12.091  15.731  0.1001 -0.2004  0.2924
19668W        W39948  11.420   8.622  14.219  0.0289  0.0612 -0.1015
19669W        W39949  10.995   1.046  13.457  0.0524  0.0064 -0.3551
19670W        W39950   9.159  11.632  13.161  0.1591  0.0943 -0.3121
19671W        W39951   5.670   4.820   4.052 -0.0363 -0.2245  0.0458
19672W        W39952   9.129  12.211  15.681  0.2704  0.0173  0.0384
19673W        W39953  16.562  14.578  14.840  0.0974 -0.0867  0.0277
19674W        W39954   7.694  16.891  11.163  0.0500  0.0763  0.2395
19675W        W39955   8.543   5.405   0.751  0.0121  0.2252 -0.3375
19676W        W39956   3.607   7.070  15.703 -0.0470 -0.2230 -0.0644
19677W        W39957   2.226   8.051   3.822 -0.0069  0.0826 -0.1052
19678W        W39958   0.326   2.529  13.917 -0.0230  0.2339  0.0159
19679W        W39959   7.945   0.839  10.624  0.1465 -0.1002  0.2767
19680W        W39960   2.913   5.538  15.172  0.2254  0.1458 -0.0552
19681W        W39961   6.745  14.848   0.058  0.2083  0.0651  0.2896
19682W        W39962  13.453   7.486   0.047  0.0119 -0.0881 -0.5836
19683W        W39963  11.300   1.837   4.314 -0.0709  0.2385  0.1086
19684W        W39964  15.916  17.918  11.681  0.0272  0.1220 -0.0199
19685W        W39965  11.169   8.507  11.552  0.0831  0.3167  0.0495
19686W        W39966   6.009  13.394  12.903 -0.1316  0.0148  0.1855
19687W        W39967   4.150  16.054  12.899  0.0137 -0.1941 -0.3025
19688W        W39968  14.934  14.972  11.390 -0.3656  0.1285  0.1575
19689W        W39969   0.910   2.657   1.600  0.2352 -0.2490 -0.0560
19690W        W39970   7.690  15.873   3.857 -0.2304 -0.1865 -0.0231
19691W        W39971   7.794   0.284  11.189  0.0042 -0.0669  0.2355
19692W        W39972   4.146   8.531   2.306  0.0447 -0.0717  0.1240
19693W        W39973  12.963  11.173  13.645 -0.1530  0.0186  0.3073
19694W        W39974  17.563  11.183   1.994  0.0784  0.1573 -0.0598
19695W        W39975  17.072  14.706   3.835 -0.0313 -0.1506 -0.0055
19696W        W39976  17.039   7.855  14.735 -0.5097 -0.1553  0.0146
19697W        W39977   6.340   5.907   1.254 -0.0654 -0.0329 -0.1009
19698W        W39978   0.455   1.281  11.786 -0.1531 -0.1704  0.0985
19699W        W39979  13.547  14.663  14.296 -0.0432  0.1909  0.1230
19700W        W39980   8.491  10.453   3.889  0.1527 -0.1444  0.1344
19701W        W39981  16.791  10.938  15.450 -0.3488 -0.0339  0.1274
19702W        W39982   7.209   5.246  15.121  0.0389  0.2388 -0.3236
19703W        W39983   5.958   4.071   1.664  0.2250  0.1709  0.1505
19704W        W39984   6.762  16.051  14.028 -0.3607  0.2052  0.1321
19705W        W39985  12.786  11.777   4.531  0.3356 -0.1854  0.2997
19706W        W39986  12.482   5.459   2.229 -0.2176 -0.2344  0.0876
19707W        W39987   4.129   5.869  15.083 -0.1789  0.1837  0.0613
19708W        W39988  15.588   7.103   3.042  0.3827 -0.0601  0.0184
19709W        W39989  13.854   9.088   1.742  0.1681  0.4315 -0.1005
19710W        W39990  11.951   0.225   3.818  0.0176 -0.1003  0.1527
19711W        W39991  13.571   4.193   0.685  0.0049 -0.1000  0.0361
19712W        W39992   9.077  18.101  12.710 -0.1585 -0.0506  0.0927
19713W        W39993  14.921  11.550  15.507  0.0166  0.0017  0.0511
19714W        W39994  16.979   2.152   4.005 -0.1406 -0.2680 -0.1382
19715W        W39995   3.769   7.762  15.009  0.0415  0.3748  0.0608
19716W        W39996   2.497   6.436  13.885 -0.3718  0.0354  0.2338
19717W        W39997   8.652   9.878  12.084  0.1001 -0.0697 -0.2229
19718W        W39998  16.556  17.253  12.060  0.2400  0.1235  0.0361
19719W        W39999  13.509   2.580  11.291  0.1246 -0.0993  0.2775
19720W        W40000  11.000   9.353   2.620  0.1358 -0.0169 -0.1480
19721W        W40001   8.502   6.424  14.378 -0.1841 -0.1787 -0.2403
19722W        W40002  15.688  16.424   2.580  0.0730  0.0162 -0.1301
19723W        W40003  11.978   0.684  12.994 -0.2290 -0.0165  0.1398
19724W        W40004   1.470   6.197  14.753 -0.2195 -0.2144  0.1417
19725W        W40005  11.659   6.518   1.810  0.0908  0.0219 -0.1636
19726W        W40006  13.083   5.264   4.760 -0.1920 -0.0551 -0.0481
19727W        W40007  18.167  17.145  11.516 -0.1181 -0.1954 -0.0532
19728W        W40008   9.872  12.889  11.937 -0.0584 -0.1161 -0.2145
19729W        W40009  14.067   7.509   2.662 -0.0254  0.1744 -0.0177
19730W        W40010  10.017  10.627   1.794 -0.1317  0.1650  0.1482
19731W        W40011   8.028  11.289  13.740 -0.0395  0.2667  0.0681
19732W        W40012   9.068  17.212   0.022 -0.2394 -0.1447 -0.1041
19733W        W40013   1.932   1.142   0.274 -0.0216 -0.1232  0.1212
19734W        W40014   4.625   9.966   2.184 -0.0639 -0.2441  0.1076
19735W        W40015  13.504  17.898  15.804  0.0460  0.1932  0.0482
19736W        W40016   9.258  11.661   3.606 -0.1385  0.0678 -0.1574
19737W        W40017   3.203   3.077   2.649  0.0537 -0.0992 -0.1868
19738W        W40018   8.354  15.009  12.179  0.3286 -0.0394  0.2936
19739W        W40019   7.659   8.220   3.508  0.0902  0.1524 -0.2014
19740W        W40020   3.628  10.278  10.004  0.1127  0.0818 -0.0623
19741W        W40021   7.517  10.829  13.025 -0.1909  0.0567 -0.2273
19742W        W40022  17.708   6.243  14.877  0.1852 -0.1912  0.1549
19743W        W40023  16.451   1.104   4.023 -0.3138  0.0680  0.0473
19744W        W40024  11.207  10.626  14.820 -0.0852  0.0200  0.1612
19745W        W40025   2.716   0.062  15.351 -0.0219  0.1477 -0.2861
19746W        W40026  10.762   3.378   3.878  0.0798 -0.3155 -0.2700
19747W        W40027   6.462   3.115  11.560 -0.1237 -0.2174  0.0926
19748W        W40028   3.010   6.295   4.100 -0.0123 -0.0689  0.0914
19749W        W40029   4.181   7.915  13.510 -0.2504 -0.1806 -0.1444
19750W        W40030   8.041  14.944   3.557  0.0166 -0.1292 -0.1339
19751W        W40031   7.223   2.902   2.858 -0.0777  0.1215 -0.0255
19752W        W40032  15.352   4.364   1.143  0.0414  0.1640 -0.3251
19753W        W40033   0.156   4.899  13.955  0.0910 -0.2083  0.2066
19754W        W40034   5.091   3.752  12.747  0.3128  0.1718 -0.0944
19755W        W40035   8.516  14.268   0.596 -0.0226 -0.1747 -0.2381
19756W        W40036   8.284   8.911  13.517  0.0238  0.1110  0.5537
19757W        W40037   3.898   6.616  12.566  0.0689  0.0703 -0.0478
19758W        W40038   7.134  11.320   1.064  0.1750 -0.1663  0.2500
19759W        W40039   2.162  15.608   1.322  0.0912  0.0881 -0.1849
19760W        W40040  16.889  17.112  12.476 -0.0274 -0.2036  0.0145
19761W        W40041   7.456   4.747   1.167 -0.3190  0.1982  0.3623
19762W        W40042   1.399   3.037   4.364 -0.0360 -0.1484  0.1412
19763W        W40043   5.201  14.599  12.323  0.1574 -0.0597  0.0573
19764W        W40044   9.450   0.690  12.612 -0.0899 -0.1548 -0.0439
19765W        W40045   8.504   2.966  15.902  0.0959 -0.0015  0.1868
19766W        W40046   9.107   7.257  15.165 -0.2732  0.0971 -0.0585
19767W        W40047   0.363  16.926  11.586  0.0348  0.1245 -0.0038
19768W        W40048  11.201   1.815   0.390  0.1639 -0.1639  0.0088
19769W        W40049   5.991   7.898  11.685 -0.1360 -0.0219 -0.1109
19770W        W40050   9.491  12.943  12.297  0.2398  0.1427  0.3261
19771W        W40051   0.372  16.467   4.511  0.2097  0.0290  0.0172
19772W        W40052   3.429   8.845   4.441 -0.2236 -0.2377  0.2497
19773W        W40053  14.070   0.578   4.536 -0.1183 -0.1991 -0.0487
19774W        W40054   2.088  12.021   2.923  0.1147 -0.1296 -0.0715
19775W        W40055  12.508  10.429   0.705 -0.0077 -0.0929 -0.2592
19776W        W40056  10.868   4.815  15.494  0.3689  0.0487  0.1347
19777W        W40057   3.653   1.663   2.656 -0.0323  0.2299 -0.0361
19778W        W40058   8.214   7.250   0.320 -0.1918  0.3194 -0.1017
19779W        W40059   6.076   8.475  12.563  0.1604  0.1435  0.1072
19780W        W40060  11.556  12.154   0.807  0.1594  0.2399 -0.2402
19781W        W40061   4.963  11.626  13.974 -0.0234 -0.0405  0.0293
19782W        W40062  12.852  10.585   3.187 -0.0610  0.1455 -0.0122
19783W        W40063   3.648  10.755   2.990  0.1141 -0.0826 -0.1517
19784W        W40064  11.717   8.406   1.673 -0.0982 -0.0252  0.0723
19785W        W40065  15.862  10.313   3.301  0.0255  0.0893 -0.0402
19786W        W40066   6.581  17.144  14.864  0.0800 -0.3371 -0.0847
19787W        W40067   1.093  10.268  15.597 -0.1215  0.0313 -0.0083
19788W        W40068  14.142  16.065   3.858 -0.0225  0.2908 -0.1699
19789W        W40069  12.305  17.249   0.503  0.0601  0.3202  0.0071
19790W        W40070   5.484   2.110   0.410  0.1751  0.3304  0.0591
19791W        W40071   6.387  10.111   0.655 -0.2165 -0.0649 -0.1108
19792W        W40072  10.564   0.798  13.230  0.0515 -0.3560  0.2226
19793W        W40073   2.941   6.778   4.186  0.1434 -0.0038 -0.2468
19794W        W40074   6.920  11.041   0.033 -0.0775 -0.1198 -0.1124
19795W        W40075   6.948   9.647   2.548 -0.0512 -0.0231  0.0818
19796W        W40076   9.785   8.000  15.484  0.0181 -0.1651 -0.0362
19797W        W40077  10.860  16.402   2.181  0.3109 -0.1632 -0.3291
19798W        W40078   0.708  11.687  15.535 -0.0725  0.0741  0.0341
19799W        W40079  11.495  16.150  14.971 -0.1731 -0.0774  0.1770
19800W        W40080   1.098   4.928  14.349  0.1011  0.0787  0.0994
19801W        W40081   8.903   1.613   2.510 -0.1272 -0.1367 -0.0731
19802W        W40082  13.722   8.871   4.770 -0.3257 -0.0196 -0.1819
19803W        W40083   4.204   9.052   2.317  0.1273  0.1006 -0.0372
19804W        W40084   2.828   5.871   3.290  0.0497 -0.0107  0.4360
19805W        W40085  13.815   6.479   1.576  0.1710 -0.3723 -0.4294
19806W        W40086  17.093  14.311   1.010  0.0633  0.0549 -0.0176
19807W        W40087  16.187  11.914   3.854  0.2753 -0.2067  0.1223
19808W        W40088   2.056   2.956  15.825  0.1439  0.1586  0.0392
19809W        W40089   4.379   5.767  13.887  0.0990  0.1646  0.0128
19810W        W40090   0.750   8.760  12.075 -0.1269 -0.0194 -0.1624
19811W        W40091   4.268   6.743   1.381 -0.1595  0.0438 -0.1175
19812W        W40092  10.450  12.807  14.208 -0.1902 -0.0417  0.1283
19813W        W40093  16.161  18.082  13.588 -0.0193 -0.1845  0.3160
19814W        W40094  16.489  10.859   1.230  0.1452 -0.2122  0.2811
19815W        W40095   1.095   6.347  15.096  0.2215  0.0361  0.1251
19816W        W40096   4.046   1.480   4.973 -0.2952 -0.2673  0.0409
19817W        W40097  12.230   9.779  13.741  0.1952  0.0247  0.2241
19818W        W40098  15.105  15.409  12.242 -0.3560  0.0517  0.1553
19819W        W40099   8.628   1.309  15.698  0.0299 -0.0113  0.3605
19820W        W40100   7.787  15.291   3.264 -0.2206 -0.1038  0.1594
19821W        W40101  12.583   0.230  11.066 -0.0800  0.1154 -0.0503
19822W        W40102   6.577   0.024  12.877 -0.0301 -0.0333 -0.0157
19823W        W40103  14.125   4.287   4.344  0.1396 -0.0123 -0.2901
19824W        W40104   6.292   8.208   0.919 -0.1059 -0.2296 -0.1376
19825W        W40105  13.614  12.870  15.662 -0.0276  0.0710 -0.1595
19826W        W40106  11.342  14.504  15.239 -0.1599  0.1540 -0.1395
19827W        W40107   9.884   1.703   3.711  0.0079  0.2519  0.1877
19828W        W40108  17.256  16.300   0.280  0.0615 -0.1430 -0.1545
19829W        W40109  16.491   8.959   1.672  0.1428  0.1550  0.0482
19830W        W40110   5.999  11.766  15.882  0.2925 -0.1851  0.2101
19831W        W40111  10.898  14.326  15.074 -0.0578 -0.0030  0.3001
19832W        W40112   0.047   5.708  10.785 -0.0019 -0.0372 -0.2049
19833W        W40113  16.738   4.677  14.444  0.0079  0.3799  0.2907
19834W        W40114   7.387  14.869  13.273 -0.0048  0.2569 -0.5486
19835W        W40115  11.783  17.307  15.335 -0.0134  0.0663  0.0956
19836W        W40116  15.067  12.730  12.604  0.2275 -0.2942  0.4600
19837W        W40117  13.075  15.984   1.888  0.1643  0.1379 -0.1115
19838W        W40118  10.854   8.918   2.007  0.1313 -0.2249  0.1284
19839W        W40119   9.114   9.701   4.409 -0.0370  0.0455 -0.1640
19840W        W40120  16.856   4.807  12.912 -0.1137  0.0005  0.1039
19841W        W40121   6.155  17.063   4.225 -0.0406 -0.2785 -0.2338
19842W        W40122  15.877   8.484   4.156 -0.1417 -0.0529 -0.0281
19843W        W40123   9.672   8.537  14.279 -0.2292  0.0334 -0.0727
19844W        W40124   0.892   4.077  11.776 -0.0007 -0.0322 -0.3188
19845W        W40125  16.620  16.703  13.349  0.2079 -0.1108 -0.1077
19846W        W40126   4.358  10.427   0.734 -0.2496 -0.0588 -0.0147
19847W        W40127   7.678   1.171   0.896  0.0462  0.1375 -0.1682
19848W        W40128   7.678  11.121   2.788 -0.1731 -0.0141  0.2557
19849W        W40129  11.119   3.999   4.142  0.3948 -0.1403  0.3100
19850W        W40130   5.254  10.897  15.227  0.0122  0.0521  0.1688
19851W        W40131  12.739   1.390   1.839 -0.1633 -0.1082  0.2360
19852W        W40132  14.754  11.215   3.918  0.4619  0.1916 -0.2769
19853W        W40133   9.284  17.158  12.732 -0.1871  0.1049  0.0532
19854W        W40134   1.257   1.886  14.540 -0.0240 -0.2528 -0.1714
19855W        W40135  11.269   0.423   3.609  0.0252 -0.0979 -0.0395
19856W        W40136  12.262   4.826   4.606 -0.1917  0.0103 -0.1985
19857W        W40137  10.238   5.149  14.051 -0.2343 -0.2788  0.3080
19858W        W40138   7.394  17.254   0.121  0.0778 -0.2801  0.3409
19859W        W40139   0.333  18.143  15.893 -0.1186 -0.2933  0.1130
19860W        W40140  16.931   5.297   0.560  0.0355 -0.1015  0.0297
19861W        W40141  13.619  12.029   4.787  0.0545 -0.2207  0.5740
19862W        W40142   5.694  10.701   0.450 -0.0341 -0.3578  0.0765
19863W        W40143  17.573   1.272  15.926  0.1875 -0.2048  0.0284
19864W        W40144  11.981  16.772  14.646 -0.2058  0.0500  0.0785
19865W        W40145  10.582  11.073   3.769 -0.1107 -0.0181 -0.1703
19866W        W40146  12.985   5.912  14.494  0.0273  0.0717  0.0690
19867W        W40147   1.075   5.499   4.409  0.1868 -0.0675  0.0700
19868W        W40148   8.470   8.663  12.405 -0.0716  0.2658 -0.0254
19869W        W40149   4.534  13.306  12.261  0.0552 -0.0912 -0.1445
19870W        W40150  15.581  11.526   4.928  0.2009  0.0373  0.1075
19871W        W40151  15.654   7.631  14.546 -0.0274 -0.3285  0.0090
19872W        W40152  12.374   2.070   3.420  0.0843  0.1213  0.1241
19873W        W40153   5.106  12.385  15.837 -0.0201  0.0541 -0.3106
19874W        W40154   7.901   1.378   4.159 -0.4914 -0.0993  0.2143
19875W        W40155  12.225   4.943   4.034  0.1645  0.2224 -0.0459
19876W        W40156  14.840   5.171  15.563 -0.0266 -0.0158 -0.1193
19877W        W40157   6.370   3.415  14.257 -0.1116 -0.1307  0.1168
19878W        W40158  16.870   8.100   0.527  0.2099 -0.1718 -0.1422
19879W        W40159   3.871  11.645   2.621 -0.1684 -0.2373 -0.1214
19880W        W40160   0.597   1.802  15.644 -0.0012 -0.1160  0.4401
19881W        W40161  11.048  15.203   0.864  0.0834  0.5069 -0.2152
19882W        W40162  16.498   2.140   3.960  0.1844 -0.0060  0.1727
19883W        W40163  16.842   5.223   2.539  0.2004  0.0663 -0.1338
19884W        W40164   1.211  11.174   1.169 -0.1005 -0.0432 -0.0390
19885W        W40165   3.191   0.582   0.723 -0.0554 -0.1180 -0.0038
19886W        W40166  10.909   4.368   4.452  0.1435 -0.3848 -0.0924
19887W        W40167   0.391  15.111   2.805  0.0842 -0.1418  0.4765
19888W        W40168  16.373   2.378   3.522  0.0467 -0.1338  0.0327
19889W        W40169  16.542  13.179   3.206  0.1174  0.2958 -0.1006
19890W        W40170   6.229  13.951  13.889 -0.0979 -0.0239  0.1285
19891W        W40171  16.561   2.687  15.644  0.0028  0.1785  0.2092
19892W        W40172  13.820   8.252  14.649 -0.3755 -0.5684  0.2751
19893W        W40173   9.043  10.687   4.544 -0.1183 -0.0719 -0.2123
19894W        W40174   2.736  12.924  14.038 -0.2183 -0.1241 -0.1124
19895W        W40175  16.354  10.696   0.507 -0.2330  0.0209  0.0689
19896W        W40176  14.570  10.034   3.255  0.0340 -0.0409 -0.0172
19897W        W40177   1.865  17.894  11.592 -0.0399  0.1518 -0.0192
19898W        W40178  13.007  16.234   1.360  0.0241 -0.0166 -0.3110
19899W        W40179  10.000   2.143   2.053 -0.1191 -0.2814 -0.0078
19900W        W40180   2.018  14.815  12.579  0.1147  0.0790  0.1488
19901W        W40181   4.023  15.997  11.328 -0.0220 -0.2338 -0.1108
19902W        W40182  15.719  17.303   0.520  0.0312 -0.0206  0.1351
19903W        W40183  17.804   9.002   0.921  0.1567  0.0380  0.3000
19904W        W40184  12.241   2.019  13.963  0.0618  0.0894 -0.3377
19905W        W40185   6.156  16.821   1.124  0.0509 -0.3250 -0.1185
19906W        W40186   2.076   9.574   3.361  0.0562 -0.0647 -0.0497
19907W        W40187   8.497  14.663   3.249 -0.2340 -0.2357 -0.1910
19908W        W40188  14.487   4.722  14.725 -0.0075  0.1934 -0.1488
19909W        W40189   3.733  12.951   0.440  0.3781  0.0216 -0.1903
19910W        W40190   0.649   9.234   3.035  0.0135  0.1481  0.3836
19911W        W40191   8.359   0.282  15.491 -0.1225  0.0853 -0.0514
19912W        W40192   9.473   4.426  15.327  0.0581  0.0877  0.3193
19913W        W40193   0.989   3.347  15.752  0.3301  0.2102 -0.0141
19914W        W40194  10.256   7.030   3.552 -0.0899  0.0285 -0.3000
19915W        W40195  11.774   3.397  12.810 -0.0020  0.0392 -0.0044
19916W        W40196  16.803   7.133  13.392 -0.1011  0.2052  0.0328
19917W        W40197  14.134  12.648  14.376  0.0188 -0.0828  0.1372
19918W        W40198   5.727   6.345   0.291 -0.3077 -0.3516 -0.1947
19919W        W40199   8.797   5.492  14.864 -0.0471 -0.2268 -0.2290
19920W        W40200   3.085  15.606  14.996  0.2677  0.1998  0.0234
19921W        W40201  10.653   8.766   1.054 -0.2711  0.0372  0.0718
19922W        W40202  14.869  11.766   0.375  0.1599 -0.2347  0.0711
19923W        W40203   1.215  12.539   4.538  0.0160  0.1163 -0.0348
19924W        W40204   9.169  12.761  11.965  0.0433  0.1294  0.0711
19925W        W40205   1.240  13.065   0.699  0.2635 -0.3549 -0.2621
19926W        W40206   2.795   4.928   4.168  0.2533  0.0167 -0.2373
19927W        W40207  17.490  11.000  11.821 -0.1493  0.1235  0.0829
19928W        W40208  12.331   9.216   0.240 -0.1801 -0.0485  0.2077
19929W        W40209  14.288   0.554  13.252 -0.1244  0.0793  0.0024
19930W        W40210   7.492  10.247  11.591 -0.2386 -0.1514 -0.1919
19931W        W40211   7.528   5.227   0.572  0.1453 -0.1227  0.1470
19932W        W40212  15.147  16.065  13.620  0.1666 -0.0690  0.1841
19933W        W40213  13.907   7.854   3.063 -0.2473  0.2245  0.4484
19934W        W40214   6.096   7.220   0.646 -0.2189  0.1136  0.1406
19935W        W40215  13.075   8.803   0.768  0.0892  0.0743  0.1638
19936W        W40216   9.776  17.823   1.190  0.0554 -0.0604 -0.1372
19937W        W40217  15.463   3.492  13.337 -0.0711 -0.0678  0.0591
19938W        W40218   6.680   3.269   4.049 -0.1218  0.0090 -0.2028
19939W        W40219  12.028  18.039   0.603  0.2181  0.0187 -0.0378
19940W        W40220   0.193   8.314   2.804 -0.0394 -0.2755 -0.4142
19941W        W40221   7.117  11.781   3.698  0.3768 -0.1536  0.2113
19942W        W40222  13.734  14.961  14.714 -0.0378 -0.0081 -0.0890
19943W        W40223  15.912  11.579   1.614  0.0356 -0.1968 -0.0179
19944W        W40224  14.220  16.326  13.821  0.1047  0.0698 -0.1353
19945W        W40225   4.186   4.574   4.171  0.1477  0.0542  0.2031
19946W        W40226   3.811   8.757  15.129 -0.1610 -0.0980 -0.1385
19947W        W40227   1.030  17.355   1.904 -0.0705 -0.2120 -0.0695
19948W        W40228   0.986  12.361  13.302  0.2593 -0.0346  0.0278
19949W        W40229  13.531  16.393  15.497  0.0156 -0.4024  0.2594
19950W        W40230   8.714   6.450   1.983 -0.1154 -0.4178 -0.1181
19951W        W40231   6.452   8.232  12.293 -0.4552 -0.1142 -0.0829
19952W        W40232   2.455   2.250  13.167 -0.2917 -0.0100 -0.2874
19953W        W40233   7.791   1.313  12.739  0.1166  0.1614 -0.1720
19954W        W40234  14.540  10.188  12.014  0.4379 -0.0585  0.1389
19955W        W40235  12.716   2.311   3.043 -0.0318  0.0136 -0.2182
19956W        W40236  16.325   7.212   3.971 -0.1861 -0.0822 -0.2811
19957W        W40237  17.956  16.077  14.349 -0.1623 -0.0495  0.0359
19958W        W40238  12.632   6.930  12.577 -0.3898 -0.2898 -0.1022
19959W        W40239   1.290  17.365   2.435 -0.2010 -0.0859 -0.0186
19960W        W40240  16.534   5.163   0.342  0.1040 -0.4935  0.0756
19961W        W40241   8.773   2.913  12.400 -0.1054  0.0499 -0.2032
19962W        W40242  11.008   3.074   2.400 -0.3627  0.0606 -0.0285
19963W        W40243   4.060   7.336  14.814 -0.1006  0.0051  0.0203
19964W        W40244   1.491   7.334  12.694  0.1656  0.1415 -0.0530
19965W        W40245   6.340  11.308   1.623  0.1596 -0.2474  0.1313
19966W        W40246   9.367  11.165   3.771 -0.1400  0.1481 -0.0876
19967W        W40247  13.906   1.394  13.076  0.2974 -0.0848 -0.0759
19968W        W40248  17.633   2.724   4.314  0.1860 -0.1135  0.0680
19969W        W40249   2.528  15.268  12.093 -0.0972  0.0128 -0.0446
19970W        W40250  16.481  11.793  14.526 -0.0118 -0.0426  0.1370
19971W        W40251  15.384   5.672  13.501  0.0577  0.3730 -0.1607
19972W        W40252  13.138   2.535   2.040 -0.2501 -0.0918  0.1858
19973W        W40253  17.474   9.604   2.145  0.3531 -0.2074  0.3835
19974W        W40254   2.501  10.436  11.529  0.0279 -0.1540  0.0875
19975W        W40255   4.857   8.432   3.492 -0.2274  0.1013  0.1416
19976W        W40256  15.880   5.689   4.571 -0.0040  0.0089  0.2669
19977W        W40257  10.153  12.001  12.674 -0.2166  0.0477 -0.0100
19978W        W40258  11.608  18.308   0.627  0.2679 -0.0972 -0.0604
19979W        W40259   6.177   0.194   0.098 -0.4322  0.2329  0.0337
19980W        W40260   6.053  13.262  15.262  0.1003  0.0916 -0.3459
19981W        W40261  11.652  14.705  13.991  0.3073 -0.5443  0.1076
19982W        W40262  16.657  11.453   3.803  0.2452 -0.1527  0.0243
19983W        W40263  16.570   0.317  12.450 -0.2064  0.3617  0.0723
19984W        W40264  10.215   3.709   4.425  0.1753 -0.1642 -0.1461
19985W        W40265   4.598   7.056  11.637  0.1764 -0.2199 -0.1950
19986W        W40266   9.539   6.857   2.759  0.1222  0.0423  0.0869
19987W        W40267   4.136  13.358  14.123 -0.1657  0.0700 -0.0037
19988W        W40268  10.939   4.245  12.531  0.4238  0.0954 -0.0899
19989W        W40269  13.162  12.233   3.854 -0.0921 -0.1730 -0.1177
19990W        W40270   3.822   5.772  13.168  0.1281  0.0040 -0.1438
19991W        W40271   1.130  15.285   0.047 -0.1461 -0.0479  0.1083
19992W        W40272  17.348   8.447   2.572 -0.3812 -0.0489  0.0585
19993W        W40273   1.923   5.431   2.537  0.2576 -0.0001 -0.1209
19994W        W40274   3.598  17.221  11.972 -0.2197 -0.0014 -0.1096
19995W        W40275  13.637  17.348  12.360  0.1902  0.2161 -0.4675
19996W        W40276  15.943   6.813  13.756  0.0277 -0.2193 -0.0753
19997W        W40277   5.683   0.533  14.326 -0.0030  0.1068  0.0028
19998W        W40278  10.661   0.533   0.184  0.0346 -0.1294  0.1623
19999W        W40279   3.320  18.023   0.642  0.0119  0.1678 -0.0938
20000W        W40280   8.263   2.072  13.492 -0.0660  0.0872 -0.0988
20001W        W40281  16.555   4.779  13.297  0.0974  0.0662  0.0641
20002W        W40282   1.175   2.795  10.580 -0.0074  0.1113 -0.0463
20003W        W40283   3.132  17.901  14.229 -0.1632  0.0708 -0.1122
20004W        W40284  16.221   5.099   3.157  0.0500  0.2200  0.1326
20005W        W40285   1.463  14.089   4.086  0.0720 -0.0141 -0.1868
20006W        W40286  13.576  11.237  14.000  0.0518  0.0616 -0.1309
20007W        W40287  15.845  18.227  12.478 -0.1789  0.0143 -0.1606
20008W        W40288  17.643   3.564   3.916 -0.1078  0.1788 -0.1085
20009W        W40289   4.420  14.811  11.915 -0.1731  0.0915  0.0256
20010W        W40290  16.600   6.820   2.965 -0.1088 -0.1790 -0.0562
20011W        W40291  17.045   2.227  12.698  0.0488 -0.2026  0.0255
20012W        W40292   4.334   4.139   3.951 -0.0233 -0.0930  0.0000
20013W        W40293  12.188   9.760   1.860  0.0758 -0.0889  0.1701
20014W        W40294  11.409   8.624  15.325 -0.0145  0.1248 -0.2581
20015W        W40295   6.671   1.967  14.057 -0.1182 -0.1009 -0.2790
20016W        W40296   8.037   8.472   2.048 -0.2160 -0.1588  0.3400
20017W        W40297   9.212  13.142  12.787  0.2260  0.2277  0.1599
20018W        W40298  17.367  11.667  11.579  0.0746  0.0169 -0.1406
20019W        W40299  16.446   6.077   0.219  0.1694  0.1397  0.2191
20020W        W40300  14.069  11.677   4.017  0.2468  0.3686 -0.2209
20021W        W40301  11.109  15.277   5.099  0.1007  0.0350  0.0833
20022W        W40302  17.515  13.495   2.203  0.1934  0.0803 -0.1157
20023W        W40303  11.421   4.922  15.534  0.1731  0.0888  0.2139
20024W        W40304  11.077   4.294  11.517  0.0577  0.0500  0.3765
20025W        W40305   2.733   5.040   2.667  0.1438 -0.1861 -0.2472
20026W        W40306  17.291   2.126   3.495  0.3340  0.0012  0.0674
20027W        W40307   8.490   7.230   2.558 -0.1153  0.2724 -0.0573
20028W        W40308   2.086  12.521  11.468  0.1881  0.2105  0.0194
20029W        W40309   2.293  13.087  12.203  0.3197 -0.0065  0.1129
20030W        W40310   9.451   8.836   1.270  0.0160  0.1086 -0.0295
20031W        W40311  13.103   0.990  12.624  0.1912  0.2146 -0.1397
20032W        W40312   0.798  10.920  12.839  0.1133 -0.1884 -0.2497
20033W        W40313   1.899  16.951  15.251 -0.2085 -0.2443  0.0301
20034W        W40314   8.818  15.243  12.025  0.0993 -0.3075 -0.2494
20035W        W40315   0.769   3.432  11.088 -0.0559 -0.0036  0.1055
20036W        W40316   5.672  12.031  15.503  0.0302 -0.1368 -0.2427
20037W        W40317   4.412  10.641  11.475  0.1425 -0.1357  0.2229
20038W        W40318  15.481   5.442   2.710  0.0501  0.2019  0.0884
20039W        W40319   0.156   5.061   1.418  0.0187 -0.0359 -0.0771
20040W        W40320  10.310   6.935   2.284 -0.1521  0.1322  0.0790
20041W        W40321   1.567  12.882   4.544  0.1882  0.2338  0.1017
20042W        W40322   9.839   7.004  12.390  0.2398 -0.0285  0.0514
20043W        W40323  13.522   1.653   3.907 -0.1245 -0.2606 -0.3112
20044W        W40324   9.051  11.998  13.707  0.0041 -0.1149 -0.4340
20045W        W40325   7.921   9.653  13.994 -0.1062  0.0172 -0.2722
20046W        W40326  18.049  12.354   1.149  0.4087 -0.0600 -0.1537
20047W        W40327  10.120   5.277   3.835  0.2995  0.1893 -0.1289
20048W        W40328   2.601   1.366  13.441 -0.0006 -0.0268 -0.1314
20049W        W40329  14.270  10.243  11.612  0.0037 -0.0999 -0.2313
20050W        W40330   0.464   4.250   0.598  0.1835 -0.0257 -0.0032
20051W        W40331   2.356   4.247   1.800 -0.1662 -0.2163 -0.1904
20052W        W40332  13.272   6.466   3.774  0.2558 -0.0431 -0.2964
20053W        W40333  13.270   9.708  14.414  0.2991 -0.2102 -0.0100
20054W        W40334  17.664   9.593  15.261  0.1213 -0.0428  0.1921
20055W        W40335   7.840   6.452   3.674  0.1791  0.2806 -0.2798
20056W        W40336  12.663   0.731  13.759  0.0957  0.0505 -0.1573
20057W        W40337  12.746  13.521   0.548  0.3515  0.1468 -0.1430
20058W        W40338  11.795  10.532   2.751  0.1621 -0.1906  0.0724
20059W        W40339   3.114   7.464   4.060  0.0171 -0.0762 -0.3885
20060W        W40340   0.594  11.590   2.948  0.0779 -0.5655 -0.1371
20061W        W40341   1.986   4.486   3.842 -0.0788 -0.0181 -0.2047
20062W        W40342   9.952  10.693  15.908  0.2089 -0.1105 -0.2737
20063W        W40343  16.539   9.341  12.685 -0.3358 -0.0101 -0.0115
20064W        W40344  13.307  15.871  13.262  0.2488 -0.0569 -0.0691
20065W        W40345  12.806  17.582   4.071 -0.0230  0.2758  0.0790
20066W        W40346   6.886   9.157   4.370 -0.1779  0.1965  0.1852
20067W        W40347   4.153   5.104   3.305 -0.0157 -0.1194 -0.0577
20068W        W40348  15.091   0.337   1.787 -0.1696 -0.2417 -0.0803
20069W        W40349  15.473  13.612   4.678  0.0934 -0.1562 -0.2573
20070W        W40350  13.302  16.771  12.609  0.0826  0.1048  0.0563
20071W        W40351  16.096   0.305  11.672 -0.0943  0.0486 -0.0028
20072W        W40352  15.308   1.924   2.703 -0.3925  0.5308 -0.1459
20073W        W40353  16.230   8.536  10.943  0.3731 -0.2392  0.1871
20074W        W40354   6.692  13.962   0.308 -0.0890  0.1675  0.2245
20075W        W40355  11.875   9.478  15.305  0.2166 -0.1471  0.1261
20076W        W40356   2.957   4.337   3.026  0.0887 -0.3017  0.0654
20077W        W40357   1.241   6.934  12.507 -0.0548 -0.2342  0.5191
20078W        W40358  12.780  18.133   4.163 -0.1417 -0.3960 -0.1013
20079W        W40359  11.218  10.598   1.331 -0.2760 -0.0774 -0.1751
20080W        W40360  17.403  14.621   2.577  0.0920 -0.3186  0.1338
20081W        W40361  13.385   7.813  11.756  0.1129  0.2605 -0.1465
20082W        W40362   0.603   7.326   0.402 -0.1016 -0.0503 -0.0209
20083W        W40363   5.848   8.381  14.413  0.1451 -0.0284 -0.1355
20084W        W40364  11.709  11.308  14.266  0.2519 -0.1210  0.0573
20085W        W40365   6.106  13.496  11.406  0.3963  0.1172  0.1613
20086W        W40366  13.243  15.752  14.588  0.0613 -0.0306  0.0523
20087W        W40367   7.196   2.013   0.916  0.0165  0.0895  0.2100
20088W        W40368   9.180  11.355  12.228 -0.1247 -0.1621  0.2021
20089W        W40369  14.669  17.631   2.081  0.2295  0.2168  0.1151
20090W        W40370   4.572   3.367  13.180 -0.1707 -0.1872  0.2619
20091W        W40371   5.374   0.841  10.024  0.2639 -0.2714  0.0665
20092W        W40372  12.392  16.120   2.658 -0.1043 -0.0450 -0.1133
20093W        W40373  11.606  10.772   4.530 -0.0124 -0.3242  0.1963
20094W        W40374   5.634   6.454  11.971  0.1052 -0.1137 -0.0376
20095W        W40375   5.617   2.331   2.277 -0.1432 -0.2403  0.0623
20096W        W40376   8.137   3.098  11.731  0.0423 -0.0251  0.3798
20097W        W40377   7.758  11.788  15.884 -0.1346  0.2471 -0.0463
20098W        W40378   3.164   9.666  15.749 -0.1346 -0.2287  0.0909
20099W        W40379   7.056   0.118  11.769 -0.0543 -0.0852  0.1582
20100W        W40380   7.141  10.287  12.894 -0.0371  0.2672 -0.3215
20101W        W40381  11.490  18.069  10.851  0.0854 -0.0746  0.2026
20102W        W40382   0.793  13.400  12.062  0.0488  0.2480  0.1245
20103W        W40383   8.025  12.162  13.719 -0.0465 -0.0068 -0.1358
20104W        W40384  12.390  11.312   2.174 -0.1696 -0.0260  0.0007
20105W        W40385   6.134  12.612   0.309  0.3017  0.1225  0.0292
20106W        W40386  12.516   2.999  15.719  0.1056  0.1191 -0.2308
20107W        W40387   4.941   9.281   0.257 -0.0014 -0.0141 -0.2176
20108W        W40388   5.559  13.375  15.107 -0.0530 -0.0635 -0.0427
20109W        W40389   9.185  15.635  12.875 -0.3501  0.2033  0.2346
20110W        W40390   0.650   4.182  12.848 -0.3225 -0.1483  0.0540
20111W        W40391  11.645  10.185   0.418 -0.0409 -0.0691  0.4783
20112W        W40392  16.406  18.107   4.685  0.1155 -0.1359 -0.0249
20113W        W40393   7.153   3.317   1.065  0.0449  0.0242  0.0352
20114W        W40394   8.221   7.997  11.887  0.0418  0.1594  0.3362
20115W        W40395   1.814  10.803   0.199  0.1010 -0.0363  0.3602
20116W        W40396  13.570   4.463   1.857 -0.2292 -0.0366 -0.0416
20117W        W40397   6.473   2.972  15.534 -0.1115  0.1355 -0.0294
20118W        W40398   6.232   4.273   0.884  0.0911  0.1217  0.2636
20119W        W40399   3.147  10.899  15.306  0.2942 -0.0143 -0.1647
20120W        W40400  12.945   3.417  12.344  0.0509  0.1762 -0.1390
20121W        W40401   1.599   1.986  10.609 -0.1890 -0.1271 -0.1909
20122W        W40402   5.404  17.139   3.649  0.2548 -0.1054 -0.2325
20123W        W40403  17.296   3.916   2.594 -0.1043 -0.0932 -0.0124
20124W        W40404   5.707   7.501   3.594 -0.0695 -0.0234 -0.1886
20125W        W40405  11.982  17.747  12.024 -0.2195 -0.1897  0.1485
20126W        W40406   0.316   0.656  12.448 -0.0683 -0.1978  0.1128
20127W        W40407  15.280   9.899   3.917  0.0720  0.1897 -0.2396
20128W        W40408   1.354   6.585  12.080  0.0691 -0.1731  0.1749
20129W        W40409   1.332  15.031   1.521 -0.0100 -0.2133 -0.1259
20130W        W40410  13.927  13.654  12.058  0.2952  0.1078  0.0983
20131W        W40411   7.532   7.368  13.209 -0.1612  0.1903  0.1401
20132W        W40412   6.039   2.196   3.681  0.0120 -0.0063  0.2447
20133W        W40413  17.226   8.512   0.582 -0.2322 -0.0500  0.1451
20134W        W40414  12.534   2.055  12.945 -0.2244  0.0574  0.2845
20135W        W40415   2.863  14.951  11.332 -0.3825 -0.0133  0.1349
20136W        W40416   1.938   9.015  15.919  0.0321  0.0344  0.1958
20137W        W40417  12.866  16.059  12.992  0.0803 -0.1267 -0.2505
20138W        W40418  15.226   2.116   0.294  0.2778  0.0833  0.2515
20139W        W40419  17.827  10.008  11.644 -0.0675 -0.1000  0.3215
20140W        W40420  13.503  11.899   2.522 -0.4812 -0.2925  0.1753
20141W        W40421   6.969  10.830   3.470  0.3482 -0.0394 -0.0469
20142W        W40422  11.143   5.737   2.765  0.0055  0.1963  0.0450
20143W        W40423   5.851   3.103  12.796 -0.1306  0.3065 -0.3482
20144W        W40424   5.531   7.473  11.331  0.0165 -0.0968  0.1151
20145W        W40425  15.674  17.899  13.411 -0.2404  0.3112 -0.4716
20146W        W40426   7.687  11.244  14.330 -0.1030  0.2721 -0.0348
20147W        W40427   2.356   7.170   3.722  0.0910 -0.0701 -0.0768
20148W        W40428  10.322   9.914   5.806  0.1924 -0.0415  0.2066
20149W        W40429   6.612   4.230   4.220  0.2907  0.1143 -0.1037
20150W        W40430  16.335   0.126  13.254 -0.2042 -0.2526  0.1171
20151W        W40431  11.273   6.221   2.190 -0.3613  0.2833  0.0454
20152W        W40432   6.867  10.057   4.469 -0.0461 -0.1619 -0.1832
20153W        W40433   6.201  13.679   2.101  0.2603  0.0750  0.2735
20154W        W40434   9.365   7.586  13.117  0.0890 -0.2526 -0.1612
20155W        W40435  11.585  11.812  11.568  0.1403  0.0871  0.2577
20156W        W40436  10.375   9.783  12.454 -0.1597 -0.1527 -0.2039
20157W        W40437  13.224   3.969  11.217  0.3686  0.1147  0.0610
20158W        W40438  11.624   1.366   1.645 -0.0959 -0.0983  0.3139
20159W        W40439   7.381   4.045   3.044  0.0650  0.1954 -0.0786
20160W        W40440   4.628  13.842  15.386  0.1087 -0.1211 -0.0907
20161W        W40441  13.389  16.863   2.940 -0.0547 -0.0343  0.1192
20162W        W40442   9.038   5.552   0.785 -0.0051  0.2514 -0.1239
20163W        W40443  13.557   8.254   3.419  0.2302  0.1226  0.0653
20164W        W40444  14.677  13.595   2.533  0.0054  0.1174  0.0895
20165W        W40445  13.728   9.271   2.821  0.0932 -0.0986 -0.1829
20166W        W40446   1.792   1.717   1.336 -0.0037 -0.4769  0.1441
20167W        W40447  16.269   3.622  11.230 -0.0296  0.1251 -0.1117
20168W        W40448   9.645  15.063  15.500  0.2547 -0.1080  0.2509
20169W        W40449   4.648  11.696   3.175 -0.1430 -0.0402  0.0444
20170W        W40450   8.827   0.139  12.100 -0.0543  0.3400 -0.0124
20171W        W40451   7.337   8.068   3.880 -0.1048 -0.0112  0.0310
20172W        W40452   7.907   9.969   2.450  0.1466  0.0408 -0.1066
20173W        W40453  16.270   5.957  12.188  0.4412 -0.2617 -0.3530
20174W        W40454  13.405   2.487  15.299 -0.0617  0.1816 -0.0980
20175W        W40455  13.480   1.599  13.161 -0.1705  0.1443 -0.3108
20176W        W40456   1.185   9.301  15.147 -0.1201 -0.0032  0.0522
20177W        W40457  18.003  15.473  15.018  0.1030  0.1242  0.0407
20178W        W40458  18.134  15.446   0.313  0.2298 -0.1718  0.0651
20179W        W40459  16.561  14.718   0.707  0.1745 -0.1580  0.0876
20180W        W40460   7.473   8.663   3.648 -0.1118 -0.0892  0.1910
20181W        W40461  16.316   9.769  15.788 -0.0512  0.0975  0.1411
20182W        W40462  16.853  10.219   1.851  0.0802 -0.0269 -0.1005
20183W        W40463   2.976  16.450  14.582  0.0839 -0.2151  0.1147
20184W        W40464  11.187  13.719   4.095 -0.1292  0.0001  0.2665
20185W        W40465   2.501   4.627   0.124 -0.1850 -0.0952  0.0629
20186W        W40466  15.644   7.155  15.842 -0.0603 -0.0181  0.0117
20187W        W40467   9.164  15.463  13.404  0.0773  0.0873  0.1177
20188W        W40468   9.870  14.682   0.384 -0.0428 -0.0585  0.0697
20189W        W40469   1.042   0.502  13.354 -0.2280 -0.0923 -0.0944
20190W        W40470  13.555   4.400   2.421 -0.1002  0.2200  0.0894
20191W        W40471  17.945   1.213  10.235  0.0444 -0.0769 -0.0415
20192W        W40472  12.054  16.636   2.782 -0.1778 -0.0391  0.0491
20193W        W40473   6.435   2.240   5.470  0.0266 -0.0653  0.1382
20194W        W40474   0.096   7.422   2.535  0.1399 -0.2956 -0.0080
20195W        W40475  16.569   0.814   2.254 -0.0067  0.1165  0.3257
20196W        W40476   1.428   9.350   2.096 -0.2355 -0.0611 -0.1876
20197W        W40477  11.267   3.464  13.006 -0.0427  0.2027 -0.3212
20198W        W40478   7.543   7.436  14.488  0.2141  0.0840  0.2268
20199W        W40479  12.055  12.062   0.582  0.2448 -0.1623 -0.2101
20200W        W40480  10.988  10.738  14.319  0.2688 -0.0520  0.2006
20201W        W40481   1.363   2.197  13.087 -0.1524  0.0604  0.2458
20202W        W40482   4.988   9.140   4.028  0.2007  0.0679  0.0423
20203W        W40483  16.193  14.130   0.580 -0.2452 -0.1121 -0.1690
20204W        W40484   2.487  16.944  13.463 -0.0141 -0.2124 -0.2097
20205W        W40485  11.935   3.396   3.939 -0.2767  0.0138 -0.2427
20206W        W40486   0.667  17.553  14.578 -0.4000 -0.3884 -0.0313
20207W        W40487   1.675   6.391   2.850  0.3045 -0.5945 -0.0430
20208W        W40488  10.043   1.559  15.775 -0.0580  0.3315  0.0702
20209W        W40489  16.060  16.441   2.256 -0.1493 -0.1364  0.1073
20210W        W40490  14.087  10.618   2.636  0.0559 -0.0906 -0.0341
20211W        W40491  14.617  18.210  15.830 -0.3946  0.1955  0.1817
20212W        W40492   8.273   3.368  14.425  0.0376  0.1872 -0.0424
20213W        W40493  15.206   9.778  15.343 -0.1479 -0.0827  0.2089
20214W        W40494   8.980  16.950   1.201 -0.2131  0.0048  0.1325
20215W        W40495   3.030  10.766  11.188 -0.1404 -0.2386  0.0912
20216W        W40496   1.876  10.375   4.334 -0.1324  0.1320  0.1408
20217W        W40497   4.187   8.459  15.422  0.2398  0.0660  0.0956
20218W        W40498   3.334   6.953   3.014  0.2121 -0.1780  0.2578
20219W        W40499  16.801   3.173  14.430  0.2068  0.1222 -0.0475
20220W        W40500  11.838  11.286   1.170  0.3087  0.1208 -0.1307
20221W        W40501  14.624   5.417   1.871 -0.0353 -0.0401  0.2533
20222W        W40502   8.124  13.978   1.322 -0.0099 -0.1405 -0.1372
20223W        W40503  11.450   3.277  13.716  0.0537  0.0452 -0.0691
20224W        W40504   4.753   8.781  12.078  0.1362 -0.3304  0.0179
20225W        W40505   6.184   9.289   2.226 -0.1089 -0.3245  0.1509
20226W        W40506   9.610  10.016   2.848  0.1756 -0.3318  0.1086
20227W        W40507   9.990  12.738   1.644 -0.0050 -0.2470  0.3225
20228W        W40508   0.673  14.105  14.585  0.0511 -0.1151 -0.0067
20229W        W40509   7.238  14.562  15.797 -0.2623 -0.1515  0.0653
20230W        W40510  10.170   1.744  12.475  0.1501  0.1852  0.2930
20231W        W40511   0.003   8.906   2.991  0.0511 -0.0651 -0.2318
20232W        W40512  15.676   9.745   1.285  0.3681 -0.0384  0.1673
20233W        W40513  10.135  13.877   0.354 -0.3055  0.2936  0.2228
20234W        W40514  12.955  16.631  11.168 -0.2140  0.1328  0.2841
20235W        W40515  11.203   7.906   5.799 -0.0073 -0.0392  0.0310
20236W        W40516  10.962  10.303   4.064  0.1488  0.4421  0.1309
20237W        W40517  18.052  10.533  13.817  0.1420  0.1015  0.0965
20238W        W40518  11.224  16.787   2.003  0.0398  0.1819  0.0022
20239W        W40519  12.408   7.313   1.814  0.0240 -0.2573 -0.1416
20240W        W40520  16.648  15.869  15.354  0.2407 -0.0114  0.0357
20241W        W40521  14.842   5.559   4.106  0.0633  0.1983 -0.0955
20242W        W40522  14.869   7.768   3.321  0.0493 -0.1074  0.1570
20243W        W40523   4.370  10.984  12.863 -0.0553  0.0904  0.1211
20244W        W40524  10.381  12.834  12.686 -0.1810  0.0531 -0.0290
20245W        W40525   0.092  16.309   0.678  0.2913 -0.0308 -0.0623
20246W        W40526  12.768  16.421   4.115 -0.3179  0.1037  0.1859
20247W        W40527  11.762   2.656   4.413 -0.1986  0.0482  0.0207
20248W        W40528  15.934   6.029   1.598 -0.0194 -0.2503 -0.2712
20249W        W40529  12.785  17.809   1.068  0.3068 -0.3412 -0.1642
20250W        W40530   5.877   1.387  13.243 -0.1311 -0.0860  0.2556
20251W        W40531  13.352  15.452  15.383 -0.3515 -0.2815 -0.1548
20252W        W40532  16.730  16.956  13.978  0.4933  0.0443  0.2563
20253W        W40533   9.384   8.017   2.656  0.3891 -0.0612  0.1168
20254W        W40534  16.406   3.855  14.810  0.0071  0.0977 -0.2900
20255W        W40535   7.920  17.048   0.186  0.1049 -0.2806  0.1131
20256W        W40536   4.252  11.897   4.952  0.2599 -0.0925 -0.0288
20257W        W40537  10.772   2.185   2.595 -0.0784  0.2303  0.3422
20258W        W40538  14.342   2.560  11.689  0.2903 -0.0264  0.2509
20259W        W40539   3.048  12.738   0.875  0.0463 -0.1297  0.1021
20260W        W40540   0.926   0.942  13.595 -0.1363  0.2091  0.1877
20261W        W40541   3.373  13.542  12.591  0.0277 -0.2224  0.0585
20262W        W40542   6.942   7.833  10.501 -0.2344 -0.1299 -0.2197
20263W        W40543  12.734  10.666  11.692 -0.0564  0.0565  0.1529
20264W        W40544  13.981   6.438  11.696  0.1706 -0.0215  0.0045
20265W        W40545  14.910   0.374  12.416 -0.1976  0.0644 -0.0418
20266W        W40546   7.854   9.447   2.516 -0.0384  0.0843  0.4606
20267W        W40547  10.183  13.289  15.155  0.0720 -0.2763  0.1107
20268W        W40548   4.748   9.679   5.425  0.0520 -0.1163  0.0430
20269W        W40549   3.738  13.728  12.952 -0.2542 -0.0487 -0.1427
20270W        W40550   4.585  16.303   2.634 -0.1372  0.1724 -0.0523
20271W        W40551   7.537  17.264   4.570 -0.0400  0.0792  0.3320
20272W        W40552   7.828  18.297  13.731 -0.0177  0.2892 -0.0013
20273W        W40553  15.754  16.894   2.395 -0.1153 -0.2235 -0.1512
20274W        W40554  17.819   8.800   4.688  0.2522 -0.2767  0.1263
20275W        W40555  16.679  13.514  14.995 -0.0765 -0.1606 -0.2517
20276W        W40556   9.771  15.677  12.228 -0.0001  0.0461 -0.0455
20277W        W40557   0.783  10.108   0.566  0.0670  0.2308 -0.3113
20278W        W40558   5.047  18.289  12.049 -0.0373  0.2773 -0.4055
20279W        W40559  13.857  17.223   3.167 -0.1967 -0.0092 -0.0907
20280W        W40560   4.032  12.339   3.940  0.0086 -0.0492 -0.0651
20281W        W40561  17.262  10.521  14.303  0.1808  0.0870 -0.1211
20282W        W40562   6.317  10.080   4.619  0.3356 -0.1019 -0.0049
20283W        W40563   5.642   5.280  11.784  0.4187 -0.2609  0.0317
20284W        W40564  16.710   1.763   1.561  0.0424  0.1605  0.2806
20285W        W40565  18.089   2.803   3.377 -0.0069 -0.0116  0.0819
20286W        W40566   2.685   4.324   2.589 -0.2191 -0.0150 -0.1763
20287W        W40567  13.499   3.239   1.059  0.0468  0.0704  0.5237
20288W        W40568  13.808  16.157  13.042  0.0703  0.0649 -0.0459
20289W        W40569  13.123  17.577  14.497  0.3798 -0.2388  0.1938
20290W        W40570   8.551   6.020   3.660 -0.0090  0.0519 -0.1058
20291W        W40571  15.362  10.624   0.660  0.1959 -0.3760  0.0226
20292W        W40572  11.395  11.755  12.418  0.0377  0.0307  0.0099
20293W        W40573  17.473   5.347  14.952 -0.0596  0.1633 -0.0312
20294W        W40574  10.674  14.161   5.555 -0.1727 -0.0217 -0.3178
20295W        W40575   0.621  14.391  12.962 -0.0675  0.1225  0.0000
20296W        W40576   8.771   3.368   4.520  0.1373 -0.2386  0.0614
20297W        W40577   0.104  13.202   2.374  0.3414 -0.0729 -0.1401
20298W        W40578  13.064  18.008   2.205 -0.1001  0.1108 -0.1052
20299W        W40579  10.589  15.587  14.788 -0.0492  0.1470 -0.1125
20300W        W40580   6.921   8.016   2.662 -0.1023  0.1190  0.1420
20301W        W40581  13.051   9.777  13.069 -0.0277 -0.3233  0.1224
20302W        W40582   6.423   6.108  11.706 -0.1924  0.2244  0.0467
20303W        W40583   9.751   2.800  12.451 -0.2096  0.4591 -0.3300
20304W        W40584  12.890  10.926   5.089 -0.2352  0.1203 -0.0279
20305W        W40585   1.983   5.957   4.167 -0.0308 -0.1475  0.0171
20306W        W40586  15.876  14.056   4.099  0.1144 -0.0646  0.1105
20307W        W40587   4.218   5.427  14.990 -0.0996  0.1988  0.0018
20308W        W40588   6.544  10.658   3.791  0.0972  0.4002  0.1214
20309W        W40589  11.421  17.689  12.005  0.0761  0.0007 -0.1281
20310W        W40590  10.247  13.391  15.606 -0.1506  0.0221 -0.1654
20311W        W40591  15.115   1.131  12.866  0.0986  0.0706  0.0944
20312W        W40592   6.582  13.962  15.295 -0.0059  0.0127  0.2033
20313W        W40593   0.055  15.150  14.935  0.0371 -0.0326 -0.0156
20314W        W40594  16.988   6.273   1.792 -0.4181  0.0129 -0.2048
20315W        W40595  12.483  15.072  13.677 -0.1845 -0.0127 -0.2548
20316W        W40596   2.243   4.184  15.913 -0.1539 -0.0544  0.2707
20317W        W40597  13.224   0.890  13.834  0.0393 -0.0094 -0.2092
20318W        W40598  13.282   7.204   2.092 -0.1391 -0.0258 -0.0822
20319W        W40599  11.779   1.564  13.481 -0.1072  0.1360 -0.0366
20320W        W40600  17.189   1.236  12.797  0.0279  0.2656  0.0336
20321W        W40601  13.620   9.272   0.066  0.2492  0.1561 -0.0526
20322W        W40602  14.799  12.769  13.678 -0.4509  0.1475 -0.0334
20323W        W40603  15.366  11.556   1.553 -0.1417  0.1353  0.2207
20324W        W40604   8.088  15.657   4.112  0.0644 -0.1671 -0.0949
20325W        W40605  14.916  17.113   3.334 -0.0344  0.0845 -0.0673
20326W        W40606   9.147   1.763  14.318 -0.0465  0.1960  0.1880
20327W        W40607  14.526  14.206  14.238  0.1168  0.1049  0.0392
20328W        W40608   4.134   0.162  15.339  0.0177 -0.4021  0.0011
20329W        W40609   7.263   5.997   3.381  0.1023 -0.1320  0.1916
20330W        W40610   8.619  18.014   0.281  0.0695  0.0318 -0.3603
20331W        W40611   2.738   0.947  12.239 -0.0222  0.0797 -0.1740
20332W        W40612   0.287   8.515   4.625  0.2088  0.0681  0.1663
20333W        W40613   4.668   5.003   1.130 -0.1919  0.0034  0.1178
20334W        W40614   8.570   4.030   1.135 -0.0973 -0.0987 -0.1260
20335W        W40615   9.381  15.311   0.443 -0.1458 -0.0554 -0.2572
20336W        W40616  17.183  18.163   2.864 -0.3906 -0.1563  0.1549
20337W        W40617   2.178   6.576   1.579 -0.0171  0.3046 -0.0516
20338W        W40618  10.761   3.697   4.307 -0.1326 -0.2082  0.4114
20339W        W40619   6.037   5.098  13.633 -0.2335 -0.1664 -0.2466
20340W        W40620  10.883  12.446  12.572  0.2020  0.0825  0.0894
20341W        W40621   0.782   5.067  13.336 -0.2102 -0.0414  0.3147
20342W        W40622  14.763   8.693   4.438 -0.0509 -0.1271 -0.1516
20343W        W40623   2.514  13.343   4.785 -0.1307  0.0796  0.0011
20344W        W40624  15.006   7.297  12.249  0.1623  0.1539 -0.0507
20345W        W40625  14.370  16.798  11.801 -0.1082  0.0807  0.1960
20346W        W40626   1.285   2.292  14.197  0.1087  0.3738 -0.0407
20347W        W40627  14.924  12.816  13.164 -0.2395  0.1152 -0.1311
20348W        W40628   5.432   5.788  14.904 -0.0846 -0.2349 -0.2013
20349W        W40629  12.172  10.601  15.838  0.0309 -0.1762  0.2340
20350W        W40630   9.302   5.641   3.567  0.0014 -0.1606  0.2072
20351W        W40631  16.538   7.706   4.075  0.0561 -0.1906 -0.1738
20352W        W40632  16.536  10.131  13.775 -0.1429 -0.2646  0.3280
20353W        W40633   8.592  17.406   2.456  0.1413 -0.2224 -0.3340
20354W        W40634  13.469   7.770  13.286  0.2292 -0.3355 -0.0760
20355W        W40635   2.349   5.987   0.630 -0.1860  0.2387  0.2213
20356W        W40636  10.249  17.817  11.409 -0.0453  0.1906 -0.0781
20357W        W40637   0.199  12.207   3.605 -0.0269 -0.0679  0.3875
20358W        W40638   9.176   7.128   1.807  0.0066 -0.0491  0.0714
20359W        W40639   7.957  10.196  14.277 -0.0096  0.2216 -0.5637
20360W        W40640  12.297   3.831   2.588  0.0048 -0.2424 -0.2657
20361W        W40641  17.128   4.371   0.878  0.0204 -0.4598 -0.2021
20362W        W40642  12.685   7.094   3.265 -0.3254 -0.2717  0.1488
20363W        W40643   8.548  14.332   2.799  0.2002  0.1666  0.0273
20364W        W40644   3.606   7.188  14.980 -0.0157 -0.0845 -0.3895
20365W        W40645  16.882  11.996  12.676 -0.1302 -0.0194  0.1305
20366W        W40646  13.335  15.557   4.004  0.0992  0.0650  0.3148
20367W        W40647  16.775   9.116  14.056  0.0632 -0.0723 -0.0897
20368W        W40648   1.017  13.617  14.069 -0.0728 -0.3477  0.0177
20369W        W40649  10.448  11.046  13.000 -0.2272 -0.1760  0.1001
20370W        W40650   9.287  15.989   1.619  0.0602 -0.2231  0.2393
20371W        W40651   0.106   5.221  11.697 -0.2900  0.2677  0.0841
20372W        W40652   9.757  11.244  13.817 -0.1959  0.3122  0.2101
20373W        W40653   1.916  11.740   1.604  0.0401 -0.1604  0.0674
20374W        W40654  14.813   0.693  12.057  0.0754  0.0292  0.2304
20375W        W40655  17.661   8.416   0.887  0.0943  0.1120  0.1862
20376W        W40656  15.159  15.135  12.782  0.0796 -0.0350  0.0797
20377W        W40657  12.555  18.264   3.129 -0.0751 -0.2334 -0.1107
20378W        W40658  14.442   4.747   4.346  0.2025 -0.0676 -0.2646
20379W        W40659   5.372   7.330   4.097  0.2023  0.0653  0.1563
20380W        W40660   2.976  10.523   0.290 -0.3267  0.1630  0.0221
20381W        W40661  11.047  11.007  11.253 -0.1538  0.0330  0.1139
20382W        W40662  15.117   6.521  12.245 -0.0428  0.0480  0.1368
20383W        W40663  10.885   3.111  14.391 -0.1024 -0.1420 -0.2393
20384W        W40664  14.692   4.392  12.193  0.0477 -0.2813  0.4659
20385W        W40665   4.880   0.307   3.025  0.0976  0.0034  0.2012
20386W        W40666  11.156  11.067  13.405  0.2981  0.0783 -0.3896
20387W        W40667   0.132  17.449   4.774  0.2335  0.0529 -0.2192
20388W        W40668   9.321   8.385   0.844 -0.1298 -0.1226  0.0921
20389W        W40669   6.046  10.103   1.260 -0.2091 -0.0053  0.0669
20390W        W40670   5.835   3.220  12.217  0.2300  0.0369 -0.1654
20391W        W40671  13.521  17.322   1.695  0.2203  0.1753  0.0223
20392W        W40672  13.582   3.014   1.503  0.1201  0.0186 -0.0132
20393W        W40673   7.184   5.843  15.305  0.1722 -0.1046 -0.3249
20394W        W40674   3.305  14.864  15.651 -0.1151 -0.0782  0.3926
20395W        W40675  11.320   3.419   3.195  0.0228  0.1943 -0.0785
20396W        W40676   7.631   5.310  13.821 -0.2465 -0.3006 -0.1581
20397W        W40677   1.167   9.484  14.576 -0.0628 -0.2555  0.4096
20398W        W40678   3.525   5.941   4.001 -0.1490 -0.1151  0.0552
20399W        W40679  15.347  17.257   0.889  0.1008 -0.0666 -0.0350
20400W        W40680   2.219   3.837   2.117  0.3653 -0.1710  0.0110
20401W        W40681   3.448  13.441   4.649 -0.0420  0.0628 -0.1438
20402W        W40682   8.484  16.516   2.944  0.2636  0.0520  0.3112
20403W        W40683   1.751   6.008  12.616  0.0924  0.1535  0.0052
20404W        W40684   0.631   5.960   2.349  0.0074  0.2088  0.1685
20405W        W40685   1.755   6.885   4.362  0.0726  0.0702 -0.0555
20406W        W40686   1.092  14.228   3.758  0.2756 -0.1170  0.1091
20407W        W40687   2.390  17.752   3.051 -0.1900 -0.1624  0.4132
20408W        W40688   4.231  16.348  15.783 -0.0271 -0.1807  0.0649
20409W        W40689   3.926   6.567  14.366  0.0254 -0.1176 -0.0438
20410W        W40690   9.928   0.214   0.742 -0.2718  0.0058  0.0293
20411W        W40691  16.225  14.430  13.118  0.1099  0.2714  0.1315
20412W        W40692   3.434   5.036  14.526 -0.0876 -0.0938 -0.0968
20413W        W40693  12.619  13.145   1.214  0.2610  0.3036  0.2216
20414W        W40694   0.205   9.882   2.910  0.0445  0.0489  0.0683
20415W        W40695  16.203  11.644   0.348 -0.1042  0.0940 -0.1037
20416W        W40696   5.764   3.912   4.478  0.0436  0.2161 -0.4732
20417W        W40697   8.853  13.679  12.049  0.2511 -0.0255  0.2398
20418W        W40698   6.466   7.561   1.469  0.2139 -0.0626  0.1407
20419W        W40699  14.750   7.476   4.660 -0.0084  0.0634 -0.0277
20420W        W40700  12.264   6.748   2.559  0.0864  0.3234 -0.0438
20421W        W40701  16.114  16.654  15.070 -0.0292 -0.0678 -0.1034
20422W        W40702  15.193   7.871   4.025 -0.0965  0.1452 -0.2249
20423W        W40703   7.147  17.409   0.508 -0.1093 -0.3618 -0.1726
20424W        W40704  18.179  13.178   2.765  0.1518 -0.1558 -0.0788
20425W        W40705   5.905  15.253   0.418 -0.0788 -0.3229 -0.1624
20426W        W40706  17.693  16.499   4.550 -0.2642 -0.1537  0.2357
20427W        W40707  17.738   6.800  13.787 -0.1922 -0.0576 -0.0402
20428W        W40708   4.908  11.364   3.394  0.0930  0.3824 -0.4764
20429W        W40709   6.136   4.993   3.761  0.0415  0.1360 -0.1345
20430W        W40710  14.672   9.594   2.747 -0.1308  0.0710 -0.1080
20431W        W40711  14.675   8.466  11.121  0.1065 -0.0493  0.0001
20432W        W40712  11.276  13.975   2.838  0.0577 -0.1650 -0.2737
20433W        W40713   0.183  14.294   2.414 -0.3910 -0.4846  0.3330
20434W        W40714   3.287   2.618  12.804 -0.0103  0.3062 -0.3492
20435W        W40715  17.611   3.538  13.411  0.1695  0.2727  0.2867
20436W        W40716   1.191   0.997  12.606  0.0625  0.5502 -0.0572
20437W        W40717   4.059   5.168  15.749 -0.0207  0.0493  0.1355
20438W        W40718   3.024  16.040  13.722  0.1160 -0.1658  0.2072
20439W        W40719  10.846   5.348   5.521  0.3496 -0.2008 -0.1232
20440W        W40720  10.577   7.441  13.601 -0.6215 -0.1334 -0.0652
20441W        W40721   7.384  17.767   2.147 -0.0031  0.2768 -0.4811
20442W        W40722  13.960   8.574  13.383  0.1280  0.1042  0.0544
20443W        W40723  17.064  13.843  14.823 -0.1416 -0.2506 -0.0009
20444W        W40724  11.653  12.208  11.238  0.2157  0.0797  0.2688
20445W        W40725   4.486  15.666   1.794  0.1389 -0.0051 -0.1140
20446W        W40726  15.157   7.688  10.677  0.0357 -0.1646  0.1978
20447W        W40727   1.312  13.501  11.839 -0.0804  0.0219  0.0081
20448W        W40728  10.907  16.592   0.445  0.3161 -0.0908  0.1554
20449W        W40729   4.917   1.605   2.553  0.0390 -0.0872  0.0588
20450W        W40730   7.149   9.873  15.325  0.2288  0.2555  0.0188
20451W        W40731   4.395  14.119   2.115 -0.1269  0.0345  0.2819
20452W        W40732  14.519   1.718   3.711 -0.3026 -0.1005 -0.0934
20453W        W40733  12.206  17.617  14.544 -0.1038  0.1056  0.1337
20454W        W40734   8.113   8.306  12.223 -0.4142  0.0347 -0.0842
20455W        W40735   0.567   5.835   1.835 -0.0226 -0.0176  0.0258
20456W        W40736   8.659   2.381  13.311 -0.1148  0.0227 -0.1552
20457W        W40737   0.847   4.936  14.829  0.0676  0.1158  0.1177
20458W        W40738  12.648  12.351  12.701  0.1144 -0.0554  0.0360
20459W        W40739   9.645  15.617  13.234  0.1561 -0.0599  0.0675
20460W        W40740   6.875   7.148  12.495  0.2056  0.1945  0.3577
20461W        W40741  11.168   4.087   0.029  0.1706  0.0927  0.0780
20462W        W40742  10.438   6.181  14.745  0.2940  0.0200 -0.2503
20463W        W40743  13.602  16.637   0.678 -0.2748 -0.1459 -0.1563
20464W        W40744   2.848   8.751  13.223  0.1300  0.1340  0.0776
20465W        W40745  18.107   4.866   0.028  0.0749 -0.1152 -0.1680
20466W        W40746   6.870  15.624  14.957 -0.2378 -0.1718  0.1451
20467W        W40747  13.294   5.557  11.808  0.2330  0.0998 -0.2380
20468W        W40748  17.258  18.290   1.446 -0.1612  0.3440  0.0768
20469W        W40749   0.261   5.526   0.557 -0.2494 -0.2199 -0.3238
20470W        W40750  11.265  10.387   3.642 -0.1245 -0.0020 -0.2592
20471W        W40751  10.622   9.944   0.184  0.1354  0.0751 -0.2354
20472W        W40752  14.997   8.608  11.938  0.6499 -0.3490 -0.3087
20473W        W40753   3.675   0.878   1.444  0.1827  0.0823 -0.0178
20474W        W40754   2.034  11.764  15.201  0.1282 -0.0397  0.1925
20475W        W40755  17.272   4.377   2.384  0.0915 -0.1048  0.0232
20476W        W40756   6.083  15.657   0.209 -0.0698  0.0011 -0.0294
20477W        W40757   7.299   3.991  12.457 -0.0286  0.1554 -0.3030
20478W        W40758   6.441  11.684  10.890  0.2198 -0.1226 -0.2559
20479W        W40759   5.574  11.093   3.944 -0.0070  0.3124 -0.0043
20480W        W40760  10.294  10.424   3.244 -0.0340  0.3422 -0.1009
20481W        W40761   6.415  14.663   1.159  0.0082 -0.3417  0.2134
20482W        W40762  10.816   3.842   3.737 -0.2118 -0.0512  0.1200
20483W        W40763   0.147   7.514   0.501 -0.0025 -0.2035 -0.0306
20484W        W40764   9.821   2.973  13.578  0.2490 -0.1803 -0.2132
20485W        W40765   5.118  11.617   1.918 -0.0652 -0.0869 -0.1320
20486W        W40766   3.417  18.305  12.979 -0.1996  0.0634 -0.2482
20487W        W40767  16.170   4.089  11.618 -0.0490 -0.0231  0.2040
20488W        W40768  17.972   0.391   3.116  0.0720  0.0069  0.2279
20489W        W40769   6.695   4.630   0.615 -0.2077  0.0944 -0.1011
20490W        W40770   4.418   7.768  12.978 -0.1986 -0.0721  0.0207
20491W        W40771   6.389  15.269  14.037 -0.1923  0.0548 -0.1347
20492W        W40772   2.804  14.054  14.187 -0.1090 -0.0809 -0.2201
20493W        W40773   3.747  13.107   5.547 -0.1621 -0.0508 -0.0562
20494W        W40774  14.600   7.471   2.927  0.0250  0.0229 -0.0170
20495W        W40775   7.356  13.457   0.698 -0.0154  0.0322 -0.2333
20496W        W40776  10.662  13.636   2.359  0.0655  0.1093 -0.0895
20497W        W40777   7.267  12.403   2.979 -0.0700  0.3537 -0.0233
20498W        W40778   4.701   7.889   3.529  0.0772  0.0735  0.0198
20499W        W40779   1.116   9.486   1.149 -0.1579 -0.0724  0.0366
20500W        W40780   9.207  12.517  14.698  0.1503 -0.2383  0.0064
20501W        W40781  15.672   7.350   1.499 -0.1683  0.0248  0.0141
20502W        W40782   4.454   0.707   3.731  0.1680  0.0001  0.1130
20503W        W40783  16.941   9.854  13.206 -0.2738  0.0922 -0.0742
20504W        W40784  17.446   5.035   4.653 -0.0795  0.0482  0.2378
20505W        W40785   0.118   5.943  11.578 -0.0980  0.2768  0.1259
20506W        W40786  10.363  16.773   2.271 -0.0702  0.0940 -0.1316
20507W        W40787   8.528  18.221  13.987 -0.1076  0.0376 -0.0758
20508W        W40788   3.684   9.115   2.390 -0.1702  0.0634  0.1960
20509W        W40789  13.213   1.839  13.620 -0.0612  0.1884  0.2922
20510W        W40790  15.366  14.553  13.455 -0.1574  0.0362  0.1374
20511W        W40791  17.912  14.131  12.763  0.1317  0.1899 -0.1165
20512W        W40792   2.666   6.981   0.731  0.3753 -0.3082  0.0707
20513W        W40793  13.788   7.409   1.858 -0.0190  0.2901  0.2617
20514W        W40794   4.118   1.984   0.446 -0.2416 -0.0963  0.0096
20515W        W40795  17.546   8.443  13.669  0.4764 -0.0386  0.1829
20516W        W40796  17.452  11.240   0.750  0.2036  0.1724 -0.1141
20517W        W40797   8.019  10.213  11.629  0.4376  0.0690  0.0365
20518W        W40798   0.377  16.607   5.467  0.3096  0.1441  0.0908
20519W        W40799  12.521   8.264  15.121 -0.0860 -0.1145 -0.1166
20520W        W40800  16.804  11.042   0.113  0.1647  0.3189 -0.3726
20521W        W40801  11.697  14.355   4.000  0.1031 -0.1561  0.2082
20522W        W40802   7.685  16.584  10.690  0.0241 -0.1851  0.3768
20523W        W40803  16.458   9.405   1.941  0.0535 -0.0793  0.1033
20524W        W40804  18.041   9.586  14.110  0.2186 -0.1585 -0.0669
20525W        W40805  17.930  18.170  14.742  0.2228  0.1643  0.1342
20526W        W40806  17.733  16.879  13.113 -0.2873 -0.1010 -0.1190
20527W        W40807  11.870  12.943  13.069  0.2889 -0.0170 -0.2279
20528W        W40808  16.716  10.324  12.912  0.1277 -0.0644  0.0226
20529W        W40809   8.688  14.701   0.375 -0.3189  0.1067 -0.3121
20530W        W40810   0.593  14.514   5.442  0.1607 -0.0840 -0.1019
20531W        W40811   2.858   9.234   2.889  0.0497  0.0802 -0.1180
20532W        W40812  11.355   6.276  13.624  0.2155  0.0453 -0.2422
20533W        W40813   3.426   1.930  12.039 -0.1417  0.3697  0.2039
20534W        W40814   8.478   0.344   0.902 -0.0225  0.1645 -0.0289
20535W        W40815  11.061  16.132   1.119 -0.2582  0.0759 -0.1666
20536W        W40816   7.320   5.500  13.444  0.0131 -0.2588 -0.2214
20537W        W40817   2.958   2.983  11.379 -0.2415  0.1135 -0.1673
20538W        W40818  12.170  14.269  14.126  0.0023 -0.1354  0.0587
20539W        W40819  15.313   0.713   4.221 -0.1111  0.1252 -0.1528
20540W        W40820  13.076   8.328   4.650  0.2915  0.1119 -0.1039
20541W        W40821   5.390  14.784   2.081 -0.0379 -0.1995  0.1782
20542W        W40822   2.931  12.627  15.705  0.0911  0.0474  0.0026
20543W        W40823   5.002  11.967  12.129  0.1491  0.3621  0.3307
20544W        W40824  17.497   4.988  15.794  0.2375 -0.2311 -0.3322
20545W        W40825  11.278  15.974  15.441  0.1545 -0.1119 -0.1658
20546W        W40826  13.909  16.721   1.095 -0.1678  0.4256  0.1071
20547W        W40827  17.808  11.740  14.508  0.0017 -0.4788 -0.3001
20548W        W40828   5.140   9.123  11.641 -0.0045 -0.2450  0.1471
20549W        W40829   0.524   9.912  15.672 -0.1490  0.1421 -0.0349
20550W        W40830  18.123   2.773   4.750  0.2056  0.0990  0.2565
20551W        W40831   6.555   9.352   2.536 -0.0450  0.2703  0.3838
20552W        W40832   7.272  15.666   2.000  0.1877 -0.0643 -0.2540
20553W        W40833  17.358   7.207   4.017 -0.0123  0.0699  0.1957
20554W        W40834   4.312  16.505  14.759  0.2735  0.1977  0.2066
20555W        W40835   0.882  16.250  15.882  0.0084 -0.0800 -0.2757
20556W        W40836   1.290   2.315   1.679 -0.0172  0.0265  0.2141
20557W        W40837  18.264  15.867  15.539  0.0589  0.0461  0.1289
20558W        W40838  13.364  10.546   4.089 -0.1051 -0.0078 -0.2688
20559W        W40839   7.021  14.127  12.670 -0.1086  0.0370 -0.0358
20560W        W40840   5.438  13.322   2.384 -0.2654 -0.2319 -0.1095
20561W        W40841  12.579   3.380   0.820 -0.2288 -0.0965  0.1974
20562W        W40842   3.400  15.341  15.887  0.0646 -0.1200 -0.1402
20563W        W40843  16.014  17.392   2.996 -0.2137 -0.1212 -0.1347
20564W        W40844   3.832   9.364  12.917 -0.0554 -0.1184 -0.1373
20565W        W40845  10.843  12.127   5.865 -0.0031  0.1021  0.0251
20566W        W40846  10.526   7.769  13.220  0.2898  0.2550  0.2101
20567W        W40847   8.860  10.812  14.706 -0.0403  0.1221 -0.0519
20568W        W40848  16.682   5.476  14.002  0.4116  0.0720  0.0156
20569W        W40849  11.169   6.737  14.301 -0.1902  0.0413  0.2480
20570W        W40850   8.399  16.597   1.438 -0.3725  0.0264  0.0923
20571W        W40851  16.112   5.861  15.827  0.4076 -0.0803 -0.2198
20572W        W40852  11.177  13.104  14.831  0.1275  0.0536 -0.0007
20573W        W40853   5.084   1.477  14.500 -0.1846 -0.0965  0.0778
20574W        W40854   4.503   9.491  13.927 -0.0801  0.3064 -0.4494
20575W        W40855   3.177   1.735   2.868 -0.0010  0.0225 -0.4236
20576W        W40856   6.354   5.636   2.267 -0.0282 -0.1554  0.2213
20577W        W40857   9.890   0.107  12.323  0.1658  0.0110 -0.0335
20578W        W40858   9.668  16.935  14.250  0.1203 -0.2474 -0.0057
20579W        W40859   4.971  13.382   2.494  0.0305 -0.0472 -0.0615
20580W        W40860  17.786   1.715  14.400  0.2145 -0.2289  0.0859
20581W        W40861   8.666  14.589   4.157  0.2001 -0.1054  0.0088
20582W        W40862  15.049   5.086   0.690 -0.4120 -0.1695  0.0165
20583W        W40863   8.223  15.804  14.745  0.1190 -0.0087 -0.0720
20584W        W40864   2.860   5.393  12.409  0.0857  0.0949  0.1777
20585W        W40865  15.716  14.602   0.184  0.1109  0.2158  0.3789
20586W        W40866  15.448  14.217   0.498 -0.2713 -0.0107  0.0499
20587W        W40867   4.380   8.249  14.843  0.0032  0.3373  0.1486
20588W        W40868   5.496  11.850  11.464  0.1318 -0.1125  0.2012
20589W        W40869   7.065   6.534  11.732 -0.0594 -0.1353 -0.2597
20590W        W40870   8.780   6.912   3.497 -0.2022  0.0356  0.1072
20591W        W40871  14.320   8.202  13.046 -0.0809 -0.0199  0.0304
20592W        W40872  13.714   5.938   4.899 -0.0399  0.1247  0.2558
20593W        W40873   4.310   5.770   1.204  0.3747  0.2048  0.0786
20594W        W40874  16.147   0.691   3.048 -0.0395  0.0782  0.2228
20595W        W40875  17.138  16.364   1.108  0.2383  0.1924 -0.2424
20596W        W40876  13.322  18.263   0.593  0.2763 -0.2692  0.2209
20597W        W40877  16.143  13.043   3.640  0.0606  0.1683 -0.3407
20598W        W40878   7.122   8.848   4.655 -0.3279  0.2125  0.2420
20599W        W40879   5.939   0.010  14.720  0.1032 -0.1038 -0.0350
20600W        W40880  15.333   0.049  13.724  0.0512  0.1992  0.0614
20601W        W40881  10.883   7.979  14.798  0.0073 -0.1789 -0.1901
20602W        W40882  14.307  17.188   2.706  0.2649  0.0704 -0.1527
20603W        W40883   9.222  18.320  15.151  0.1330 -0.0293 -0.2275
20604W        W40884   0.686  10.243   0.083  0.1983 -0.0945  0.2854
20605W        W40885   5.118   0.085   2.146  0.2201 -0.3978  0.2034
20606W        W40886  10.941  15.461   0.488  0.1709  0.1609 -0.1942
20607W        W40887  15.754   4.386  11.782  0.2765  0.0530 -0.3448
20608W        W40888  10.957  11.395   0.718  0.4132 -0.0304 -0.1185
20609W        W40889   1.300  16.560  14.671  0.1073 -0.0850 -0.0652
20610W        W40890   5.008   4.677  13.573 -0.0708  0.0604 -0.1582
20611W        W40891   1.069   5.370   4.898 -0.1471  0.0379  0.2816
20612W        W40892   7.773   9.711  14.463  0.2225 -0.1684 -0.1628
20613W        W40893   7.755   3.180   2.742  0.2079  0.0643 -0.0328
20614W        W40894   7.974  16.980  10.668  0.1727  0.3223 -0.3896
20615W        W40895  17.708   9.287   0.204  0.2297  0.0343 -0.2967
20616W        W40896  13.033  13.874  13.748  0.0740 -0.0904 -0.0559
20617W        W40897  15.874   4.212   2.157 -0.4245  0.2144 -0.2059
20618W        W40898   1.135  10.519   0.637  0.0889  0.1985  0.0447
20619W        W40899   7.346   5.410  14.222  0.0231  0.1205 -0.4383
20620W        W40900  15.688   7.046  14.203 -0.0148  0.0331  0.0169
20621W        W40901  13.481   5.369  12.688 -0.0314  0.1211 -0.1112
20622W        W40902   1.234   9.008   0.057 -0.1433  0.2064  0.1665
20623W        W40903  12.561  11.634  13.065  0.0628 -0.1333 -0.4003
20624W        W40904   8.321  11.530   3.204  0.0884 -0.0083 -0.2722
20625W        W40905   0.174   8.058   1.812 -0.3702 -0.0581  0.0168
20626W        W40906   0.265   6.466   2.927  0.3098 -0.1905  0.0439
20627W        W40907  13.215   4.986  13.285 -0.0846 -0.1891 -0.2039
20628W        W40908  10.569   5.552   1.968  0.1642 -0.0869 -0.1458
20629W        W40909  16.834   5.187  12.512  0.3304 -0.0809  0.0874
20630W        W40910   0.541   1.138  12.322  0.2222 -0.0565 -0.0838
20631W        W40911   9.094   2.220   1.083  0.2049 -0.2283  0.0251
20632W        W40912  17.075   3.537   0.757 -0.0297 -0.0260 -0.3037
20633W        W40913   1.474   1.769  15.059  0.0531 -0.1065  0.0400
20634W        W40914   0.961  10.346   4.537  0.1150  0.1941  0.2902
20635W        W40915  11.092  11.575  15.164 -0.1130 -0.0431 -0.0906
20636W        W40916   4.900  11.915   2.800 -0.2155  0.1410  0.0332
20637W        W40917  15.366  11.735   0.848 -0.0033  0.4285  0.0351
20638W        W40918   0.873  13.430   0.653 -0.3479 -0.1781  0.3072
20639W        W40919   2.948  10.617   0.921 -0.0019  0.0782  0.0135
20640W        W40920  18.097  16.336  12.398 -0.0205  0.1633 -0.0649
20641W        W40921  13.265   8.859  14.783  0.0317 -0.1200  0.0727
20642W        W40922  17.024  16.923  14.506 -0.3025 -0.1016 -0.3243
20643W        W40923  14.488   4.356   3.449  0.2758  0.0691  0.1817
20644W        W40924  10.458   5.335   1.069  0.0276  0.3118 -0.0724
20645W        W40925   9.047  11.171  14.401 -0.0935 -0.3089  0.0116
20646W        W40926   8.538   2.835  11.964 -0.1449 -0.2057  0.0339
20647W        W40927   7.788  16.527  12.422  0.2185 -0.0459 -0.1594
20648W        W40928   9.581  12.760  15.054 -0.1770  0.0208  0.2469
20649W        W40929   4.593  13.798   0.789  0.1644 -0.3128 -0.1141
20650W        W40930  12.402   8.894   3.853  0.1722 -0.0476 -0.1704
20651W        W40931   6.969   1.760  14.745  0.0279 -0.1492  0.1078
20652W        W40932   5.088   8.014  15.700  0.3913 -0.0544 -0.2735
20653W        W40933   2.702   5.011  12.060 -0.0556 -0.1099 -0.5837
20654W        W40934  14.254  10.391   3.132  0.0897 -0.0548  0.1933
20655W        W40935   6.750  10.237   0.263 -0.1653 -0.4023  0.0655
20656W        W40936   3.653  18.260   0.192 -0.0905 -0.2305  0.2093
20657W        W40937   5.431   2.291  14.770  0.0516 -0.2269 -0.0454
20658W        W40938  17.431   5.995   0.238 -0.1184 -0.1998 -0.1257
20659W        W40939  12.775   8.967  12.328  0.1581  0.4342 -0.3331
20660W        W40940  14.427   1.950   2.098 -0.1038  0.1811 -0.0603
20661W        W40941  13.842  10.149  13.202  0.0853  0.2905 -0.3266
20662W        W40942   1.485   4.550  15.419  0.5432  0.0407  0.1103
20663W        W40943  13.435   1.521  15.001 -0.2965  0.1117  0.0976
20664W        W40944  16.793   3.406  15.552 -0.3300  0.0061 -0.2093
20665W        W40945  11.602  16.081  15.854  0.0253  0.3318 -0.0343
20666W        W40946   5.819  13.974   1.554 -0.1189  0.0237  0.1441
20667W        W40947   5.130   2.561  12.866  0.0075  0.1191 -0.1442
20668W        W40948   3.195  15.853  13.287  0.1365  0.0536  0.3073
20669W        W40949   5.044  11.009  13.423  0.0192 -0.3306 -0.0024
20670W        W40950  12.050  12.094  11.941 -0.3813  0.1172  0.3895
20671W        W40951   5.202  11.154   2.066 -0.1647 -0.1421 -0.0590
20672W        W40952  16.663   0.328   4.576 -0.1369 -0.3092  0.0641
20673W        W40953  18.005   9.933  15.371 -0.1605  0.0126 -0.0328
20674W        W40954  11.937   7.734  13.080 -0.0878  0.0304  0.2921
20675W        W40955  17.508   0.130   3.195  0.2286  0.3043  0.0940
20676W        W40956   2.184  17.580   1.018  0.0387 -0.1133  0.2208
20677W        W40957   5.838   8.654  13.627 -0.2079  0.1595 -0.1547
20678W        W40958   6.276  12.002  14.577 -0.2686  0.0107 -0.1164
20679W        W40959   5.825  16.091   0.972  0.0016  0.1172  0.1697
20680W        W40960   7.218  17.252  15.543 -0.0511 -0.3000 -0.2009
20681W        W40961   6.092  14.721  10.229 -0.0388 -0.3936 -0.0271
20682W        W40962   4.184   4.963  14.739 -0.0047 -0.2161  0.0202
20683W        W40963   9.267   3.419   1.831  0.1615  0.0714 -0.2519
20684W        W40964  15.543   2.719   1.367  0.2598  0.0077 -0.0144
20685W        W40965   4.537   8.410   1.517 -0.2902 -0.2446  0.2193
20686W        W40966   2.065   8.220  15.288 -0.0533  0.0159  0.3245
20687W        W40967   2.727  14.048   1.063  0.0662 -0.0477  0.3842
20688W        W40968   0.358  15.456   2.425  0.1226  0.0905  0.0813
20689W        W40969  12.524  11.870   4.150  0.0752  0.0328  0.0894
20690W        W40970  11.442   2.258   3.972 -0.1176  0.0624 -0.0278
20691W        W40971  13.325  16.155   3.603 -0.0340 -0.1356  0.3279
20692W        W40972   1.448   0.784   2.079  0.1037  0.2229  0.0826
20693W        W40973   6.122  14.278  11.356  0.4784 -0.2005  0.2329
20694W        W40974   7.402   1.721   2.676  0.3121  0.0653 -0.1089
20695W        W40975   4.993  15.483  13.676 -0.2112  0.0208 -0.1473
20696W        W40976  11.788   6.047   0.847 -0.0439 -0.1162  0.5365
20697W        W40977  17.586   9.952  14.923  0.0185  0.1572  0.1744
20698W        W40978  13.827   2.169   1.463  0.0023  0.0845  0.1257
20699W        W40979   8.477   0.955  12.082 -0.0430  0.0316  0.1170
20700W        W40980   3.806   6.231  13.416 -0.1423  0.1906 -0.0644
20701W        W40981   2.170   6.751  13.634  0.6909  0.1558 -0.1539
20702W        W40982   3.126  12.636   3.678 -0.0423  0.1467 -0.1375
20703W        W40983   2.475   5.510  12.028 -0.1350  0.2263 -0.0830
20704W        W40984   1.705   7.625  11.920  0.0905 -0.0334 -0.1362
20705W        W40985  12.016   2.086  15.292  0.2716  0.1898 -0.1685
20706W        W40986  17.861   8.795  13.896  0.1384 -0.1582  0.0986
20707W        W40987  14.564  10.830   1.491 -0.1501 -0.1317 -0.1017
20708W        W40988   9.737   1.727   0.249 -0.1935  0.2274  0.0331
20709W        W40989  11.687  13.021   1.145 -0.1256  0.1679 -0.2525
20710W        W40990   6.344   1.251   3.356 -0.0006  0.1061 -0.1945
20711W        W40991  16.130  10.929   5.051  0.0252 -0.0066  0.2165
20712W        W40992  14.917   5.763  13.794 -0.0490  0.0482 -0.3154
20713W        W40993  17.752   0.974   4.373  0.0716 -0.0654  0.0625
20714W        W40994  14.939  10.264  14.226  0.0804 -0.0117 -0.1488
20715W        W40995   9.283   5.261   0.446  0.1299 -0.1120 -0.0680
20716W        W40996  13.950   6.057  12.664 -0.1626  0.3674  0.0200
20717W        W40997   7.850   8.783  13.246 -0.0263  0.2280 -0.0692
20718W        W40998  16.258   9.476   0.641  0.0763 -0.1694  0.0804
20719W        W40999   4.008   5.961   3.871 -0.1075 -0.5011  0.2788
20720W        W41000   5.505   1.870   2.122  0.0240  0.0431 -0.0768
20721W        W41001  15.982   7.370  12.088  0.1527 -0.1651  0.0816
20722W        W41002  18.076   7.253   0.508  0.0623  0.1421  0.3026
20723W        W41003  16.077   5.418   0.156  0.0741  0.0301  0.0022
20724W        W41004  11.883   9.116   4.605 -0.0334 -0.1709  0.2261
20725W        W41005  17.167  15.415   0.149 -0.4074  0.1683  0.1195
20726W        W41006  17.242   8.842   1.808 -0.0070  0.0914  0.1445
20727W        W41007   2.538  11.724  12.384 -0.1143 -0.2430 -0.2653
20728W        W41008   1.036  16.099   3.826 -0.0628 -0.2330  0.1650
20729W        W41009   8.570  17.936   3.584  0.0625  0.0726  0.0229
20730W        W41010   9.759   3.222  11.164  0.0620 -0.0082 -0.0072
20731W        W41011   2.090   8.492   2.279  0.1549 -0.0556 -0.2055
20732W        W41012   8.227   3.509   2.232 -0.1372  0.0119  0.0321
20733W        W41013  18.019   2.078   0.653  0.0588  0.0404 -0.1276
20734W        W41014  14.493   7.926   0.882  0.1223 -0.0889 -0.0230
20735W        W41015  12.423   1.839  11.677  0.1305  0.0139 -0.1100
20736W        W41016  18.062  13.143   0.409  0.2372 -0.1975  0.0619
20737W        W41017  18.108   5.160   3.026  0.2783  0.0012 -0.0725
20738W        W41018   3.113   5.043  11.396  0.0946  0.0532  0.1608
20739W        W41019  12.477  12.719  13.653  0.2642 -0.0739 -0.0425
20740W        W41020   5.955  14.422  11.792 -0.0238 -0.2332  0.1437
20741W        W41021   4.970   6.064   4.951  0.2661 -0.1441  0.1055
20742W        W41022   4.568   7.869  14.604 -0.0546  0.3486 -0.1758
20743W        W41023   0.413   1.847   1.812 -0.0345  0.0836 -0.0201
20744W        W41024  17.209  15.425   2.396 -0.2128 -0.0275 -0.3309
20745W        W41025   0.479   6.434   2.435  0.1725 -0.1661 -0.0145
20746W        W41026  12.013  10.475  14.332 -0.2632 -0.1949  0.0155
20747W        W41027   4.768   5.386   1.413 -0.2177  0.1653  0.2218
20748W        W41028  11.537  14.166   0.879 -0.0283  0.0605 -0.1696
20749W        W41029   5.493  16.774   0.268  0.0079 -0.0834 -0.1697
20750W        W41030   9.412  14.552  12.030  0.1860 -0.3194  0.0152
20751W        W41031  11.551  18.218  13.185  0.0344  0.2539 -0.0777
20752W        W41032  12.798   8.687   4.533 -0.4349  0.0982  0.1835
20753W        W41033  16.698   7.847  15.161  0.2994 -0.1404  0.0672
20754W        W41034  12.814  17.272  12.606  0.0015 -0.0616 -0.1577
20755W        W41035  15.743  16.052   2.049  0.1975  0.0235  0.1632
20756W        W41036   8.462  13.164   4.317  0.1552  0.1669  0.0774
20757W        W41037   7.797  18.106   4.543  0.3646  0.0846  0.1010
20758W        W41038  15.469  17.687  14.352 -0.1739  0.2583  0.1863
20759W        W41039   2.055  14.494   3.694  0.2108  0.0190  0.0850
20760W        W41040   0.892  10.118   5.139  0.1392 -0.0474 -0.0801
20761W        W41041   2.854  14.529  13.321 -0.1531 -0.1068 -0.1386
20762W        W41042   6.943  14.050  14.383  0.0167  0.1104  0.3890
20763W        W41043   3.554   8.299  12.630 -0.1127  0.3031  0.0132
20764W        W41044   4.076  11.329  12.585 -0.1738  0.1284  0.4382
20765W        W41045  13.752  17.190  11.570  0.3253 -0.2110 -0.1681
20766W        W41046  12.005   9.989  14.541  0.1551 -0.0709 -0.0833
20767W        W41047   2.469   8.383   0.538 -0.3803 -0.0116  0.3095
20768W        W41048   6.281  18.080   1.926  0.0228 -0.1142  0.1555
20769W        W41049   3.102   6.294   3.371  0.0375  0.2492  0.0347
20770W        W41050  15.356  13.133  14.917 -0.0309 -0.2206  0.1663
20771W        W41051   1.383   5.328   3.950 -0.1061  0.0869  0.1942
20772W        W41052   4.782   9.513   4.324  0.0367  0.0057  0.0832
20773W        W41053  16.528   3.752   0.620 -0.1667  0.2541 -0.3268
20774W        W41054  12.899  12.000   3.066 -0.1119 -0.1571 -0.1952
20775W        W41055   2.681   2.952  13.207  0.2834  0.0718 -0.0799
20776W        W41056   7.862  15.787  15.769 -0.3614 -0.0753 -0.0314
20777W        W41057  10.113   9.579  12.082 -0.1228  0.0914 -0.0863
20778W        W41058  17.180   4.851  12.508  0.1056 -0.2227 -0.0225
20779W        W41059   3.664   5.383   3.262  0.1734  0.0898  0.0651
20780W        W41060   7.031  17.288  14.568  0.1371 -0.0323  0.0385
20781W        W41061   1.856  13.288  14.847  0.0622 -0.1107  0.0540
20782W        W41062   8.713   9.389  13.417  0.0459 -0.0879  0.0763
20783W        W41063   4.505   4.356   3.575 -0.1357 -0.2562  0.1356
20784W        W41064  14.051   6.877  15.229  0.0332 -0.2894  0.0070
20785W        W41065   5.734   7.764   2.506 -0.0306 -0.1368  0.0220
20786W        W41066   6.457   8.041   3.636  0.2164 -0.1510 -0.1267
20787W        W41067  13.049   4.525  12.374  0.3168 -0.0504  0.1264
20788W        W41068   4.795   1.604   1.508 -0.1478  0.0188  0.3459
20789W        W41069   3.654  13.789   4.266  0.0206  0.0209  0.0654
20790W        W41070   6.194  14.417   3.814 -0.0741 -0.0494 -0.2496
20791W        W41071   2.872  17.519   2.209 -0.1143 -0.0071 -0.0837
20792W        W41072   3.628  15.250  11.966 -0.0066 -0.1229  0.3253
20793W        W41073   2.299  15.072  15.097  0.1918  0.0287 -0.0593
20794W        W41074  12.177  16.974  10.585 -0.1810 -0.1161  0.1853
20795W        W41075   4.667   4.958  13.400  0.1139  0.0081  0.1617
20796W        W41076   2.420  11.672  14.906 -0.1644  0.3256  0.1580
20797W        W41077  10.379   0.101  12.700 -0.1056 -0.0013 -0.0666
20798W        W41078   7.100   4.308   0.422  0.2783 -0.0042 -0.1134
20799W        W41079  14.981  17.646   2.488 -0.2873  0.0431  0.2851
20800W        W41080   8.352   4.569  15.570  0.1888 -0.3513  0.0732
20801W        W41081  15.480   4.774   3.397 -0.0352 -0.2245  0.1264
20802W        W41082   3.728   9.747   3.136 -0.1595 -0.1912 -0.2045
20803W        W41083   6.940   3.802  12.843  0.1087 -0.2668 -0.0696
20804W        W41084   2.656  16.876   2.583 -0.1647  0.0993  0.0145
20805W        W41085  18.010   4.040  12.842 -0.2349  0.0814 -0.0422
20806W        W41086   8.004  15.854  12.346 -0.0111 -0.1505 -0.1340
20807W        W41087   1.678   6.434   1.534 -0.2192 -0.1178 -0.2690
20808W        W41088   9.527  15.552   1.658 -0.1184 -0.2009 -0.1551
20809W        W41089  17.739   6.295   4.154 -0.1760  0.2299  0.0627
20810W        W41090   7.725   4.596  13.878  0.3655 -0.2082  0.0638
20811W        W41091  11.358  11.496  12.868 -0.2450 -0.0582 -0.2381
20812W        W41092   9.156   8.536  10.578  0.3234  0.0301 -0.0403
20813W        W41093   9.018  13.229  15.755 -0.1145  0.0283 -0.1364
20814W        W41094  10.225  14.673   0.060 -0.0642  0.0213 -0.0300
20815W        W41095  17.874  16.953  15.615  0.1863 -0.1322 -0.0640
20816W        W41096   9.956   4.469  14.637  0.2732 -0.0441  0.2244
20817W        W41097  17.352  15.674  13.588 -0.0589  0.1078 -0.2250
20818W        W41098   4.193  15.416   2.598  0.2532  0.1649  0.1198
20819W        W41099   3.677  15.008   2.998  0.2702 -0.0621 -0.1185
20820W        W41100   3.262  11.633   4.399  0.2392 -0.3019 -0.1606
20821W        W41101   1.468   5.192   4.506 -0.0915  0.4515 -0.1930
20822W        W41102   3.382   7.484   2.696 -0.1022  0.1317  0.1298
20823W        W41103  11.326   0.347   2.528 -0.0098  0.2830  0.0250
20824W        W41104  12.368   6.677   3.508 -0.0938 -0.0961  0.5137
20825W        W41105  12.119  12.166  14.569  0.3294 -0.1374  0.4357
20826W        W41106   2.042  12.198   1.488  0.2194 -0.2336 -0.0595
20827W        W41107  14.174   0.555  11.274  0.2106 -0.1318  0.1360
20828W        W41108   6.320   3.515   0.380  0.1747  0.0197 -0.1200
20829W        W41109   2.753  16.273  14.098 -0.2097 -0.0971  0.1904
20830W        W41110  11.496   5.306   1.919 -0.1826 -0.0444  0.1236
20831W        W41111  15.697   1.036  12.239  0.0111  0.0397 -0.1273
20832W        W41112  18.062  17.265  12.025 -0.0097  0.1583 -0.1600
20833W        W41113   0.867   7.869  11.635 -0.1639 -0.2371 -0.1179
20834W        W41114   9.318   3.849   0.501 -0.2592 -0.1808  0.0138
20835W        W41115  15.253   2.865  11.640  0.1829 -0.1844 -0.2100
20836W        W41116   6.825  15.433  12.653 -0.1829 -0.0021  0.0522
20837W        W41117  10.158  15.784  14.582  0.0987  0.1836 -0.0181
20838W        W41118   6.485   9.134  13.566 -0.0058 -0.0920 -0.2023
20839W        W41119   6.988  15.303   1.144  0.0759  0.1470 -0.1633
20840W        W41120  11.912  15.761  11.520  0.4233 -0.1016  0.2820
20841W        W41121  16.788  12.817   0.480  0.1930 -0.0935 -0.0819
20842W        W41122  17.151   6.814  13.602 -0.2689  0.1301  0.0105
20843W        W41123  17.479  11.250   3.779  0.1768 -0.2590  0.0232
20844W        W41124   8.344   1.000  14.066 -0.2237 -0.3384 -0.1656
20845W        W41125  13.589   9.193  12.244  0.1811  0.0954 -0.0195
20846W        W41126  14.501   9.046  12.766  0.0591 -0.0237  0.0534
20847W        W41127   7.506   7.453   3.039 -0.3679  0.2046  0.2160
20848W        W41128   5.327   3.059   1.278 -0.2719 -0.3515 -0.4516
20849W        W41129  14.059   5.988  11.511  0.0814  0.2948  0.2364
20850W        W41130   0.294  15.871   3.366 -0.3001 -0.2090 -0.0018
20851W        W41131   2.431   8.123  14.906  0.0058  0.3425  0.1435
20852W        W41132  15.972  17.419  13.662  0.1906 -0.2408  0.1311
20853W        W41133  17.056   0.268   0.605 -0.0992  0.1887 -0.1775
20854W        W41134  15.798   1.808   0.537  0.0281 -0.0873 -0.0892
20855W        W41135   8.053  12.542  14.642 -0.1827 -0.0827 -0.1428
20856W        W41136  12.817  17.193   1.161  0.3234  0.0640 -0.3035
20857W        W41137   9.006   7.770   2.454 -0.1804  0.2468  0.1163
20858W        W41138   5.116  18.264  10.452  0.2242 -0.1745  0.0430
20859W        W41139  12.715  14.200   3.729  0.1356 -0.1460  0.1736
20860W        W41140   4.471   1.566   0.765  0.1444 -0.3159  0.0961
20861W        W41141  15.939   7.890  12.304 -0.2586 -0.0293 -0.0832
20862W        W41142  12.869  14.484   4.883  0.1303 -0.2819  0.0068
20863W        W41143  13.487  18.090  11.757  0.0062 -0.1998 -0.1835
20864W        W41144   2.563  16.093   3.164 -0.1648 -0.0342 -0.0717
20865W        W41145   1.975  18.111   2.870 -0.3688  0.2191  0.3928
20866W        W41146   3.386   7.548   2.100  0.1023 -0.0076 -0.2238
20867W        W41147  14.991  14.309   0.261 -0.2540  0.2073 -0.0822
20868W        W41148   6.852   3.854  13.356  0.0819  0.2232  0.1482
20869W        W41149   3.777  12.261  13.417 -0.1128 -0.0817 -0.0775
20870W        W41150  14.850  18.214   3.191  0.1980  0.0589  0.0387
20871W        W41151  15.302  10.641  12.768  0.0230 -0.2622 -0.0237
20872W        W41152   8.893   2.823   2.064  0.1026  0.0498 -0.1840
20873W        W41153   1.155  11.022   3.034  0.2623  0.2178  0.1793
20874W        W41154  10.971   5.531  13.793  0.0813  0.1467 -0.0999
20875W        W41155   5.398   9.482  14.148 -0.0100 -0.1848  0.1268
20876W        W41156   1.136  17.152   5.545  0.0277  0.0220  0.1064
20877W        W41157  13.967  12.316   1.676 -0.2346  0.1580  0.1309
20878W        W41158  15.451   7.981  14.155 -0.2337  0.0137  0.1151
20879W        W41159  14.859   6.323   1.706  0.3466 -0.0530  0.0017
20880W        W41160  14.411   7.051   3.304  0.0540  0.3499  0.1262
20881W        W41161   1.391  13.138  14.882  0.0282  0.1800  0.1391
20882W        W41162   2.464   0.666  14.552 -0.1764  0.1279  0.3135
20883W        W41163   5.149   5.494   0.484  0.2204 -0.0690 -0.0480
20884W        W41164  10.996   2.232  11.222  0.0217 -0.1267 -0.0080
20885W        W41165   0.841   7.411  15.322  0.0109  0.4512 -0.1183
20886W        W41166  12.306  15.543   4.079 -0.2751 -0.0111 -0.1191
20887W        W41167   5.795   4.173  13.952  0.0452  0.3229  0.2132
20888W        W41168   9.040   9.137   1.194  0.1641 -0.0320  0.1194
20889W        W41169   7.145   8.679   1.387 -0.2212  0.1994  0.1363
20890W        W41170   0.103   3.608  13.691 -0.1094  0.4109  0.2194
20891W        W41171   9.620   6.183  14.348 -0.0517  0.3538  0.0988
20892W        W41172   4.804  16.255  14.969 -0.0828  0.3831 -0.2427
20893W        W41173   2.589  10.563   0.608  0.1488  0.0582  0.2662
20894W        W41174  11.062  16.802  12.429 -0.0016 -0.2598  0.2472
20895W        W41175  18.037  17.736  11.673 -0.2508  0.1831  0.1684
20896W        W41176  15.662   6.571  14.236  0.0756  0.2034 -0.0919
20897W        W41177   6.551  12.477  14.474  0.0649  0.0397  0.0145
20898W        W41178  14.741   6.024  12.815 -0.2794 -0.2190 -0.2314
20899W        W41179   9.008   6.908   4.057  0.2445  0.0571 -0.1071
20900W        W41180   8.740  17.232  13.909 -0.0382 -0.2024 -0.0240
20901W        W41181   8.567   9.801  15.393  0.2218 -0.2753  0.0161
20902W        W41182   5.381   3.386   3.195 -0.0906 -0.0719 -0.1847
20903W        W41183  10.421  12.613   1.877 -0.1084 -0.1753  0.0830
20904W        W41184   8.310   9.563  15.046  0.3258 -0.2688  0.1347
20905W        W41185   7.848   5.174  11.994 -0.3327  0.1629  0.1431
20906W        W41186   8.637   0.292   2.261 -0.0658 -0.0329 -0.1146
20907W        W41187  10.597  13.486  14.373  0.0861  0.2570  0.0999
20908W        W41188  10.997  16.287  12.976 -0.3097 -0.0012  0.0911
20909W        W41189  18.183   3.415  12.151 -0.3636  0.2045  0.1509
20910W        W41190   1.008   2.868  15.772  0.1820  0.0660  0.1762
20911W        W41191   6.865   2.014  10.834  0.1156  0.2161  0.2133
20912W        W41192   7.682   3.776   3.409  0.0163 -0.0943 -0.0861
20913W        W41193   7.658  13.335  15.379  0.0903  0.0505  0.0867
20914W        W41194  15.634   1.200   2.364 -0.2117  0.0796 -0.1168
20915W        W41195   0.963  10.603  15.164  0.0606 -0.2078  0.0629
20916W        W41196   9.724   6.711  13.094 -0.0619  0.0374  0.3135
20917W        W41197  14.796   9.366   0.200 -0.1219  0.1777  0.2187
20918W        W41198  16.614   1.727  15.499 -0.2516  0.1831  0.0804
20919W        W41199   9.874   2.494  15.669  0.0412  0.2829  0.1770
20920W        W41200  13.946   0.624   2.431 -0.1250  0.0078  0.0054
20921W        W41201   7.670   9.938  13.619 -0.1010  0.0206 -0.0101
20922W        W41202  11.165   8.595   3.204  0.1833 -0.1783  0.1659
20923W        W41203  16.305   8.225  13.691  0.0497 -0.0442  0.0726
20924W        W41204  10.527  11.741   0.659  0.1209  0.2007  0.0910
20925W        W41205  16.186  17.772  12.713 -0.0937  0.2598  0.0196
20926W        W41206  16.536   9.387   1.330 -0.0396 -0.0392  0.1546
20927W        W41207   6.612  10.255   3.375  0.3079 -0.0610  0.3182
20928W        W41208  17.880  15.283  14.024  0.0510  0.0808 -0.2048
20929W        W41209   2.682   7.484  12.504  0.2246  0.1884  0.0896
20930W        W41210   8.093  16.068   1.570  0.1058  0.0456 -0.3178
20931W        W41211   9.485   0.884   0.810 -0.4010 -0.3471  0.1842
20932W        W41212  18.323  11.938  14.750  0.0048 -0.0145 -0.1822
20933W        W41213  16.455   4.755   4.534 -0.2384 -0.2012  0.1617
20934W        W41214  12.263   3.445   3.594 -0.1634 -0.1952  0.0910
20935W        W41215  10.145   1.040   4.795 -0.0920 -0.0476  0.1910
20936W        W41216  10.291   1.520  14.869  0.0072 -0.1206 -0.2252
20937W        W41217   6.076  14.890   4.394 -0.0161 -0.1940 -0.1281
20938W        W41218   8.266  11.052  14.149 -0.0252  0.0871  0.1426
20939W        W41219   2.017  11.129   2.958  0.2067 -0.2650 -0.3912
20940W        W41220   2.405   1.898  13.551  0.3685 -0.1096  0.0741
20941W        W41221   7.995  16.563   1.812  0.1014 -0.0159 -0.0559
20942W        W41222  16.116   0.374  13.571 -0.3784  0.0865 -0.1247
20943W        W41223  10.296   5.677   1.435  0.2471 -0.1716 -0.1621
20944W        W41224  17.542   7.678   2.012  0.2406 -0.0071  0.1672
20945W        W41225  11.499  18.255   4.441 -0.0629 -0.0682  0.2307
20946W        W41226   4.197  17.372  13.645  0.0030 -0.0951  0.0081
20947W        W41227  10.471  18.061   2.363  0.0343  0.3639 -0.1280
20948W        W41228  16.435   8.973   0.606  0.2704 -0.1440  0.0270
20949W        W41229   2.689  17.461  14.784 -0.0512  0.1232  0.0603
20950W        W41230  17.415  13.939   1.277 -0.0347 -0.2521 -0.1016
20951W        W41231   3.659  18.335  12.413  0.0325 -0.2497  0.0073
20952W        W41232   1.174  10.104  11.978  0.0746 -0.1334 -0.0347
20953W        W41233   8.880  16.223  15.012 -0.5092  0.1983 -0.1576
20954W        W41234   1.542  16.284   4.162  0.1661  0.0082 -0.3221
20955W        W41235  17.705   8.821  14.360  0.2364 -0.0073 -0.2474
20956W        W41236  14.245   0.815  15.209  0.3485  0.3081  0.1269
20957W        W41237   8.263   9.385   3.879  0.0277  0.2087 -0.0571
20958W        W41238   7.236   8.675  11.913 -0.0669 -0.0932 -0.1761
20959W        W41239  15.353  14.507  14.232  0.2436 -0.1622  0.1632
20960W        W41240   5.777   4.342  15.728  0.0980  0.0777 -0.3282
20961W        W41241   3.730  13.577  13.509  0.2484 -0.0025  0.0955
20962W        W41242  15.671   3.313  13.793 -0.1131 -0.1760 -0.0260
20963W        W41243  17.458   1.220  15.286  0.0892 -0.1468 -0.3529
20964W        W41244   5.120   2.466   4.987 -0.0391  0.1101 -0.0891
20965W        W41245   1.067   5.928   1.855  0.0559  0.0633 -0.0224
20966W        W41246   2.973   7.321   4.547  0.1026 -0.2893 -0.1652
20967W        W41247   0.108  13.608  13.379  0.1127  0.0238  0.0510
20968W        W41248  17.359  16.007   0.659  0.0290 -0.0017 -0.0833
20969W        W41249  14.101  10.416  12.907 -0.1265 -0.1709  0.1195
20970W        W41250  13.456   5.750   3.076 -0.0756  0.0626 -0.2209
20971W        W41251   3.601  13.391   2.454 -0.1653  0.0239 -0.1013
20972W        W41252   7.091  15.670   1.429 -0.0405 -0.2501 -0.1039
20973W        W41253  16.133  17.317  14.752 -0.2479  0.1801 -0.1648
20974W        W41254   8.228   9.376   2.096 -0.0044  0.0560  0.0744
20975W        W41255  10.791  12.312   0.149 -0.2287  0.0162  0.0630
20976W        W41256  17.154   3.116  11.781 -0.3254 -0.0077  0.1247
20977W        W41257   9.332  11.771  11.353  0.2182  0.0704 -0.1011
20978W        W41258  14.238   1.909  10.860 -0.2843 -0.1794 -0.1986
20979W        W41259   0.403   5.554   2.499 -0.1145 -0.1227 -0.0055
20980W        W41260  16.109   3.458   1.013 -0.0649 -0.3441 -0.2941
20981W        W41261   6.949  13.916   1.595  0.2483  0.2573  0.0275
20982W        W41262  10.306   8.213   4.252 -0.0573  0.0252 -0.2453
20983W        W41263  13.172  17.847   3.806  0.1332  0.1620  0.1054
20984W        W41264   3.419  13.349  13.181  0.1345 -0.2226 -0.0290
20985W        W41265   6.810   8.830  13.286 -0.1661  0.1280  0.0441
20986W        W41266  15.254  11.069  14.368 -0.5897  0.0511 -0.0463
20987W        W41267   5.128   6.901  12.798 -0.0298 -0.2834 -0.2868
20988W        W41268   7.373   8.241  14.291 -0.0658  0.1561 -0.4137
20989W        W41269  15.857   9.143  14.690  0.0170  0.0285 -0.3612
20990W        W41270   3.401   2.165  11.555 -0.0290  0.1329 -0.1435
20991W        W41271  11.287  16.552  14.185 -0.2578 -0.0108 -0.0422
20992W        W41272   6.278   5.905   2.784 -0.1399 -0.3154  0.0048
20993W        W41273   7.107   6.519   4.184  0.1617  0.1276  0.1122
20994W        W41274  11.275   4.011  14.291  0.0961  0.1637  0.0189
20995W        W41275   0.856  15.557  11.141 -0.1055  0.1026 -0.1625
20996W        W41276   4.158   6.157   0.890 -0.1859 -0.1630  0.2115
20997W        W41277   6.743  13.329  15.629 -0.0216  0.2453 -0.1686
20998W        W41278   6.692   1.440  13.831 -0.0543 -0.1527 -0.1128
20999W        W41279  16.026  12.591   0.024 -0.2592  0.4161 -0.0911
21000W        W41280   4.679  12.839   0.935 -0.0141  0.1007 -0.1840
21001W        W41281  14.807  17.899  12.523 -0.1017  0.0626 -0.2234
21002W        W41282  12.093   2.438  15.626 -0.4791  0.4055 -0.0957
21003W        W41283   3.820   0.836  14.646  0.1827  0.2799  0.1087
21004W        W41284   0.830  10.490   2.658 -0.1020  0.1336 -0.0718
21005W        W41285  11.217   8.166  14.141 -0.1966 -0.2350  0.0739
21006W        W41286  15.647   1.048   1.526  0.0197 -0.3785  0.0524
21007W        W41287   6.090  17.324   2.444 -0.1762  0.1099 -0.3438
21008W        W41288  17.398   0.344   2.033 -0.3874  0.4738 -0.0947
21009W        W41289   3.874   1.940  12.446 -0.1731 -0.1915  0.1241
21010W        W41290   0.186   2.227   4.527  0.1590  0.2876 -0.3605
21011W        W41291   0.183  12.965   0.508  0.0175  0.1449  0.2114
21012W        W41292  15.492   9.072  14.181  0.2320 -0.0239  0.0602
21013W        W41293   7.901   2.126  12.037  0.0054 -0.2134  0.1229
21014W        W41294   5.237   8.137  13.015 -0.0491  0.1254 -0.0062
21015W        W41295   5.235  11.146   0.312 -0.0058  0.0971 -0.0009
21016W        W41296   6.884  17.551  13.077 -0.2386  0.2035 -0.3559
21017W        W41297  16.578   2.087  13.554  0.2515 -0.1976  0.1565
21018W        W41298   4.301   0.797  14.933 -0.0222 -0.0098 -0.1097
21019W        W41299   7.355   6.699   2.167 -0.0205 -0.2625 -0.1988
21020W        W41300   1.331  10.829   0.298 -0.0218 -0.1431 -0.3106
21021W        W41301   9.274  14.991   3.816  0.0049 -0.2557  0.0236
21022W        W41302   9.667   0.375   2.284 -0.1922  0.1574 -0.2166
21023W        W41303  10.694  18.038  12.609  0.0406 -0.2622  0.3875
21024W        W41304   3.496   2.857  14.474 -0.1317  0.2244  0.1374
21025W        W41305  15.263   9.835   5.126 -0.1313 -0.0135 -0.0850
21026W        W41306  13.801   3.490   1.615  0.1474  0.0830 -0.0276
21027W        W41307  17.608   2.027   1.047  0.1042  0.1020  0.3446
21028W        W41308   0.626  13.195   0.287 -0.2088  0.2677  0.0338
21029W        W41309  15.896  12.516   3.201 -0.0866 -0.3746 -0.1200
21030W        W41310  10.947   7.570   3.813 -0.0307 -0.0395 -0.1352
21031W        W41311  11.774  17.102   1.993  0.1190 -0.4165  0.3193
21032W        W41312   1.053   1.487   1.752  0.0866 -0.3201  0.2226
21033W        W41313  15.739   4.075  13.098  0.0210  0.3014 -0.2897
21034W        W41314   9.966   5.739  12.177  0.3514  0.0548 -0.0969
21035W        W41315  11.609  15.153  11.154 -0.0954  0.1230  0.1651
21036W        W41316  10.420  15.962   0.480  0.3032  0.0679  0.1776
21037W        W41317  15.044   2.325  11.086  0.0421 -0.0849 -0.4039
21038W        W41318   6.343   0.269   3.322  0.1621  0.0457  0.3816
21039W        W41319  18.124   0.155   0.783 -0.2594 -0.1960 -0.3464
21040W        W41320  14.374   9.468   3.886  0.0506 -0.1103 -0.0144
21041W        W41321   8.966  12.685   4.576  0.2811  0.1844 -0.4686
21042W        W41322  16.144  13.675   2.286  0.1025 -0.1336 -0.1658
21043W        W41323   6.863  12.728   2.385 -0.0663 -0.1233  0.0972
21044W        W41324   9.952   4.952  15.233  0.1128 -0.0017 -0.0915
21045W        W41325   3.995   3.185  15.468 -0.1177 -0.0096  0.0594
21046W        W41326  17.482  15.916   3.116 -0.4233 -0.1008 -0.0587
21047W        W41327  18.047  12.386   1.627  0.5823 -0.0073 -0.0491
21048W        W41328   5.541  16.246  14.041 -0.0364  0.1512 -0.1330
21049W        W41329  11.515   5.882   3.106  0.1404 -0.0200 -0.0418
21050W        W41330  13.151   0.781   1.536 -0.2856 -0.0286  0.3188
21051W        W41331   0.230  12.432   0.232 -0.2609  0.0408 -0.3316
21052W        W41332   4.334   5.571   4.018  0.1346 -0.0104  0.0886
21053W        W41333  10.853   8.190   4.390  0.0587  0.1386  0.2099
21054W        W41334  10.238   2.618   5.548 -0.0137  0.1661  0.2679
21055W        W41335  18.291  16.146   0.075 -0.2389 -0.0228  0.0212
21056W        W41336   8.115   3.182   0.940 -0.0510  0.0599  0.0173
21057W        W41337  17.132  10.583   5.604  0.0058 -0.0660  0.1145
21058W        W41338  11.813   8.793  12.339  0.0131  0.1687 -0.1021
21059W        W41339  17.165  17.381   4.718 -0.3884  0.2021  0.0993
21060W        W41340  18.075   3.859   3.397 -0.0165 -0.0827  0.2509
21061W        W41341   2.137  16.755  14.405 -0.0355 -0.0037 -0.1421
21062W        W41342  12.924   2.173  13.260 -0.1355 -0.0984  0.0688
21063W        W41343  10.783   6.970  13.143 -0.0193  0.1000  0.0803
21064W        W41344  12.335  15.413   0.773 -0.0284  0.1946 -0.0728
21065W        W41345  10.965   3.102  13.193  0.1053  0.2660  0.0327
21066W        W41346   9.596  14.626  15.110  0.4887  0.0088 -0.0724
21067W        W41347  10.839   2.309  12.225 -0.2247  0.2084 -0.0037
21068W        W41348  12.047  14.295   3.403  0.1299 -0.0159  0.0206
21069W        W41349   3.822  12.739  13.653 -0.0134 -0.2275 -0.1762
21070W        W41350   9.845   8.919   3.881 -0.4716 -0.1159 -0.1192
21071W        W41351  16.954   5.864   0.945 -0.3477  0.2297  0.0391
21072W        W41352  14.926  12.615  14.862 -0.0882  0.2591 -0.0082
21073W        W41353   3.767  11.954   4.194 -0.0465 -0.0120  0.0842
21074W        W41354  13.921  16.638  15.119 -0.2206 -0.0468  0.1031
21075W        W41355   3.646  11.762  13.561  0.1551 -0.3308  0.2255
21076W        W41356   6.687  13.948   4.545 -0.3541  0.1047  0.1156
21077W        W41357  15.592  15.042  15.889 -0.1497 -0.1158 -0.2919
21078W        W41358  11.395   7.860  13.129 -0.1097  0.4055 -0.0214
21079W        W41359   0.453  18.291  15.139  0.1392  0.0774  0.2725
21080W        W41360  17.468  16.283   4.154  0.1679 -0.1516  0.0085
21081W        W41361   0.827   1.111   0.697 -0.1498 -0.1136  0.1693
21082W        W41362  12.390   2.396  15.199 -0.0426 -0.4096  0.3147
21083W        W41363  14.428  17.083  12.238 -0.0831  0.2540 -0.0489
21084W        W41364   4.743  13.657  10.405  0.0738 -0.1306  0.2451
21085W        W41365   4.063  18.136   1.023 -0.3071  0.0201  0.1163
21086W        W41366  13.764  14.806   3.776  0.1881  0.2572  0.0116
21087W        W41367  17.206   0.935   2.763  0.0546  0.0821 -0.1065
21088W        W41368   2.520  13.889  13.828 -0.2892 -0.1414  0.3017
21089W        W41369  13.847  10.602   5.337  0.2331 -0.2724 -0.0995
21090W        W41370   6.757  15.269   3.630  0.2514  0.5076 -0.2867
21091W        W41371  13.710   6.142   2.167  0.1380  0.1367  0.0711
21092W        W41372  15.099   4.397  13.690 -0.0120 -0.3950  0.2226
21093W        W41373  14.883   1.978   2.445  0.0263  0.2835  0.0836
21094W        W41374  16.437   7.701  14.760 -0.0901 -0.2762  0.0358
21095W        W41375   7.622  14.966  15.783 -0.0213  0.2154 -0.0295
21096W        W41376  17.479   2.754   2.175 -0.0617  0.1884 -0.0638
21097W        W41377  13.109   7.127   1.283  0.3232  0.1350  0.1384
21098W        W41378   5.557  10.647   4.250  0.1378  0.0576  0.2768
21099W        W41379   1.279   2.219  15.039  0.0372  0.2245  0.1367
21100W        W41380   3.849  14.572   3.592 -0.0176 -0.0120  0.0368
21101W        W41381   3.194   5.150   1.168 -0.1382 -0.0942  0.0188
21102W        W41382   2.240  11.245  15.309 -0.0686  0.2155 -0.1388
21103W        W41383   1.748   7.984   3.664  0.2280  0.2103  0.0459
21104W        W41384  13.049   5.756  15.009  0.0127  0.1450  0.1430
21105W        W41385  13.004  12.994  13.735  0.1738 -0.0197 -0.0283
21106W        W41386  12.592   1.292  14.500  0.1751 -0.0496 -0.1180
21107W        W41387   4.786   3.618   2.485 -0.1477 -0.2610  0.1618
21108W        W41388   4.172  11.580   1.788 -0.0864 -0.4029 -0.2330
21109W        W41389  11.959   1.319   3.818 -0.0962  0.2857  0.4309
21110W        W41390   7.091  12.586  11.292 -0.1400 -0.1820 -0.0652
21111W        W41391  10.733  16.873  15.896  0.1472  0.2364 -0.0224
21112W        W41392  13.821   1.014   3.752  0.1298 -0.0374 -0.1050
21113W        W41393   3.370   7.162   3.759  0.0173 -0.0937 -0.2173
21114W        W41394   1.564  15.713  13.878 -0.2357 -0.2060 -0.0545
21115W        W41395  15.819   5.721  12.078 -0.2042 -0.0985  0.0069
21116W        W41396  12.310  11.947   3.736 -0.1253 -0.3134 -0.0551
21117W        W41397  17.632  17.182  11.617  0.2676  0.4087 -0.0845
21118W        W41398  18.261  13.931   3.751 -0.3595 -0.1709  0.2959
21119W        W41399   5.809  12.681  14.800 -0.0139 -0.0405  0.0865
21120W        W41400   8.984   0.772   0.869  0.0038 -0.0774 -0.2790
21121W        W41401  13.921   7.906  11.796  0.0782 -0.2030  0.1604
21122W        W41402  14.141  12.803  15.821 -0.3677  0.2757  0.2105
21123W        W41403  14.167   9.820  12.028 -0.1542 -0.0045  0.4421
21124W        W41404  17.070  18.166  15.005 -0.1271  0.0343  0.0505
21125W        W41405  12.214  16.700  14.178  0.0715 -0.0739 -0.2137
21126W        W41406  12.200   9.832  12.770  0.1706  0.1452 -0.0818
21127W        W41407   3.198   5.223   2.579  0.1244  0.1534  0.3579
21128W        W41408  13.826  18.299   0.645 -0.3840 -0.0651  0.1551
21129W        W41409  17.775  12.599   3.807 -0.0791  0.0183 -0.0042
21130W        W41410  14.626  14.859   2.868  0.3385  0.3053 -0.2940
21131W        W41411   5.257   9.375   2.280  0.0143 -0.1839 -0.0504
21132W        W41412  10.731   1.395  15.061  0.1646 -0.3367 -0.4078
21133W        W41413   3.467  12.324  14.371 -0.2598  0.0516 -0.2443
21134W        W41414   7.570   0.485   1.151  0.1862  0.4515 -0.0095
21135W        W41415  16.732   0.634   0.404 -0.1035 -0.0867  0.1495
21136W        W41416   8.683  10.454   0.506 -0.0088  0.0414  0.1492
21137W        W41417  10.864   6.716  15.767  0.0723 -0.1449 -0.1103
21138W        W41418   4.423   1.041  15.447 -0.0526  0.1316  0.0662
21139W        W41419  13.638   9.746   4.136 -0.2917 -0.1965 -0.2113
21140W        W41420  13.276   1.922  12.439 -0.0523  0.3331  0.3002
21141W        W41421  10.955   6.249  14.780  0.2880 -0.1118  0.1398
21142W        W41422   8.830   5.043  12.231 -0.0531 -0.1138 -0.1101
21143W        W41423  15.590   5.633   0.126  0.2095  0.5039 -0.0273
21144W        W41424   1.726  12.843  15.126 -0.0250  0.2428 -0.1386
21145W        W41425   6.011   5.938   0.876  0.2275 -0.1694 -0.0850
21146W        W41426  13.807  15.002   2.223  0.0473  0.0587  0.0489
21147W        W41427   3.236   2.497   4.096 -0.1046 -0.0081 -0.0809
21148W        W41428   4.572   7.399  15.074  0.0069 -0.1784  0.0668
21149W        W41429  17.057   7.825   3.625  0.0268  0.0446  0.0413
21150W        W41430   5.153   5.869   4.291  0.3916  0.0676  0.1001
21151W        W41431  17.463   5.406  13.488  0.0447 -0.0523  0.0847
21152W        W41432   4.139  11.521  12.125 -0.2408  0.1764  0.1374
21153W        W41433   8.855  14.970   5.612 -0.0949 -0.1966  0.0140
21154W        W41434   1.787   6.892  12.406  0.0697  0.0231 -0.0436
21155W        W41435   6.448  13.083  11.681 -0.2348  0.2378  0.4857
21156W        W41436  15.807  10.177  14.816 -0.2711 -0.0228 -0.0767
21157W        W41437  16.498  15.827  12.289  0.2511 -0.1207  0.0222
21158W        W41438  12.203   4.361  13.427  0.0788  0.0324  0.2573
21159W        W41439   1.814   8.337   0.284 -0.2900 -0.2221 -0.0151
21160W        W41440  13.402   7.991   4.396 -0.1379 -0.0267  0.0009
21161W        W41441  17.067  16.191  14.342 -0.2437  0.2425  0.0392
21162W        W41442  15.383  13.178  15.513  0.0169  0.3807  0.0654
21163W        W41443  15.112   6.310  13.052  0.3262 -0.1102  0.2729
21164W        W41444  17.562   3.857   4.738  0.0375 -0.0978  0.1834
21165W        W41445  14.992   8.697   3.585 -0.0857 -0.2984 -0.2512
21166W        W41446   8.944  15.110   0.130 -0.2040  0.1553 -0.1676
21167W        W41447  16.045   3.012   0.801  0.1676 -0.0088  0.0624
21168W        W41448  17.913   9.193   1.634  0.2179 -0.0650 -0.1171
21169W        W41449   5.361   4.379   3.842 -0.0423 -0.1256  0.2541
21170W        W41450  11.151  13.332  12.515  0.1680 -0.3715  0.4153
21171W        W41451   4.262  11.731  10.215  0.0071 -0.0997 -0.0797
21172W        W41452  18.047   0.704  10.275 -0.0857  0.2483  0.1575
21173W        W41453  10.456   2.003  12.919 -0.2632  0.1514 -0.0738
21174W        W41454   6.090  11.622  15.425 -0.2658  0.3112 -0.0837
21175W        W41455   1.634  17.754   2.611 -0.0144 -0.0682  0.3754
21176W        W41456  15.628   3.672   2.666 -0.4254  0.2741 -0.1377
21177W        W41457  15.794   0.332   4.335 -0.0833  0.3145  0.1233
21178W        W41458  14.013   8.861   2.138  0.1744  0.0486  0.1986
21179W        W41459   9.060   0.455  14.358 -0.1743  0.1361 -0.2225
21180W        W41460   7.661  13.133  15.809 -0.1183  0.1482  0.2423
21181W        W41461  10.670   1.888  12.457  0.2869  0.3399  0.3915
21182W        W41462   9.297  13.619  12.917 -0.1215 -0.1909 -0.0647
21183W        W41463   7.507   2.235   2.552  0.0479  0.1590  0.2487
21184W        W41464  10.321   0.866   0.039 -0.2004 -0.1949 -0.1599
21185W        W41465   4.638  16.175   1.549  0.0071  0.0516 -0.0095
21186W        W41466   3.916   6.447   1.287 -0.1464 -0.1330 -0.0268
21187W        W41467  15.699  16.496  12.048  0.2843  0.2458 -0.1687
21188W        W41468   5.724   0.183  11.711  0.0368 -0.0508  0.1314
21189W        W41469  16.105   9.382   4.800  0.2084 -0.0148  0.0911
21190W        W41470  11.051  13.022   1.497 -0.0175 -0.0632 -0.0420
21191W        W41471   7.237  11.109   2.498 -0.2143 -0.2121 -0.0222
21192W        W41472  12.829  11.437   1.408 -0.1035 -0.0279 -0.1035
21193W        W41473   1.861  16.420   2.584 -0.1085  0.1865 -0.2178
21194W        W41474  11.577   9.482   1.813  0.0067  0.2724  0.0955
21195W        W41475   2.794  17.996  14.586  0.2164  0.0726 -0.2564
21196W        W41476  15.753   0.755  15.595  0.1248 -0.0500  0.0666
21197W        W41477   2.486   5.253   1.013  0.2126  0.1843  0.2035
21198W        W41478   6.436   2.692  12.801 -0.0943 -0.1581  0.1512
21199W        W41479   1.397   4.581   1.397 -0.1715  0.2268 -0.0172
21200W        W41480  10.286   9.155   0.833 -0.1871 -0.0147 -0.0034
21201W        W41481   1.327   5.994  12.921  0.2352  0.1747  0.0610
21202W        W41482  17.022   5.759  15.734 -0.1623  0.0319  0.0238
21203W        W41483  13.846  12.714  15.189  0.1903 -0.1424  0.1489
21204W        W41484  15.522   1.297   4.206 -0.2025 -0.0131 -0.2839
21205W        W41485   6.969  16.450  11.587  0.1286  0.1980  0.0889
21206W        W41486   3.397  10.434   1.102  0.2315 -0.0752  0.2427
21207W        W41487  10.400  12.204   1.587  0.0388  0.1650  0.0919
21208W        W41488  11.667   7.340  12.292  0.1236  0.0368 -0.2852
21209W        W41489   7.289   9.017   1.799  0.0585  0.1523  0.2049
21210W        W41490  11.708  18.102   0.193  0.2244 -0.1465  0.0660
21211W        W41491  12.999  14.768   3.001 -0.1096 -0.1185 -0.1430
21212W        W41492  15.870   9.453  15.832 -0.1331  0.3426 -0.2177
21213W        W41493  12.663  12.701   0.366 -0.0796 -0.1533  0.0589
21214W        W41494   0.118  11.219   3.735  0.0543 -0.1935  0.0067
21215W        W41495  15.846  14.827  11.815 -0.1092  0.3014 -0.0970
21216W        W41496   6.791   3.273  13.631  0.3029 -0.0573 -0.0225
21217W        W41497  15.494   3.638  14.146 -0.0373 -0.3631 -0.2846
21218W        W41498  13.002  14.886   4.126 -0.2984 -0.0295  0.0045
21219W        W41499   3.381   2.577   2.681  0.1834  0.0356 -0.0330
21220W        W41500   1.584   4.631   1.873 -0.2118 -0.0883 -0.0931
21221W        W41501   1.152  15.632  13.216 -0.0144 -0.1704  0.0140
21222W        W41502  12.021   8.786   2.905  0.1755  0.1083  0.1963
21223W        W41503  15.728   4.361   1.637  0.0651  0.2360 -0.1646
21224W        W41504   4.244  13.862  11.954  0.0470 -0.0939  0.0919
21225W        W41505  15.444   7.492  11.977  0.3842  0.2543 -0.5876
21226W        W41506  17.782  16.854   3.616 -0.0257  0.1707  0.3279
21227W        W41507  10.878   3.433  11.777  0.1042  0.1098  0.0561
21228W        W41508   0.828   7.016   4.300 -0.0561  0.0303  0.0659
21229W        W41509   2.881   3.896   3.879 -0.1538  0.1283  0.0222
21230W        W41510   3.352  16.961   3.770  0.1114 -0.1721 -0.2987
21231W        W41511   1.389   3.312  12.730  0.3500 -0.0468 -0.1522
21232W        W41512   9.818  17.701  15.122  0.1213 -0.1614 -0.1216
21233W        W41513   4.151   0.070  12.223 -0.3818 -0.3348 -0.1451
21234W        W41514  16.470  13.428  12.653 -0.0029  0.0411 -0.2750
21235W        W41515   9.292   3.769  12.570  0.0937  0.2109 -0.4123
21236W        W41516  17.762   2.272   0.231 -0.0272  0.2896  0.1089
21237W        W41517  13.819   0.732   0.958 -0.0752  0.1278 -0.0225
21238W        W41518   6.894   1.759  15.260  0.1285 -0.2483 -0.1397
21239W        W41519  12.994  14.033   1.574  0.0560 -0.0716 -0.1123
21240W        W41520   0.095  18.290   0.383  0.2855 -0.0073  0.1772
21241W        W41521   3.623   4.502  15.366  0.0769  0.0029  0.1305
21242W        W41522  10.897  11.889   2.311 -0.0914 -0.1048  0.0598
21243W        W41523  11.556  17.778  13.533  0.3056  0.2310  0.0558
21244W        W41524  10.769  13.225   2.786 -0.1872  0.2713  0.0757
21245W        W41525  15.466   7.029   3.532 -0.3846 -0.0259 -0.1123
21246W        W41526  10.433  16.868  14.907 -0.1963  0.0277  0.0958
21247W        W41527   9.623   4.174  13.212 -0.0141  0.3009  0.2193
21248W        W41528  11.689   0.677  15.498  0.0538  0.0072 -0.2161
21249W        W41529  18.021   4.014   2.912 -0.0892 -0.1010 -0.3409
21250W        W41530   9.409   2.320   2.878 -0.0346  0.1372 -0.0670
21251W        W41531   8.307  17.185   4.015  0.2228  0.2092  0.1227
21252W        W41532  14.815   3.623  14.578  0.0255  0.0610 -0.1220
21253W        W41533   3.351  15.846  15.788 -0.2030 -0.0873 -0.3235
21254W        W41534  10.787  12.369   3.029  0.2907 -0.2381  0.1946
21255W        W41535  12.755   8.672   5.042 -0.1462  0.0215 -0.1378
21256W        W41536   7.152  13.771   0.312 -0.1606  0.1568 -0.0879
21257W        W41537   3.252   9.734   0.415  0.2099 -0.0718 -0.3723
21258W        W41538  12.062  13.184   2.922  0.1807 -0.0611  0.0640
21259W        W41539  13.841  12.886  12.645 -0.1707  0.1744 -0.3355
21260W        W41540  10.221  11.545   4.600 -0.1321  0.2086 -0.1590
21261W        W41541  18.074   3.194  12.990 -0.1966 -0.0029 -0.1341
21262W        W41542  17.945   8.870  12.896  0.0271  0.1479 -0.0910
21263W        W41543  12.255   7.321  15.011  0.1196 -0.1597  0.1319
21264W        W41544   9.561  10.599  12.467  0.1411  0.0043 -0.2154
21265W        W41545   5.385   9.023  15.628 -0.0245  0.1441  0.1200
21266W        W41546   3.833  13.810   0.387 -0.1321  0.2341  0.0776
21267W        W41547   9.328  16.017   4.328 -0.0818  0.2054 -0.2488
21268W        W41548  16.506  16.312  15.025  0.0466  0.1356  0.1391
21269W        W41549  11.903  10.879  14.629 -0.3326 -0.0045 -0.0489
21270W        W41550  11.730  13.051  11.904 -0.1735  0.1335  0.1006
21271W        W41551   8.638  16.119   4.887  0.2829 -0.0244  0.0365
21272W        W41552   3.758   4.457   1.080  0.1296  0.2349  0.1957
21273W        W41553  17.241   9.907   1.666  0.3472 -0.0962  0.2027
21274W        W41554   0.619   8.240   3.047 -0.1700  0.3044 -0.2214
21275W        W41555   3.516   9.482   4.043  0.0177  0.0024 -0.0864
21276W        W41556  15.299   6.400  15.934  0.0766  0.1775 -0.0882
21277W        W41557  16.738  12.593  14.911 -0.0645 -0.4425  0.1716
21278W        W41558  14.066  10.114   5.307 -0.0466 -0.0964 -0.0168
21279W        W41559   6.733  17.466   0.717  0.2290 -0.0660  0.0028
21280W        W41560  17.449  17.272   3.810  0.0008 -0.1524  0.1553
21281W        W41561   7.807  10.743  14.460 -0.0911 -0.0559 -0.1848
21282W        W41562   9.132   4.154   2.543  0.1776  0.0697  0.0014
21283W        W41563  14.777  14.774   3.545  0.0582  0.1190 -0.1842
21284W        W41564   5.771   5.318   3.924  0.0423 -0.1133  0.1719
21285W        W41565   8.855   8.550   0.954  0.0791 -0.3090  0.0318
21286W        W41566   0.547   2.027  11.492 -0.0892  0.0618 -0.0469
21287W        W41567   1.414   3.284   1.389  0.3790 -0.1579 -0.1748
21288W        W41568   4.913   8.313   1.104  0.1056  0.1025 -0.1305
21289W        W41569   0.562  16.182  14.762  0.1331  0.3733  0.1465
21290W        W41570   7.503  13.952   2.680 -0.0502  0.1976 -0.0398
21291W        W41571   4.998  16.769   3.656 -0.2075  0.0215 -0.0719
21292W        W41572  15.418   6.906   0.697 -0.0735 -0.2154  0.0520
21293W        W41573   8.272   6.346   3.907 -0.2397 -0.0594  0.2523
21294W        W41574   7.888  10.963  10.793  0.1148  0.1693 -0.1078
21295W        W41575  13.048  12.569  14.444 -0.1361  0.4035 -0.1049
21296W        W41576  16.911  15.313  14.239 -0.0157  0.0868 -0.1870
21297W        W41577  13.224  11.498   2.774 -0.0927 -0.0221  0.2636
21298W        W41578  13.390   5.574   1.300  0.1829 -0.0071  0.0271
21299W        W41579   0.506   0.749   0.769  0.1052  0.0845 -0.1480
21300W        W41580   4.913   3.474  15.200  0.0365  0.0997 -0.1722
21301W        W41581   3.900   3.953   0.849  0.2738  0.1246 -0.0117
21302W        W41582   4.395  12.555  14.957 -0.3551 -0.1004 -0.2376
21303W        W41583   4.081   2.753  12.683 -0.1127 -0.1450 -0.0463
21304W        W41584   6.906   9.410  15.379 -0.0496 -0.0105  0.1438
21305W        W41585  14.582   0.337  11.403 -0.2109  0.1289  0.1241
21306W        W41586  11.924  18.004   4.250  0.3093 -0.0774  0.0785
21307W        W41587  15.962   8.424  12.676 -0.0504 -0.1861 -0.0520
21308W        W41588   8.388  12.662   4.045 -0.0018 -0.0471  0.3626
21309W        W41589   1.320   8.030  14.740  0.0149 -0.3059 -0.2243
21310W        W41590  12.946  10.145  14.411  0.1053 -0.2261  0.2110
21311W        W41591   5.970   7.362  11.658 -0.0655 -0.3142  0.3222
21312W        W41592  17.713  11.709   4.618  0.2424 -0.2916 -0.3067
21313W        W41593  17.047  10.374   1.273 -0.1587 -0.0987 -0.1690
21314W        W41594   3.549  16.228   9.991  0.3017 -0.0491  0.1038
21315W        W41595   6.095   4.917  11.495  0.2260  0.2215 -0.2926
21316W        W41596   5.921   7.498   4.286  0.0999  0.0783 -0.3304
21317W        W41597  17.947  11.316  12.172  0.0158  0.1239 -0.0003
21318W        W41598  11.315  13.035   3.393 -0.1507  0.0129 -0.2215
21319W        W41599   6.597  13.401  13.163  0.0127  0.1457 -0.0033
21320W        W41600   8.632   0.512   1.758  0.1409  0.1011 -0.0747
21321W        W41601  14.975   7.163  13.610 -0.2939 -0.2432  0.1489
21322W        W41602  15.688  18.249  15.556  0.1692  0.0243 -0.3256
21323W        W41603   3.251   2.759  12.146  0.1708  0.0114 -0.1743
21324W        W41604  16.041  14.165   2.282 -0.0768  0.2732 -0.0460
21325W        W41605  12.168   7.529   4.330  0.1111 -0.2020 -0.2510
21326W        W41606  17.355  13.341   3.822 -0.0137 -0.1345 -0.1812
21327W        W41607  12.137   9.918   3.269  0.1673  0.2498  0.0822
21328W        W41608  16.338  17.602  11.772 -0.3212 -0.1018 -0.1082
21329W        W41609   4.452   9.158  14.376 -0.0133 -0.3829  0.2063
21330W        W41610   3.799   7.862   4.446  0.1335 -0.1150 -0.2521
21331W        W41611   5.905   3.017   1.567 -0.0466 -0.2743 -0.2927
21332W        W41612  16.994   8.040  12.897 -0.0814 -0.0702  0.3138
21333W        W41613   2.667   5.515  15.685  0.1197  0.4514  0.3370
21334W        W41614  17.357   6.852  14.106 -0.2017  0.2037  0.0699
21335W        W41615  14.911   3.912  14.007  0.0290  0.0804 -0.1047
21336W        W41616   0.175  17.871  11.571 -0.2681 -0.0431  0.0754
21337W        W41617   6.435  17.435  13.368 -0.0166 -0.2562 -0.0568
21338W        W41618  16.428  17.630  13.454 -0.0651  0.0308  0.1129
21339W        W41619  14.180  11.019  13.551 -0.0458  0.0404  0.1512
21340W        W41620   0.788  14.619   3.563  0.0716 -0.0802 -0.1700
21341W        W41621  15.974   0.006   4.757  0.1565  0.2275 -0.0446
21342W        W41622   9.062   2.390   0.564  0.3127  0.2831  0.0829
21343W        W41623   2.787  18.327   1.355 -0.0630  0.0274 -0.0781
21344W        W41624  14.860   7.101  15.918  0.1005  0.0187  0.0949
21345W        W41625  13.634  16.503  13.440  0.1235  0.1347 -0.0083
21346W        W41626  16.585  15.753   3.492 -0.1448  0.1041  0.2580
21347W        W41627  17.565  11.590   1.571 -0.0649  0.1071  0.0060
21348W        W41628  14.125  13.945  13.764  0.1174  0.1395 -0.1329
21349W        W41629   7.066  13.026   4.217  0.1451  0.0290 -0.1069
21350W        W41630  17.806   1.745   0.322  0.1649 -0.1507 -0.0106
21351W        W41631   0.043   3.566   5.025 -0.0375  0.1618  0.0925
21352W        W41632  10.502   0.195  15.055 -0.1695 -0.2719  0.1398
21353W        W41633   2.025  15.132   2.376 -0.1399  0.2151 -0.2804
21354W        W41634  15.930   8.548  13.877  0.0116 -0.0636 -0.1196
21355W        W41635   2.406   0.386  15.744  0.1817 -0.1687  0.2909
21356W        W41636  15.645  16.654  14.269 -0.0513 -0.0067  0.1069
21357W        W41637  11.655   4.258   0.172 -0.0673 -0.2214 -0.0629
21358W        W41638  12.885   0.684  11.304 -0.0725 -0.0534 -0.0995
21359W        W41639   7.002   4.391  12.655 -0.1164 -0.0819  0.1035
21360W        W41640   3.938   9.656   4.400  0.2835 -0.0966 -0.2194
21361W        W41641   7.754   5.850   2.448 -0.0724  0.0003 -0.0734
21362W        W41642  15.875   2.764  12.246 -0.2647  0.0319  0.4433
21363W        W41643  13.045  10.429  11.962  0.1703  0.2172  0.0569
21364W        W41644  12.003   3.708  12.038  0.1636 -0.0254  0.1433
21365W        W41645   2.193   4.382   2.358  0.1941 -0.0221 -0.2415
21366W        W41646  17.104   9.218   3.996  0.1964 -0.1489 -0.0536
21367W        W41647   2.238  17.902  13.787 -0.1196  0.0201 -0.0299
21368W        W41648   8.648   1.158  11.141 -0.0585 -0.0989  0.0949
21369W        W41649   0.271  14.872  12.736  0.1028 -0.0051  0.2150
21370W        W41650   9.276  17.093   2.396 -0.0416 -0.0876  0.1763
21371W        W41651  11.475   4.804  14.107 -0.2277  0.0252  0.1490
21372W        W41652   7.073   7.663  15.714  0.1577 -0.0684  0.1114
21373W        W41653   5.639  13.575  11.615  0.0018  0.0832 -0.0343
21374W        W41654   5.735   8.118   1.601  0.0069 -0.0810 -0.0891
21375W        W41655   6.015   8.901   0.576 -0.2454  0.2714 -0.0821
21376W        W41656  10.692   9.642  12.092 -0.1812 -0.2738 -0.1133
21377W        W41657  10.992  14.834  14.315  0.0265  0.3063 -0.0594
21378W        W41658  14.895  13.595  12.454 -0.1613 -0.0276 -0.2094
21379W        W41659   8.638   3.411   0.160 -0.0253 -0.0532  0.1882
21380W        W41660   9.267  10.085   1.964 -0.0751  0.0172 -0.0082
21381W        W41661   5.275  12.057   1.005 -0.1122 -0.1408 -0.1103
21382W        W41662   5.756   7.676  13.188  0.0001 -0.3901 -0.0703
21383W        W41663  10.041   1.468  15.294  0.2334 -0.1229 -0.0099
21384W        W41664   3.297  12.328  15.493  0.0378  0.1793 -0.1496
21385W        W41665  15.582   4.433  13.943  0.2337  0.0016 -0.3683
21386W        W41666  10.820   2.443   2.137 -0.1880 -0.3360 -0.1593
21387W        W41667   8.331  12.013   2.322 -0.1269  0.3078  0.0355
21388W        W41668  13.460   7.971  12.804 -0.0405 -0.0790  0.2215
21389W        W41669  17.738  12.484  11.989  0.3752 -0.0915 -0.0855
21390W        W41670   0.513   9.256  11.931  0.0495 -0.0386  0.0567
21391W        W41671  18.105   5.241   0.452  0.1640  0.1758  0.1870
21392W        W41672  17.260  13.422  11.044 -0.2055  0.2848  0.1602
21393W        W41673   6.829   0.831   2.482  0.0401  0.1615  0.2190
21394W        W41674  16.499  14.981  11.422 -0.1571 -0.2502  0.2831
21395W        W41675  16.965   5.220   3.855 -0.1040  0.2321 -0.0432
21396W        W41676  10.527  12.799   0.250  0.2937  0.0371 -0.1207
21397W        W41677   6.244   4.407  11.252  0.1350  0.0040  0.0402
21398W        W41678   8.002   1.763  14.505 -0.1177 -0.1132  0.1739
21399W        W41679   1.342   1.565  12.064  0.4103  0.1464 -0.1860
21400W        W41680   9.467  12.754  11.586 -0.0039 -0.1473 -0.0044
21401W        W41681  11.094  13.518  15.718  0.0026 -0.0803  0.4968
21402W        W41682  10.194  17.942   2.946  0.1055  0.1603 -0.0934
21403W        W41683   1.914  14.273  14.999 -0.3243  0.2412 -0.0226
21404W        W41684  14.877  15.416  13.121  0.0743  0.0674 -0.0589
21405W        W41685   8.377  13.823   0.336 -0.1767  0.0035 -0.0706
21406W        W41686  14.622  10.794   0.064 -0.1181  0.0947  0.1558
21407W        W41687  13.197  11.006  14.638  0.1058 -0.3010 -0.0414
21408W        W41688   6.288  17.730   0.772  0.0380 -0.4859  0.1748
21409W        W41689   6.156  17.779   2.653 -0.0735  0.1270  0.0055
21410W        W41690  10.430  15.373  13.630 -0.2293  0.0518  0.0591
21411W        W41691   6.860   1.370  12.382  0.0764  0.1595 -0.1720
21412W        W41692   0.835  17.482  15.571  0.0654  0.2030  0.0804
21413W        W41693  16.739   5.752  13.169  0.4110 -0.0325 -0.0228
21414W        W41694   4.877  10.131  14.725 -0.0573  0.1290 -0.1562
21415W        W41695   4.817   2.912  13.252  0.0235  0.1100 -0.2197
21416W        W41696   7.152   6.890   2.600  0.0397 -0.1370  0.1628
21417W        W41697   8.843   8.300   3.279 -0.2019 -0.1907 -0.1956
21418W        W41698   4.249   3.038   0.544  0.0721  0.0052 -0.1276
21419W        W41699  13.194   8.412  14.542  0.2330  0.2030  0.1420
21420W        W41700  10.376  12.441  12.391 -0.1969  0.0564 -0.1006
21421W        W41701   2.195  17.171   4.343  0.2074  0.2419 -0.0187
21422W        W41702   0.190   4.002  12.736  0.0998 -0.0967 -0.0849
21423W        W41703  17.119   0.374   2.820 -0.2702  0.0531  0.0103
21424W        W41704   5.448  14.268  14.199  0.0917 -0.0853 -0.0493
21425W        W41705  12.268  17.421  11.725 -0.3147 -0.0961 -0.3248
21426W        W41706  13.458   0.046   2.842 -0.1063  0.2410 -0.0163
21427W        W41707   8.473   4.300  14.200  0.0654 -0.1834 -0.1598
21428W        W41708  13.447  12.637  13.521 -0.0581 -0.0679  0.0363
21429W        W41709  13.581  11.550   4.137 -0.2838 -0.1974 -0.0405
21430W        W41710   0.954  17.607  14.174 -0.2431  0.1914  0.3189
21431W        W41711   1.750  12.022  11.820 -0.3417 -0.0702  0.0621
21432W        W41712   9.220  15.221   0.877  0.1983  0.3673  0.1918
21433W        W41713  10.895  11.337  11.651  0.1595 -0.1681 -0.0676
21434W        W41714  15.293   5.892  15.735 -0.1727  0.1067  0.1209
21435W        W41715   2.261  14.111  14.582  0.0626 -0.0171 -0.0293
21436W        W41716  12.218   2.583  12.112  0.0412 -0.1854 -0.4080
21437W        W41717  18.176   4.167   1.554  0.1109 -0.3895 -0.0409
21438W        W41718   8.506  10.785   0.158  0.0580 -0.0188 -0.2800
21439W        W41719   9.166   9.063  13.525  0.2800  0.0814  0.1954
21440W        W41720   1.242   6.045  12.001  0.2413 -0.0848 -0.1389
21441W        W41721   0.955   1.982   3.930 -0.1441  0.0669 -0.2718
21442W        W41722   6.940   6.406  12.315 -0.2521 -0.0226  0.0440
21443W        W41723  13.748   7.594   4.183 -0.0811 -0.0832 -0.1884
21444W        W41724   1.880   3.922  13.735  0.0306  0.5221  0.0495
21445W        W41725   2.601  14.154   2.731 -0.0563 -0.2756  0.1200
21446W        W41726  13.725   0.476  11.406 -0.0446  0.1587 -0.1279
21447W        W41727  13.238   5.670   5.028 -0.4084  0.0463 -0.0576
21448W        W41728   3.859   2.872  13.536  0.0036 -0.2590  0.0112
21449W        W41729  15.296   5.385   4.092  0.0288 -0.2462  0.0694
21450W        W41730   3.033   0.683  11.507 -0.0452  0.0071  0.1004
21451W        W41731  14.780   6.736  13.116  0.1956 -0.0065  0.0923
21452W        W41732  15.189  16.554  15.022 -0.0395 -0.1047 -0.1433
21453W        W41733  12.190   9.081  12.124  0.0535 -0.0929  0.1197
21454W        W41734   3.759  16.274   3.828  0.1497  0.0897  0.0627
21455W        W41735   0.051   2.912   3.830 -0.0786  0.1591  0.3252
21456W        W41736  16.122   3.908   1.872 -0.1043 -0.2114  0.0434
21457W        W41737  10.969  15.274  14.653 -0.0169  0.1789 -0.2474
21458W        W41738  16.885   6.598   4.193 -0.0058 -0.2787 -0.2860
21459W        W41739  12.311   8.385   1.729  0.1326 -0.0681 -0.2628
21460W        W41740   2.305   1.075   3.197  0.1626  0.0089 -0.1162
21461W        W41741  18.003  10.859   1.118  0.1105 -0.1754  0.1531
21462W        W41742   6.361   9.362   1.729 -0.0184 -0.1768 -0.0967
21463W        W41743   2.067   1.011  12.479 -0.2522 -0.1688  0.2005
21464W        W41744   5.034  13.281  13.055  0.1201  0.0789 -0.2370
21465W        W41745   5.163   5.300  15.652 -0.0521 -0.0062  0.0497
21466W        W41746  17.502  14.441  12.992 -0.3267 -0.0943  0.1290
21467W        W41747   5.931   7.505  12.637  0.3618 -0.0159 -0.1227
21468W        W41748  14.926   1.514   3.910  0.1159  0.3127 -0.0875
21469W        W41749   8.815  10.212   2.224 -0.1998 -0.3362  0.0677
21470W        W41750   8.620   9.999   0.375 -0.2396  0.3454  0.1782
21471W        W41751   6.631   7.864  14.185  0.0687 -0.1499 -0.1282
21472W        W41752   9.659   7.373   4.836 -0.3136 -0.0944 -0.0846
21473W        W41753   6.031  16.276  15.266  0.0595  0.1773  0.4360
21474W        W41754   9.460   9.010  15.058  0.3761  0.0620 -0.1682
21475W        W41755   5.516   8.793   4.308  0.2395 -0.1053  0.1334
21476W        W41756  11.873  16.300   2.455  0.2296  0.1723  0.2416
21477W        W41757   5.161  14.693  14.008  0.1618  0.3643 -0.0426
21478W        W41758   4.891   0.120   1.653 -0.0607 -0.2148 -0.5840
21479W        W41759   6.852   7.707  12.431 -0.0696 -0.1311 -0.0106
21480W        W41760  11.849  12.289   4.445  0.1636  0.0723 -0.0582
21481W        W41761   8.921  15.229   2.498 -0.0980 -0.1025 -0.3848
21482W        W41762  14.439  13.665   1.646  0.0708  0.0398  0.0332
21483W        W41763   6.469  10.957  15.841  0.0973  0.1656 -0.1343
21484W        W41764   9.896   1.126   1.094 -0.2236  0.1649 -0.2139
21485W        W41765   9.524  18.259  13.111  0.0033 -0.0030 -0.0319
21486W        W41766   6.825   8.903   1.762 -0.0826  0.1375  0.0978
21487W        W41767   9.074  14.326   0.531 -0.1257  0.0654 -0.0306
21488W        W41768  11.597   6.964   4.227  0.0064 -0.0847 -0.1330
21489W        W41769   6.621   9.164  12.542  0.2409 -0.0389 -0.0398
21490W        W41770   5.523   6.474  14.540  0.0023 -0.4022 -0.0021
21491W        W41771  17.906  17.185   0.965  0.0331  0.0029  0.1371
21492W        W41772   4.075  16.831   0.587 -0.0514  0.1782  0.0157
21493W        W41773  16.263   9.887   1.396  0.0668 -0.0581 -0.3218
21494W        W41774  14.219  14.802  14.737  0.0576  0.0498  0.0810
21495W        W41775   3.582   8.103  12.174 -0.3822 -0.1248 -0.0604
21496W        W41776   6.177   4.891   3.268  0.2824 -0.3485 -0.1741
21497W        W41777   5.687   0.891  13.003  0.1082  0.2501  0.0650
21498W        W41778  10.910  17.517  14.657 -0.0705  0.0851 -0.0288
21499W        W41779  14.078   7.786   3.646 -0.1802 -0.0182 -0.0318
21500W        W41780   6.897   5.909  11.699 -0.0393  0.1034 -0.1527
21501W        W41781   8.576   9.609  12.761  0.2558  0.0060  0.0375
21502W        W41782   7.697   8.032   2.228  0.2392  0.4407 -0.0098
21503W        W41783  12.187   3.372  15.458 -0.3046  0.2468  0.0171
21504W        W41784   2.226  13.384   2.727  0.1753  0.1545 -0.0977
21505W        W41785  18.144   7.606   0.870  0.0665  0.2013 -0.0326
21506W        W41786   5.240   2.419   1.946  0.1161 -0.1694 -0.0642
21507W        W41787   8.397  11.106   3.410  0.0122  0.0593 -0.0493
21508W        W41788  12.466   4.059  15.817 -0.1054 -0.1118  0.2817
21509W        W41789  10.347  14.714   4.792 -0.0043 -0.0185 -0.2490
21510W        W41790  15.155   5.090  11.886  0.1091  0.0014  0.4680
21511W        W41791   5.686   4.770   3.167  0.2946 -0.0443  0.0559
21512W        W41792   1.815  17.513  15.766 -0.1476  0.2268  0.2088
21513W        W41793  17.234   3.205   1.575  0.5197 -0.1260 -0.0693
21514W        W41794   5.828  11.362   2.900  0.1133  0.0056 -0.2106
21515W        W41795  16.900  12.250   1.251  0.2878 -0.2363 -0.0715
21516W        W41796  16.587   1.709   3.273  0.0644 -0.1917  0.2687
21517W        W41797   2.670   3.641   0.583  0.1048  0.1184  0.0740
21518W        W41798   6.632   3.219  12.083 -0.1474 -0.0701  0.0469
21519W        W41799  15.078   5.541   3.635 -0.0146 -0.3365 -0.3767
21520W        W41800   8.415   1.676   2.353 -0.0704  0.0637  0.0859
21521W        W41801   1.942   5.998  14.907 -0.1993  0.0212  0.1693
21522W        W41802   5.471  12.567   1.072 -0.2939 -0.0150  0.0567
21523W        W41803  18.158   1.699  14.839  0.2015  0.0047 -0.0441
21524W        W41804  11.432   4.542  15.236 -0.0304  0.0167 -0.0569
21525W        W41805  12.102  15.011  15.251 -0.0163 -0.0977  0.0677
21526W        W41806  11.106   6.659  13.369  0.0997  0.3264 -0.2400
21527W        W41807   5.844   4.744  13.954 -0.3103  0.0647 -0.0200
21528W        W41808   1.520   7.209  13.773 -0.0056 -0.0522  0.2028
21529W        W41809   2.828   8.202   2.691  0.4320 -0.3289  0.0668
21530W        W41810   9.548   5.846   2.244  0.5419 -0.1699  0.0299
21531W        W41811  11.060   5.309  15.604  0.2251  0.1823  0.1140
21532W        W41812   0.460   5.494  12.521  0.1832 -0.5064 -0.1209
21533W        W41813   8.361  12.891  14.915 -0.0863 -0.2747 -0.3812
21534W        W41814   5.975  18.167   0.393 -0.0224 -0.1290 -0.1595
21535W        W41815  11.285  15.322  14.246  0.1665 -0.1951 -0.1927
21536W        W41816  14.265   4.484  14.314 -0.2342 -0.0606 -0.3272
21537W        W41817   0.349   7.169   5.049 -0.1896 -0.1900 -0.0038
21538W        W41818   5.339   1.274  12.977 -0.1756  0.1088  0.0390
21539W        W41819  15.213   5.042   2.395 -0.1080  0.1004  0.1052
21540W        W41820  11.647  17.032  14.950  0.0460 -0.2562 -0.2988
21541W        W41821   8.416   7.057  11.381  0.0079  0.1603  0.0379
21542W        W41822   5.569  12.537   4.480 -0.2120 -0.2101  0.1239
21543W        W41823   6.561   7.674   2.925 -0.0285 -0.1064 -0.1577
21544W        W41824   6.482   4.678   1.090  0.0718  0.1181  0.0578
21545W        W41825   6.433  14.689   1.982 -0.0318  0.1174  0.3365
21546W        W41826  14.419   0.444  14.091 -0.1348 -0.0159  0.0022
21547W        W41827  12.840  15.937   0.059  0.0487  0.0436  0.2872
21548W        W41828  11.130  18.186  13.531 -0.0339  0.5803 -0.1573
21549W        W41829  17.755   1.643   1.356  0.1679  0.0286 -0.0820
21550W        W41830  17.613   7.014   3.568  0.3131  0.0977  0.0868
21551W        W41831   0.784   1.385  14.409 -0.0831 -0.1950 -0.2425
21552W        W41832   6.149  17.613  10.920 -0.1071 -0.0915  0.0499
21553W        W41833   2.502   0.311   2.161  0.2687 -0.0759  0.3696
21554W        W41834   5.051   7.606   3.213  0.0205  0.3363 -0.2822
21555W        W41835  15.824   1.705  12.982  0.0037 -0.3180  0.2278
21556W        W41836   4.473   7.144  14.568 -0.0651 -0.1780  0.3611
21557W        W41837   1.112   3.462   0.922  0.4221 -0.1210 -0.1287
21558W        W41838   3.448  15.983  11.374 -0.0191 -0.1367  0.2281
21559W        W41839  15.071   0.135   4.439 -0.2546  0.0004  0.1017
21560W        W41840   0.941  15.826   0.807  0.0707 -0.5335  0.2428
21561W        W41841  14.244  10.504   0.108 -0.0994 -0.1444 -0.2299
21562W        W41842  13.875   8.849  11.965 -0.0521  0.0595  0.1119
21563W        W41843   8.032   9.949  10.579  0.1693  0.0065 -0.1209
21564W        W41844   9.204  18.136  12.196 -0.2119  0.0536  0.0773
21565W        W41845   0.735   6.778   1.231  0.1847  0.1032  0.1801
21566W        W41846   9.931  15.172  15.077 -0.1457 -0.2109  0.1867
21567W        W41847  14.829   0.950   0.733  0.1887 -0.2243 -0.1093
21568W        W41848   4.199  10.695   4.372 -0.0218  0.0393  0.1537
21569W        W41849   6.110   2.653  11.340 -0.1632 -0.1913  0.1205
21570W        W41850  13.374   9.114   1.074 -0.0324  0.3270  0.0047
21571W        W41851   3.758   1.065   4.927  0.0181  0.0102 -0.3042
21572W        W41852   3.740   4.961  13.387 -0.0665  0.0439  0.1521
21573W        W41853   1.171   7.471  11.898  0.0262 -0.0308  0.0472
21574W        W41854   8.921  12.876   0.231 -0.0363 -0.1524  0.1197
21575W        W41855   6.940  12.302  11.751 -0.0897  0.4050 -0.2808
21576W        W41856   5.102   6.575  11.764 -0.0214 -0.2182 -0.0490
21577W        W41857  15.504  13.404  13.047 -0.0464 -0.2662 -0.1788
21578W        W41858   8.302   9.676   3.474  0.0115  0.2148  0.3136
21579W        W41859  16.714   3.476  14.001 -0.2295 -0.0152  0.0455
21580W        W41860  13.577   6.404  12.578  0.1925  0.2417 -0.0165
21581W        W41861   9.809  13.779   1.700 -0.1733 -0.2004  0.0896
21582W        W41862  14.215  17.599   1.366  0.0315  0.0610 -0.0285
21583W        W41863   8.139  15.671  11.801  0.0780  0.1884 -0.2851
21584W        W41864   6.092  15.279  12.201 -0.5620  0.0403  0.0947
21585W        W41865   6.197  16.788  14.013  0.0401 -0.2810  0.0441
21586W        W41866   3.609  12.833   0.997 -0.1451 -0.2426 -0.1437
21587W        W41867  10.582  12.201   2.574  0.3562 -0.3073 -0.1490
21588W        W41868  16.181  16.358   2.931  0.0051  0.2630 -0.1678
21589W        W41869  11.222   7.103  11.502 -0.2127  0.1245 -0.0890
21590W        W41870   0.014   9.078  12.638 -0.1536 -0.2759  0.0443
21591W        W41871   3.742   4.480  12.564  0.0437  0.0768  0.0809
21592W        W41872   3.777   2.381  12.758 -0.2433  0.0063  0.4811
21593W        W41873   1.505   4.240  13.141  0.0817 -0.0462  0.1999
21594W        W41874   0.119   1.152  12.618  0.1019  0.0413 -0.1672
21595W        W41875   8.637  12.641  11.528  0.2151 -0.1765  0.0951
21596W        W41876  10.481   3.674  14.972  0.1759  0.0432  0.0824
21597W        W41877   5.512   6.866  13.161 -0.2680 -0.2249  0.1099
21598W        W41878   4.238   3.525  13.994 -0.1062 -0.2503  0.2110
21599W        W41879   4.865  18.289  11.348  0.0502  0.3893 -0.0623
21600W        W41880  18.139   9.720   0.422  0.2526 -0.1544  0.0168
21601W        W41881  15.276   3.990   3.447  0.3465 -0.0265 -0.3305
21602W        W41882  18.146  10.626   0.609  0.0835  0.2688  0.2172
21603W        W41883  15.338  14.135  11.772 -0.2244  0.0756  0.0335
21604W        W41884  17.418  17.781  13.021  0.2374 -0.2634 -0.4656
21605W        W41885  11.348   4.061   3.668  0.1331 -0.3098  0.1815
21606W        W41886   7.996   4.721  12.157 -0.0818  0.3433 -0.0869
21607W        W41887   9.890   6.055  13.426 -0.1124  0.3070  0.0940
21608W        W41888   1.063   7.295  13.481 -0.3347  0.2583  0.0383
21609W        W41889   5.685   9.097   2.128  0.2266  0.1177 -0.0033
21610W        W41890  13.497   4.239  13.071 -0.2501 -0.1979  0.0767
21611W        W41891   5.865   9.620  11.637 -0.0424  0.0766  0.0349
21612W        W41892  16.520   2.727  13.567  0.1392 -0.2331 -0.2730
21613W        W41893   0.771   7.996  14.444  0.3464 -0.1988 -0.0776
21614W        W41894  10.762  15.539  13.301 -0.0829  0.2703  0.1023
21615W        W41895  12.914  11.926   2.577  0.1929 -0.0974 -0.0578
21616W        W41896  13.421   4.576  11.934  0.1047  0.0991  0.0168
21617W        W41897  14.990   5.399  13.329 -0.0305  0.2677 -0.1106
21618W        W41898  17.004  12.208   2.169  0.1055  0.1908  0.0874
21619W        W41899  16.894  12.979   2.349  0.0652 -0.0484  0.0427
21620W        W41900   6.499  16.325  13.026 -0.0705  0.0731 -0.1061
21621W        W41901   5.303  17.489   0.989 -0.0335 -0.2991  0.1415
21622W        W41902   1.450  16.354  11.850 -0.0042 -0.1272  0.2593
21623W        W41903   7.664   8.769  15.775 -0.2150  0.1883 -0.1464
21624W        W41904  14.645   4.508   2.959  0.0043 -0.0654  0.1408
21625W        W41905   2.387  13.420   1.481  0.0160 -0.0508 -0.2991
21626W        W41906  10.259  17.563   4.186  0.1547 -0.3040  0.2408
21627W        W41907   9.693  13.682   3.560  0.1500 -0.4021 -0.0362
21628W        W41908   8.134   1.116  11.108 -0.0513 -0.3206 -0.0285
21629W        W41909  14.970  17.938  13.162 -0.0986 -0.0045  0.0511
21630W        W41910  11.467  11.024   3.972  0.2043  0.0594  0.1751
21631W        W41911   1.820   8.255  14.763 -0.0266 -0.2352  0.0858
21632W        W41912  11.388  16.626  14.749  0.2016  0.1697  0.2814
21633W        W41913   7.394   8.536  13.311  0.0949 -0.2996 -0.0895
21634W        W41914  11.751  18.169  12.730  0.0836 -0.1763 -0.2493
21635W        W41915  18.292   1.925  13.249  0.1801  0.1549 -0.2858
21636W        W41916   2.932   3.986  12.342  0.1316 -0.3825  0.0978
21637W        W41917  15.131  12.849   4.748  0.1815  0.1261 -0.1437
21638W        W41918  18.198   5.503   1.400  0.1966  0.0696 -0.5087
21639W        W41919   9.864   3.573   1.164  0.2384 -0.0500 -0.0224
21640W        W41920  10.203   8.245  15.693 -0.2542  0.4914  0.1144
21641W        W41921  13.759   9.759   2.587 -0.0663 -0.0823 -0.2041
21642W        W41922   7.253   9.529  14.469  0.0514  0.1041 -0.2135
21643W        W41923   2.252   2.828   3.304 -0.0333  0.2746 -0.0429
21644W        W41924   1.258   7.618  12.377 -0.2528 -0.2611  0.0353
21645W        W41925   5.694  17.759   2.402  0.1095 -0.1937  0.0094
21646W        W41926  15.709   8.855  15.091 -0.1262  0.1120  0.0783
21647W        W41927   6.880   6.067   0.527 -0.0665 -0.0159 -0.1740
21648W        W41928   9.244  12.207   0.689 -0.1221  0.1139  0.1450
21649W        W41929   0.395   9.576   4.157  0.2764  0.0323  0.2217
21650W        W41930   4.492   7.880   1.596  0.1319  0.0456 -0.2427
21651W        W41931   5.710   2.868  14.378 -0.0579 -0.1992 -0.0739
21652W        W41932  16.555  16.198  14.044  0.1762  0.0699  0.0495
21653W        W41933   5.138  13.132   1.049 -0.4038  0.2470  0.1385
21654W        W41934   9.298   8.761  10.084  0.0021  0.2291 -0.0843
21655W        W41935  10.610  11.223   4.433  0.2081 -0.0358 -0.0243
21656W        W41936  16.637   8.627   2.482 -0.0962 -0.0443  0.0266
21657W        W41937  13.910  15.906  13.536  0.0632  0.1209  0.1132
21658W        W41938   1.508   6.993   0.965 -0.2136  0.1275 -0.0152
21659W        W41939   0.639  11.153   1.604 -0.4288  0.3097 -0.3540
21660W        W41940   8.249   5.108   3.464 -0.1138  0.0191 -0.1141
21661W        W41941  11.768   8.750   2.487 -0.1206  0.0346  0.2739
21662W        W41942   1.172  16.591   3.682  0.1820  0.1626  0.0741
21663W        W41943   3.904  16.333   4.977  0.1273  0.3661  0.1027
21664W        W41944  16.443   1.062   0.720  0.3645 -0.2843 -0.0759
21665W        W41945   0.175  14.785   3.956 -0.0478 -0.1654 -0.1405
21666W        W41946   3.513   4.346   3.129 -0.1233 -0.1469  0.0914
21667W        W41947   2.865   5.374   3.815 -0.0869 -0.1175 -0.0746
21668W        W41948  17.420   2.542  13.451 -0.2712  0.0826 -0.2437
21669W        W41949  12.317  14.743   2.434 -0.0156 -0.0091  0.0387
21670W        W41950  17.258   0.188  11.414  0.2298  0.0886 -0.1766
21671W        W41951   7.478   9.113  14.648 -0.0770  0.3727 -0.3027
21672W        W41952   9.107   4.502   4.219 -0.0558 -0.0630  0.0992
21673W        W41953  13.180  12.360   3.314  0.0853  0.0714  0.3718
21674W        W41954   9.726   5.100  14.347  0.2699  0.0093  0.2237
21675W        W41955  12.412  18.005   3.559  0.3663  0.1336  0.1894
21676W        W41956   6.922   9.450   3.894  0.1670  0.0119  0.2734
21677W        W41957  14.513   1.002   1.672  0.2237  0.1887  0.3553
21678W        W41958  14.293   9.544   3.203  0.0619 -0.1118  0.0867
21679W        W41959  17.345  12.751  15.127  0.0707 -0.4563  0.2362
21680W        W41960   4.591   4.691  12.520 -0.0902 -0.1503 -0.0414
21681W        W41961   5.612  10.817  13.451  0.0333 -0.0996  0.2252
21682W        W41962   4.373  12.306   2.172  0.2683 -0.4024  0.1444
21683W        W41963   8.253   8.184  15.017  0.0828 -0.0677  0.2150
21684W        W41964  13.350  14.786   1.029  0.1942 -0.1783 -0.3381
21685W        W41965  12.246   8.523   5.246 -0.1808 -0.0599 -0.1396
21686W        W41966   5.302   3.105  10.487 -0.0675  0.3190 -0.3032
21687W        W41967   6.098   8.452  10.914 -0.2652  0.1602  0.0711
21688W        W41968   4.457   0.758   1.218  0.0125 -0.1882 -0.1564
21689W        W41969   7.377   9.080   3.840  0.3542 -0.0084 -0.0190
21690W        W41970   9.062  15.729  15.285 -0.1944 -0.2686  0.1251
21691W        W41971   6.810   1.262   0.719 -0.0822  0.0739 -0.1107
21692W        W41972  18.151   4.283   4.071 -0.1991 -0.1230  0.1083
21693W        W41973  12.052   8.059   2.977  0.2120 -0.1707 -0.1533
21694W        W41974  18.170  15.606   3.735  0.0420  0.2352 -0.2041
21695W        W41975  10.301  10.803   0.388  0.0066  0.1352 -0.1702
21696W        W41976   6.539  13.233  14.135  0.2911  0.0530 -0.1828
21697W        W41977  15.237   8.749  15.260  0.4254 -0.0438  0.0105
21698W        W41978   0.917  11.306  12.010 -0.1507  0.1134  0.1582
21699W        W41979   3.842   6.914  13.887 -0.1131  0.2157  0.0420
21700W        W41980   9.404   0.357  12.149 -0.0834  0.0135 -0.0600
21701W        W41981  15.440   3.330  12.775  0.1391  0.3658 -0.0286
21702W        W41982  16.335   4.694  14.129  0.1105 -0.2694 -0.0560
21703W        W41983   0.095   7.863  13.520 -0.1442 -0.0636 -0.2654
21704W        W41984  13.572  15.074   1.321 -0.1451  0.1007 -0.1433
21705W        W41985   9.213   6.437   3.415 -0.0343 -0.0199  0.1167
21706W        W41986   9.858   7.087  13.432  0.0567  0.1821  0.0156
21707W        W41987   6.330  12.871  12.423  0.0035 -0.1740  0.2072
21708W        W41988   5.293   9.009   1.344 -0.1275 -0.2557  0.1405
21709W        W41989  12.015   2.866   5.189 -0.0924  0.0035  0.0799
21710W        W41990   4.073  12.676   9.913  0.1542 -0.0841 -0.1358
21711W        W41991  14.219  17.833  13.384 -0.1214 -0.0680 -0.0649
21712W        W41992  17.543   0.439  14.563  0.1374  0.5971  0.0237
21713W        W41993   6.000   3.110   2.426  0.0191 -0.0730 -0.0519
21714W        W41994  11.922   7.566   0.007  0.1979 -0.2824  0.0823
21715W        W41995  14.896  13.297  15.667 -0.1095 -0.0717 -0.1436
21716W        W41996   0.208  14.235   4.747 -0.0933  0.0797 -0.0547
21717W        W41997   8.184  12.527   2.427 -0.0447 -0.1521 -0.1536
21718W        W41998  11.747   5.948  12.821  0.1697  0.0508 -0.2451
21719W        W41999  17.690   1.196  13.297  0.3410  0.0699 -0.2157
21720W        W42000   6.555  10.148   1.938  0.0018  0.1875  0.0026
21721W        W42001   5.940   0.066   2.279  0.2004 -0.0381 -0.2148
21722W        W42002  13.990   7.170   4.201  0.3572 -0.1037 -0.2399
21723W        W42003   0.043  15.655   2.792 -0.0215 -0.0159 -0.3679
21724W        W42004   3.066   9.979  12.981  0.1005  0.0074  0.0905
21725W        W42005   0.022   1.226   3.541  0.2209  0.3226  0.0982
21726W        W42006   8.893  17.501  15.569 -0.1573  0.2565  0.0171
21727W        W42007  14.094   2.845  11.988  0.1210  0.1316  0.0384
21728W        W42008   0.521   2.702  15.920  0.1254  0.0963 -0.4506
21729W        W42009   7.269   2.615   3.487  0.1932 -0.0254 -0.0823
21730W        W42010   8.774   9.217   2.057 -0.1901  0.2377  0.2603
21731W        W42011  11.920  17.718   1.241  0.1557 -0.1565 -0.0141
21732W        W42012   7.691  14.443  13.133 -0.0378 -0.1086  0.1074
21733W        W42013   1.186  13.296   3.696 -0.2177 -0.1677  0.1226
21734W        W42014  13.270   5.482   3.674  0.0429  0.0947  0.0785
21735W        W42015  16.515   2.322  14.015  0.1002  0.1617  0.1197
21736W        W42016   4.802   7.608   0.009  0.0716 -0.0687 -0.0401
21737W        W42017   8.773   8.423  13.055 -0.0020  0.2980  0.0421
21738W        W42018  12.391   8.785  11.718 -0.2537 -0.1065  0.2505
21739W        W42019   3.911   1.144  13.219 -0.2644  0.2227  0.3197
21740W        W42020   9.144  15.694   0.057  0.1687  0.1512 -0.0476
21741W        W42021  12.699  16.981   0.352 -0.3431  0.0974 -0.0190
21742W        W42022  14.691   2.515  13.777 -0.1763  0.0872 -0.2066
21743W        W42023   8.187   5.503   3.121 -0.0797 -0.2393 -0.0572
21744W        W42024  13.859  15.503  13.081 -0.0429 -0.1701 -0.2235
21745W        W42025   9.897  10.333   3.891 -0.1436 -0.1482 -0.1521
21746W        W42026   7.460   4.898   0.194  0.0975 -0.2393 -0.1093
21747W        W42027  10.905   8.965   4.744 -0.0278  0.2776  0.1928
21748W        W42028  14.825  14.453  13.539  0.1043 -0.2975  0.1372
21749W        W42029   5.801   4.279   4.051  0.3580 -0.2055  0.2411
21750W        W42030   4.701   4.431   1.045  0.0328  0.0896 -0.1861
21751W        W42031   8.913   4.390   1.445 -0.0002  0.1328 -0.1612
21752W        W42032   1.303  14.517   1.982  0.0485 -0.0675  0.4008
21753W        W42033  16.371  17.772  14.909 -0.0201  0.4330 -0.2876
21754W        W42034   8.224  12.060  15.500  0.0445 -0.1028  0.1429
21755W        W42035  12.905   1.446  14.992  0.0586 -0.3035 -0.0479
21756W        W42036   1.330  10.207   3.625  0.1438 -0.0258 -0.0455
21757W        W42037  11.537   5.590   5.353 -0.1454 -0.1959 -0.0336
21758W        W42038  14.252   9.344   0.502 -0.2097  0.0184  0.2596
21759W        W42039  17.170  13.347   2.528 -0.1462  0.1097  0.2401
21760W        W42040  15.904   0.410  12.986  0.1344  0.1963 -0.2589
21761W        W42041   9.982  15.620  15.590  0.0219  0.1660  0.2455
21762W        W42042  12.128   1.586   2.540  0.1252 -0.0400  0.1257
21763W        W42043  12.941  17.150  15.830  0.0823 -0.1512  0.0630
21764W        W42044  16.720   0.834   3.244  0.1772 -0.4754 -0.1694
21765W        W42045  17.985  10.406  15.134 -0.2987  0.0500 -0.3331
21766W        W42046  16.794   2.566   3.827  0.1888  0.0254  0.2414
21767W        W42047   2.377   5.273   2.235  0.0536 -0.0769 -0.2093
21768W        W42048   3.388  11.303   1.657  0.0616 -0.2037 -0.2354
21769W        W42049   5.951   4.546   1.850  0.1041  0.0135 -0.0723
21770W        W42050  11.590   3.859   4.164  0.0698 -0.0615  0.1232
21771W        W42051   3.303  15.640  11.876  0.0777  0.0966  0.0584
21772W        W42052   2.160   0.027  13.121 -0.2180  0.2178 -0.1807
21773W        W42053   3.005   0.244  11.303 -0.1131  0.2062  0.1839
21774W        W42054   1.773  18.092   0.196 -0.0972  0.0178  0.0851
21775W        W42055  13.889   7.032  12.689  0.3159  0.1376  0.0065
21776W        W42056  10.446   8.787   3.203 -0.0269 -0.3147  0.0196
21777W        W42057  17.616   5.828  11.757 -0.2684 -0.0193 -0.0831
21778W        W42058  12.729  14.386  15.895 -0.1968 -0.0362 -0.2937
21779W        W42059  17.094  17.904  12.588  0.1732  0.0526 -0.0430
21780W        W42060   3.372   3.295   1.673  0.1519  0.1503 -0.2794
21781W        W42061  13.363   0.945  10.099  0.1563  0.0528  0.0167
21782W        W42062  17.601   2.437  14.790  0.1466 -0.2716  0.1652
21783W        W42063  14.411   8.005  11.852  0.0519 -0.2535 -0.3674
21784W        W42064  12.116   3.135  14.999  0.1463  0.0883  0.3461
21785W        W42065  16.243  11.087   0.826 -0.1776  0.1816 -0.1420
21786W        W42066   2.932   1.632   3.871  0.3858  0.0005  0.2450
21787W        W42067  12.998  16.753  14.781  0.3254  0.2173  0.0109
21788W        W42068  10.670  11.069  12.491  0.0445 -0.0019  0.3072
21789W        W42069   7.269  12.690   4.686 -0.0869  0.1153  0.1368
21790W        W42070   0.223  11.118  15.698 -0.0544  0.0738  0.1615
21791W        W42071   8.643   2.267   1.808 -0.0862 -0.1203  0.1092
21792W        W42072  16.496   1.127  13.668  0.0125 -0.0768 -0.2193
21793W        W42073   3.836  15.621  12.743 -0.1470  0.0201  0.0305
21794W        W42074  15.174  14.180  14.656 -0.1345  0.0932 -0.0127
21795W        W42075   4.321  11.313  15.305 -0.0087  0.0244 -0.0734
21796W        W42076   7.080   4.113  12.020 -0.1758  0.1168 -0.0990
21797W        W42077   6.135  17.199  15.454  0.1708 -0.0417 -0.1739
21798W        W42078   2.326   6.258  13.317 -0.1821 -0.0533 -0.0120
21799W        W42079  17.393   0.355   0.249 -0.0429  0.1250  0.0021
21800W        W42080   9.058  10.194   0.675  0.2937  0.1832  0.0897
21801W        W42081   6.484  12.367   1.084 -0.0656 -0.3717 -0.2567
21802W        W42082   9.600   8.936   2.006  0.1979  0.4373  0.2971
21803W        W42083  13.780   5.540   5.245 -0.0186  0.2903  0.1064
21804W        W42084   0.850   9.701  12.405  0.1326 -0.1380  0.1181
21805W        W42085  15.670   6.794   3.973 -0.3234  0.2755 -0.1864
21806W        W42086   4.957  16.987   0.323 -0.1088  0.0293 -0.1522
21807W        W42087  12.550   0.370  15.454  0.1868  0.1112 -0.0921
21808W        W42088  18.124  11.883   2.676 -0.1222 -0.0664  0.1037
21809W        W42089  15.212   0.855  12.453  0.0811 -0.0186 -0.2554
21810W        W42090   2.173   9.869   3.809  0.0813 -0.0367 -0.0062
21811W        W42091  13.004   8.063   3.332 -0.1949  0.1195  0.0722
21812W        W42092   7.245  10.153   0.174  0.0957 -0.3909 -0.1587
21813W        W42093   4.774  14.922  12.278 -0.0682 -0.0190 -0.0029
21814W        W42094  17.675   3.090  14.330  0.2843 -0.1591  0.2371
21815W        W42095   4.560   4.003   2.311  0.6386  0.2999 -0.2727
21816W        W42096  10.997   1.187   2.517 -0.1516 -0.3457 -0.0714
21817W        W42097   3.793  11.378   5.849  0.1686 -0.0485 -0.0582
21818W        W42098   3.604   6.643   2.696  0.0049 -0.4867 -0.0958
21819W        W42099  11.620   5.670   4.005 -0.0719 -0.3568 -0.0068
21820W        W42100  11.306   0.991  15.855  0.2317 -0.0398  0.1320
21821W        W42101   3.895  14.774  11.985  0.1627 -0.2129 -0.0027
21822W        W42102  11.297   8.263   0.436  0.0926 -0.0002  0.0711
21823W        W42103   1.001   1.585  15.257  0.3615  0.1046  0.2040
21824W        W42104  15.676  17.852  13.922  0.2633  0.0767  0.3149
21825W        W42105  14.525  14.621  15.072  0.0596 -0.2976  0.0543
21826W        W42106   5.202   7.743  13.410 -0.0444  0.0687  0.0259
21827W        W42107  13.455  10.779  12.127 -0.0237 -0.2642 -0.1202
21828W        W42108   0.179  12.410   0.906 -0.1425  0.1182 -0.0969
21829W        W42109   7.122   8.847  14.260  0.1965  0.1749  0.0206
21830W        W42110   5.173  10.635   2.123 -0.1796 -0.0409  0.0254
21831W        W42111   0.743  12.934   0.726  0.2150  0.2812 -0.0723
21832W        W42112  14.472   1.741  14.156  0.3567  0.4156 -0.1383
21833W        W42113  10.441   5.066   0.536  0.0500  0.3821  0.0492
21834W        W42114   1.661  10.293   3.246  0.0971 -0.2624  0.0437
21835W        W42115  12.910  10.951   1.301 -0.2313 -0.0167  0.0575
21836W        W42116  11.259  18.053  12.800  0.1205  0.2588 -0.2451
21837W        W42117  17.711   8.437   3.332  0.0997 -0.2479  0.0568
21838W        W42118   2.105  10.066  12.248  0.0067  0.2142  0.0784
21839W        W42119  13.281   4.544   4.184  0.3104  0.3685 -0.2711
21840W        W42120   1.501   4.809  14.634 -0.0559 -0.0454  0.1587
21841W        W42121  14.468   5.775  14.667 -0.4104 -0.1804  0.1544
21842W        W42122  17.041   9.563  12.753 -0.1305  0.0378  0.0368
21843W        W42123  16.101  11.836  15.299  0.1288 -0.0486 -0.1676
21844W        W42124   5.232   5.089   2.100  0.0794 -0.0644  0.0174
21845W        W42125   0.463   0.503  13.956  0.0981 -0.0523 -0.0358
21846W        W42126  11.099  16.824  11.923  0.0477 -0.2501  0.1565
21847W        W42127  10.529   0.866   2.949 -0.2340 -0.0481 -0.1107
21848W        W42128   9.185   6.549  13.176  0.2460 -0.0971 -0.0787
21849W        W42129   8.607   2.203   0.890 -0.2500  0.2702 -0.3136
21850W        W42130  18.039  14.457   0.075 -0.1983  0.0430  0.0555
21851W        W42131   0.541   0.257   3.794  0.1114 -0.1514 -0.0447
21852W        W42132  11.676  16.788   2.382 -0.0493 -0.1738 -0.2079
21853W        W42133  18.267   7.055   3.519 -0.2674  0.2818  0.0898
21854W        W42134  15.081  11.124  15.693  0.0079  0.0955  0.1160
21855W        W42135   1.501   7.589   3.824 -0.2647  0.0991  0.2516
21856W        W42136  12.600  14.312  15.011 -0.0331  0.2317 -0.2808
21857W        W42137   2.767   4.346  13.725 -0.0741  0.1226 -0.0629
21858W        W42138   9.281   5.044   2.124  0.1449 -0.1156 -0.0906
21859W        W42139   2.139   4.294  12.261 -0.0437 -0.2997  0.2046
21860W        W42140   9.304  11.077  13.954  0.1212  0.3668 -0.1256
21861W        W42141   7.221   4.591  13.122  0.1506 -0.2880 -0.0369
21862W        W42142   0.616   6.391  15.167 -0.1096  0.1721  0.0865
21863W        W42143  10.232  11.483  13.231 -0.0663  0.1264  0.1659
21864W        W42144   7.488   4.686   3.916  0.3083  0.2522 -0.0666
21865W        W42145   6.334  10.262   2.936  0.1446  0.1301 -0.3464
21866W        W42146   8.136  13.106   2.400  0.0972  0.2928  0.0810
21867W        W42147  17.258  14.406   3.430 -0.1373  0.0131 -0.1857
21868W        W42148   2.699  16.911  14.686  0.0353  0.1771 -0.1071
21869W        W42149   0.741  13.268   2.979  0.2488  0.1354 -0.1132
21870W        W42150  14.259   7.129   4.930  0.0465  0.0225 -0.1076
21871W        W42151   2.746   1.405  11.966  0.0344  0.0162 -0.1782
21872W        W42152  10.270  16.960  15.909 -0.0869  0.0758  0.0562
21873W        W42153   6.896   9.499  11.883  0.1759 -0.0289 -0.1846
21874W        W42154   7.140   9.118   0.732  0.1631 -0.1085  0.2640
21875W        W42155   3.751  15.257  14.058 -0.0920 -0.2083 -0.2174
21876W        W42156   8.219  17.402   0.215 -0.0376  0.1560  0.3006
21877W        W42157  13.916  16.327   0.117  0.3046  0.1477  0.1527
21878W        W42158  14.753  12.267   3.002 -0.3249 -0.0384  0.2030
21879W        W42159  10.596   4.623   4.065  0.0088 -0.1070  0.1590
21880W        W42160   4.538   8.726   2.023  0.0598  0.2518 -0.1044
21881W        W42161  12.880  14.094   2.432  0.0917 -0.2972  0.2041
21882W        W42162  10.270  16.572   4.502  0.2051  0.1096  0.0354
21883W        W42163  15.131   7.260  15.440  0.0637  0.1992 -0.2267
21884W        W42164   6.977  10.366   3.694 -0.1871 -0.4379 -0.2157
21885W        W42165   8.928   1.180  12.042  0.1962  0.1176  0.3589
21886W        W42166   4.810   1.265  12.874  0.0934  0.1244 -0.1659
21887W        W42167  11.775   4.869  13.466  0.0913  0.1063  0.1276
21888W        W42168   5.309   7.241  14.314 -0.3195  0.1026 -0.0893
21889W        W42169  13.099   4.340   4.582  0.0883  0.0954 -0.0553
21890W        W42170   5.689   8.897   2.788  0.1880  0.1615  0.0001
21891W        W42171   0.665  14.285  11.527 -0.0203  0.0838 -0.2470
21892W        W42172  15.173  16.574   1.650  0.0648 -0.0323 -0.1241
21893W        W42173   9.282   5.251   1.600 -0.0071 -0.0799  0.2731
21894W        W42174  14.918  18.310  14.991 -0.0305 -0.0287  0.0252
21895W        W42175   2.137   5.283   1.770 -0.2244  0.2156  0.0891
21896W        W42176   0.099  14.638  12.250 -0.1164  0.0323 -0.0574
21897W        W42177  16.843  11.743   1.459  0.0039  0.1545 -0.2642
21898W        W42178  12.255   3.358   2.529  0.2787 -0.1339  0.2443
21899W        W42179  11.419  16.053   2.802  0.0305  0.1412 -0.0053
21900W        W42180   2.330   4.173   3.042 -0.0711 -0.0545  0.0757
21901W        W42181  16.023   9.880   0.861  0.1420 -0.0506  0.0899
21902W        W42182  13.992   7.608  13.488  0.0197 -0.0923 -0.2299
21903W        W42183  10.251   6.504   3.440  0.0615 -0.1230  0.1692
21904W        W42184  15.579   3.075   0.991  0.0765  0.2895  0.2870
21905W        W42185   1.808   6.731   4.829  0.0740 -0.0509 -0.3418
21906W        W42186  14.898   5.834  10.565  0.1326  0.1266  0.0481
21907W        W42187  11.864  15.856   1.514  0.0536 -0.0397  0.2130
21908W        W42188  10.415   2.532  12.104  0.0629  0.1577  0.0610
21909W        W42189  10.304  17.899   1.900  0.3630 -0.1186 -0.2247
21910W        W42190   7.208  16.454  14.858  0.2506  0.1286  0.2787
21911W        W42191  17.462   3.886   1.615  0.0659 -0.0565  0.1818
21912W        W42192   3.866   4.866   0.688  0.1515  0.1138  0.3411
21913W        W42193   4.990   1.427   0.768 -0.1225  0.3154  0.1141
21914W        W42194  10.408   5.798   2.672 -0.1966 -0.1571  0.2750
21915W        W42195  10.304   9.886   4.711 -0.1255 -0.2325 -0.4689
21916W        W42196   3.839  16.397  14.557  0.3113  0.0846 -0.0682
21917W        W42197   6.908   1.678   2.495 -0.2808  0.1669 -0.0643
21918W        W42198   5.924  11.127   4.929 -0.1256 -0.0368 -0.1974
21919W        W42199   8.506   9.133  12.201 -0.0418 -0.1942 -0.0802
21920W        W42200   7.928   0.782   2.336 -0.0809  0.0090  0.2097
21921W        W42201  13.341   0.979  14.944 -0.2055 -0.2539  0.2479
21922W        W42202  12.928   2.516  15.237  0.0644 -0.0529 -0.1077
21923W        W42203  17.454  16.704   1.470  0.1128  0.1485  0.2393
21924W        W42204   0.827  13.515   3.927 -0.1225 -0.0873  0.1906
21925W        W42205   6.075  17.356   1.186 -0.0122 -0.0655 -0.0462
21926W        W42206   7.845   5.667   0.228  0.3828 -0.0397  0.2972
21927W        W42207  12.890  16.882   3.132 -0.1387  0.2074 -0.0626
21928W        W42208   7.696   9.306  15.761  0.1542  0.1354  0.2692
21929W        W42209   1.897   0.398   3.374  0.0608  0.3890 -0.2175
21930W        W42210  15.172   9.521  12.032 -0.0497  0.1750 -0.0221
21931W        W42211  12.646   4.234  12.542 -0.2090  0.0489 -0.0884
21932W        W42212  14.355   3.421  12.818  0.2579 -0.4197 -0.0050
21933W        W42213  12.204  13.839  14.435  0.0785 -0.2268  0.0468
21934W        W42214   5.178  12.493  14.935 -0.3239  0.2569  0.0758
21935W        W42215  13.018   7.981  12.561  0.0454  0.1341 -0.0696
21936W        W42216   4.952   0.885   3.666  0.0329 -0.0071 -0.4266
21937W        W42217  12.620   4.763  15.929  0.0151 -0.0612  0.2479
21938W        W42218   8.824  16.553   2.303  0.0145  0.0140  0.1731
21939W        W42219   0.741   9.726   3.848 -0.1091 -0.1049 -0.1857
21940W        W42220  13.806  18.122  13.353 -0.0635 -0.1190  0.0646
21941W        W42221  13.321  14.717   3.452  0.0450  0.2789 -0.0277
21942W        W42222  12.876   7.099  12.117 -0.1220 -0.0592 -0.1201
21943W        W42223   7.768   5.233  14.815  0.2188  0.3446  0.0821
21944W        W42224   2.428   0.862  13.412 -0.1185  0.0824 -0.2474
21945W        W42225   0.071   3.658   3.127  0.0916  0.2382 -0.0828
21946W        W42226   0.372   2.120  14.179 -0.2631 -0.1884 -0.0949
21947W        W42227  11.899  14.366  13.681 -0.0553  0.4864  0.3821
21948W        W42228  14.174   3.819  11.993  0.0400  0.0949 -0.0558
21949W        W42229  15.050  14.576   4.864  0.0600  0.1050 -0.0106
21950W        W42230   8.240   9.572  12.358  0.0177 -0.0718  0.0001
21951W        W42231  16.790  10.777  14.471 -0.0457  0.0603 -0.0680
21952W        W42232   7.579  17.992   3.513  0.1850 -0.2642 -0.1890
21953W        W42233  14.922   2.941   1.099 -0.2001 -0.0678  0.0279
21954W        W42234  13.052  10.450  11.379 -0.3151  0.0067  0.2253
21955W        W42235  18.329   4.085   0.247  0.2087 -0.1972  0.0231
21956W        W42236   0.626  12.312   3.366  0.0969 -0.1711  0.0112
21957W        W42237  11.335   5.218   3.666 -0.2546 -0.1342 -0.1288
21958W        W42238  18.275  13.354  15.334  0.1297 -0.2313  0.0958
21959W        W42239  10.216   1.693   3.314  0.0864  0.2854  0.0260
21960W        W42240   4.831   9.155   0.827 -0.2807  0.0467  0.3240
21961W        W42241   7.628   4.937   2.543 -0.3311 -0.0954  0.0689
21962W        W42242  16.473   5.690   1.046 -0.1877  0.3929  0.1294
21963W        W42243   8.071  14.959   3.032 -0.2856 -0.0234  0.1944
21964W        W42244  15.984  11.446   5.218  0.1448  0.0862  0.1073
21965W        W42245   9.282  13.443   2.414  0.1943 -0.0099  0.2553
21966W        W42246  14.269   2.995   0.369  0.1629 -0.1675 -0.1391
21967W        W42247   4.947   7.621   1.366 -0.0310 -0.0267  0.1571
21968W        W42248   3.189   8.781   0.013 -0.2072  0.1228 -0.4329
21969W        W42249  14.348   8.901   4.720  0.0466  0.0263 -0.1002
21970W        W42250  11.044  12.752   1.986 -0.1501 -0.0645 -0.1432
21971W        W42251   3.795  14.450   2.132 -0.3772 -0.0779 -0.2158
21972W        W42252  10.909  15.763   4.168  0.1295 -0.1130  0.3663
21973W        W42253  14.108  17.509  14.618  0.1471  0.1335 -0.0101
21974W        W42254  15.054   6.838  15.171 -0.0301  0.1274  0.2832
21975W        W42255   1.891  14.800  12.061 -0.2428  0.0240  0.1101
21976W        W42256   7.486  11.532   2.503  0.0996 -0.0627 -0.2294
21977W        W42257   8.782   9.878  14.379 -0.0684  0.2382 -0.2408
21978W        W42258  11.758   1.204   5.578  0.1380 -0.3111 -0.0061
21979W        W42259   5.042   4.751   1.356  0.0273  0.0442 -0.1274
21980W        W42260  17.726  17.971   4.282  0.0915  0.1382 -0.1179
21981W        W42261   4.322   9.767   1.307 -0.1858 -0.3525 -0.2684
21982W        W42262   3.490   2.312  14.531  0.2200  0.2680  0.0264
21983W        W42263   2.913   6.700   2.002 -0.2249  0.0313  0.1933
21984W        W42264   4.602   1.312  11.567  0.0398 -0.0223  0.2088
21985W        W42265  17.648   8.303   4.365 -0.0743  0.1373 -0.2993
21986W        W42266  12.095  16.148  14.354  0.1968  0.3049  0.1016
21987W        W42267  12.958   0.056   1.764 -0.1295 -0.2709 -0.1176
21988W        W42268   1.051  10.722  13.404 -0.2371 -0.0395  0.0449
21989W        W42269  13.508  11.912  12.833 -0.1288 -0.1217  0.0374
21990W        W42270  10.965  11.292   4.732 -0.1592  0.0280 -0.0486
21991W        W42271  17.792  10.184  13.296  0.0976 -0.0653  0.1308
21992W        W42272  17.894  13.041  15.238 -0.2366  0.3587  0.6146
21993W        W42273  17.621  12.069  14.032 -0.1637 -0.0668  0.2907
21994W        W42274   9.309   5.516   4.034  0.0937  0.0569 -0.4440
21995W        W42275   5.177   5.311   1.025 -0.3552 -0.1539  0.0303
21996W        W42276  16.569  13.822  11.374 -0.0166  0.1388  0.0816
21997W        W42277   8.745   7.811   3.332 -0.0533 -0.0942 -0.0921
21998W        W42278   7.644  11.917  15.027  0.2836  0.2865  0.0831
21999W        W42279  13.888   9.984  11.209 -0.0318 -0.0120  0.3606
22000W        W42280  16.125   4.220   2.861 -0.0901  0.0175  0.0429
22001W        W42281  15.416   3.857  15.335  0.1838 -0.2919  0.1668
22002W        W42282  16.659   1.281  11.608  0.1999  0.4259 -0.2185
22003W        W42283   6.452  15.167   2.581 -0.0430  0.1084  0.1481
22004W        W42284   0.618   2.210   0.505  0.1797 -0.0687  0.2779
22005W        W42285  16.609   9.924   2.757  0.0240  0.2856 -0.0859
22006W        W42286   0.713   6.122  11.469  0.1953  0.0049  0.1864
22007W        W42287  14.134   4.696   0.399  0.0816  0.1672  0.0684
22008W        W42288  17.676   5.839  11.196  0.2214  0.1513  0.0244
22009W        W42289  16.755   8.238   4.129  0.2524 -0.0723  0.2257
22010W        W42290   6.745   3.854   2.147 -0.0754 -0.1345 -0.3270
22011W        W42291  14.377  15.834  13.286 -0.2196 -0.0435  0.2301
22012W        W42292   6.351   3.287   2.732 -0.0326 -0.1652  0.2262
22013W        W42293   9.632  18.016  15.819  0.0093 -0.1793 -0.3013
22014W        W42294   7.070   8.550  15.582  0.1663  0.1066 -0.1284
22015W        W42295   3.950   9.963   4.010  0.1382 -0.0956 -0.2168
22016W        W42296  16.897  14.650  11.405  0.1943  0.1212 -0.3110
22017W        W42297  10.579  10.034   5.360 -0.4238  0.0763 -0.0178
22018W        W42298  16.114  14.657   0.520  0.0068  0.0936  0.1490
22019W        W42299   5.365   0.635  12.523 -0.0381  0.4173 -0.0943
22020W        W42300  17.344  11.027   0.344 -0.0133 -0.0012 -0.2086
22021W        W42301   3.769   4.775   3.037 -0.1359  0.1312 -0.0389
22022W        W42302   1.528   2.466   0.814  0.3213  0.0793  0.0424
22023W        W42303  14.242  16.181  15.120 -0.2344 -0.1969 -0.0564
22024W        W42304  16.852   9.134  15.737  0.0741  0.1162 -0.0297
22025W        W42305  17.147   2.608  11.683  0.4403 -0.0893  0.4279
22026W        W42306  12.582  14.337   1.695 -0.0670  0.0414  0.0934
22027W        W42307   6.473   8.181   2.770  0.0181  0.2193  0.2028
22028W        W42308   6.686   8.120  15.644  0.1165  0.1297  0.0159
22029W        W42309  14.065  11.836   0.746 -0.1510  0.0335  0.0632
22030W        W42310  14.175  13.050  12.945 -0.1142 -0.4146  0.2035
22031W        W42311   2.877  14.813   1.427  0.1872  0.0997  0.1886
22032W        W42312  15.396  15.504   0.811  0.0822  0.1445 -0.1364
22033W        W42313   7.872  18.222  14.579 -0.0016  0.0120 -0.1137
22034W        W42314   1.275   8.255  13.640  0.1606  0.0555  0.1569
22035W        W42315   6.622  12.051  12.095  0.0589  0.0505 -0.2768
22036W        W42316   3.574   9.595   2.424 -0.3030 -0.0024 -0.0964
22037W        W42317  11.987   9.529   5.858 -0.2262 -0.1518 -0.0958
22038W        W42318  16.550   3.947  12.557 -0.1640 -0.0314  0.4440
22039W        W42319   4.555   5.957  11.903  0.3551  0.0964  0.1710
22040W        W42320  13.277   8.755  12.227 -0.0029 -0.0261 -0.0325
22041W        W42321   5.922  15.333  11.545  0.3922  0.1817 -0.0540
22042W        W42322  17.071   7.368   2.165 -0.0463  0.0249 -0.0954
22043W        W42323   7.343  14.320   0.330 -0.0737 -0.0350  0.1456
22044W        W42324  11.557   9.293  15.655 -0.0698  0.0838 -0.0918
22045W        W42325   0.193   6.279  13.573 -0.1966  0.1064 -0.0122
22046W        W42326   4.712   1.042  12.029  0.1653  0.2198 -0.0005
22047W        W42327  12.426   6.314  13.538  0.0741  0.1967 -0.1362
22048W        W42328  11.328   3.913   2.397  0.1053 -0.0775 -0.0243
22049W        W42329  12.005   8.064   1.961 -0.0232 -0.0976 -0.1837
22050W        W42330   0.828  14.219   1.739  0.0662  0.0231  0.0567
22051W        W42331  17.877  10.926   2.483  0.0018 -0.2017  0.2303
22052W        W42332   9.600   8.838   2.772 -0.1688  0.1603  0.0458
22053W        W42333  10.005  18.128  12.800  0.1428  0.1980 -0.1223
22054W        W42334  15.090   6.298   4.316  0.1239 -0.0411  0.1546
22055W        W42335   5.261  12.898   0.650 -0.0602 -0.1560 -0.0185
22056W        W42336  10.053   7.614   1.153  0.2145 -0.1107 -0.0781
22057W        W42337   3.478  13.715  14.756  0.1339 -0.0197 -0.3246
22058W        W42338   8.941  16.598   2.850  0.0926  0.1689  0.1498
22059W        W42339  18.324   5.267  14.424 -0.1944  0.0679 -0.2321
22060W        W42340   5.184   3.425   0.502  0.0552 -0.3451  0.3329
22061W        W42341  10.090  10.886   3.178 -0.1468  0.2909  0.1179
22062W        W42342   9.680  11.063  15.761  0.0873  0.0428 -0.0630
22063W        W42343   1.680   9.251   4.473  0.1510  0.1108 -0.0961
22064W        W42344   1.679  16.335   3.583  0.1957 -0.0135  0.1700
22065W        W42345  13.234   0.964   0.236 -0.0946  0.0298  0.0567
22066W        W42346   2.067   8.519   3.652 -0.0528 -0.1606 -0.0013
22067W        W42347   8.597   9.460   2.967 -0.1105 -0.0357 -0.0943
22068W        W42348   8.384   5.733   4.042  0.3593  0.0335  0.2137
22069W        W42349  15.391   5.864   4.418  0.0432  0.0282 -0.1073
22070W        W42350  16.360   0.307  15.163  0.2006 -0.3032 -0.1334
22071W        W42351   0.682   8.098  13.540  0.0783  0.1187  0.1670
22072W        W42352   8.745   1.364  14.074 -0.2033 -0.0254  0.0730
22073W        W42353  16.260  12.628   1.276  0.1415 -0.1725 -0.1725
22074W        W42354   8.377  10.864  12.883 -0.1722 -0.1090 -0.0169
22075W        W42355  13.527  17.221   1.085  0.0255 -0.0680  0.0084
22076W        W42356  16.214  11.669  12.115 -0.1490  0.1526  0.1408
22077W        W42357  17.277  13.269  15.027  0.1009  0.1077  0.2286
22078W        W42358  12.120  12.837   4.124 -0.0019  0.1699 -0.1037
22079W        W42359   0.875  12.992  10.823 -0.3215  0.2007 -0.2072
22080W        W42360   4.448   4.073  12.630  0.1917  0.1676 -0.0135
22081W        W42361  12.863  17.426   4.570 -0.0292 -0.1497 -0.1104
22082W        W42362  16.900  10.647   2.233  0.0585  0.4699 -0.1800
22083W        W42363   0.908  12.848  13.378 -0.3015 -0.1128 -0.0801
22084W        W42364  17.980   7.258   2.689 -0.2751  0.0279 -0.1635
22085W        W42365  14.196   8.872   4.276  0.1642  0.1482 -0.4911
22086W        W42366   9.046   8.523  12.152 -0.1284  0.2944  0.0271
22087W        W42367  14.536  13.718  14.055  0.0886 -0.0099  0.0249
22088W        W42368   2.328  14.067  15.121  0.2509 -0.0106 -0.0806
22089W        W42369  14.159   4.275   3.081 -0.1582  0.1279  0.1294
22090W        W42370  10.034  12.908  14.398 -0.2003 -0.1854  0.0243
22091W        W42371   6.787  13.274   2.466 -0.2355  0.0684  0.0916
22092W        W42372  15.923  11.660  13.552  0.1018 -0.3736 -0.1192
22093W        W42373  15.310  14.514   1.723  0.2499  0.1937 -0.1399
22094W        W42374   8.498   9.383   1.125  0.4356 -0.0874  0.0842
22095W        W42375  14.947   1.569   2.847  0.0093  0.2608 -0.0170
22096W        W42376  15.927  15.556   0.854 -0.0398 -0.1412  0.1171
22097W        W42377   4.815   4.298   2.590 -0.2459 -0.1868  0.0110
22098W        W42378  15.076  10.452  15.070 -0.0978 -0.1033  0.5089
22099W        W42379  10.889   2.982   1.360  0.2346 -0.0660  0.1660
22100W        W42380   4.535  11.256   1.380 -0.2349 -0.1593 -0.3786
22101W        W42381   0.501  17.046  14.450 -0.0230  0.0365 -0.3447
22102W        W42382   0.409  16.799  12.165  0.0260 -0.2156  0.3845
22103W        W42383  14.612  10.750  13.605 -0.0524  0.1455  0.0501
22104W        W42384   6.513  18.180   3.623 -0.2187 -0.0050  0.0146
22105W        W42385  15.241  14.799   2.409 -0.1980 -0.2552 -0.1510
22106W        W42386   6.976  17.260   5.170 -0.2477  0.0403 -0.3854
22107W        W42387   0.441  13.881  13.080  0.0441 -0.2118 -0.0142
22108W        W42388  14.588  16.440  13.051  0.1532 -0.0678  0.0210
22109W        W42389  14.681   2.433   1.118 -0.1882  0.1974 -0.1448
22110W        W42390   2.566  11.915   0.375 -0.0918 -0.4134 -0.2906
22111W        W42391   3.112   2.005   1.788  0.1705  0.0212 -0.0875
22112W        W42392  16.761  18.052  11.101  0.0664  0.4651  0.1596
22113W        W42393  13.518  13.112  15.113  0.0490  0.1094 -0.1567
22114W        W42394  11.113   8.963   4.124  0.2228 -0.1971  0.0984
22115W        W42395  10.020   2.020   0.732  0.1089 -0.2911  0.3842
22116W        W42396   5.950  16.527   0.229 -0.0417  0.2836 -0.3185
22117W        W42397   4.008   7.238   1.077  0.0547 -0.2048 -0.1517
22118W        W42398  15.561   6.353   4.629  0.4117  0.1349  0.2415
22119W        W42399   2.598   4.971  13.998  0.1354  0.2154 -0.0040
22120W        W42400   2.712  11.287  14.482  0.0194 -0.2748 -0.0891
22121W        W42401  14.470  17.305  15.458  0.0357 -0.0718  0.3504
22122W        W42402   7.752   0.878   1.412  0.1759 -0.1196  0.3574
22123W        W42403   8.906   5.803   4.387  0.0865  0.3519  0.1836
22124W        W42404   1.280  11.866  14.468  0.2060 -0.0331 -0.2906
22125W        W42405   2.205   3.035   2.444  0.0608  0.0156 -0.1146
22126W        W42406  17.961   7.722  14.193  0.0094 -0.3508 -0.0895
22127W        W42407   3.930   3.394   0.919  0.2412  0.1295  0.0326
22128W        W42408  15.195  13.139  13.868  0.0304 -0.0976 -0.1245
22129W        W42409  17.531   5.799  12.377 -0.0156  0.0197 -0.2137
22130W        W42410   8.520   4.060   0.649  0.0979 -0.0627 -0.0257
22131W        W42411   5.956   9.446   0.422  0.1995 -0.3654 -0.0313
22132W        W42412   5.189   8.936   2.027  0.0027 -0.2491 -0.3510
22133W        W42413   2.562   7.102   1.892  0.1638 -0.1548  0.0251
22134W        W42414   6.322   5.526   0.428  0.1639  0.0600 -0.0389
22135W        W42415  13.586  13.678  12.808 -0.2301 -0.0839  0.0555
22136W        W42416   5.566   3.916   2.295  0.1141 -0.1873  0.0654
22137W        W42417  16.589  14.247   0.874 -0.0409  0.0346  0.3071
22138W        W42418  12.658   6.491  13.907  0.1012 -0.0939  0.0240
22139W        W42419   9.928  17.716   0.181 -0.2852 -0.0344  0.1815
22140W        W42420   6.975  13.670  15.213 -0.2966  0.0739  0.1587
22141W        W42421   2.261   5.197   5.153  0.0938 -0.1317  0.1336
22142W        W42422  12.210  13.499   0.395 -0.2936 -0.1865 -0.1570
22143W        W42423   5.372  12.646   2.399 -0.3479 -0.0137 -0.1697
22144W        W42424   7.371  11.441   3.029  0.0505 -0.1827 -0.1278
22145W        W42425   7.469   0.297  12.034 -0.0822 -0.1105  0.0790
22146W        W42426   2.357   9.868  13.028  0.0290  0.1901  0.2599
22147W        W42427   8.353  13.353   2.843 -0.0917 -0.1903  0.0294
22148W        W42428   1.181   2.662  13.230 -0.1660 -0.0258 -0.0488
22149W        W42429   4.341   9.117   1.828  0.1830  0.3358 -0.1469
22150W        W42430  14.140   5.281  13.795 -0.0019  0.0348  0.0704
22151W        W42431  10.320  11.274  10.971  0.0753  0.0396 -0.0163
22152W        W42432  12.476   7.023   0.679  0.0206  0.1657  0.2000
22153W        W42433  12.128   1.641   0.350  0.4281 -0.0003 -0.2743
22154W        W42434  18.130  17.900  14.075 -0.0156  0.0614  0.2473
22155W        W42435  13.902   4.122   1.566 -0.3429  0.1676 -0.0674
22156W        W42436   0.664  16.641  15.562  0.0109 -0.2441  0.4295
22157W        W42437  16.270   0.775  12.277  0.0315 -0.0717 -0.2337
22158W        W42438   8.992   2.415  11.372  0.1436 -0.1563 -0.3344
22159W        W42439   1.144  13.741  11.415 -0.1045 -0.1839 -0.3804
22160W        W42440   4.210   0.895   1.758  0.1637  0.0248 -0.1386
22161W        W42441  17.005   2.546   3.366 -0.1096  0.2359 -0.2995
22162W        W42442  13.831   4.207  11.950 -0.0229 -0.2008 -0.1452
22163W        W42443   2.250   3.355   0.839 -0.1828  0.1129 -0.1257
22164W        W42444  12.300  15.364  13.276 -0.2404 -0.0282 -0.3968
22165W        W42445   7.262  14.045  13.525 -0.0981  0.1895  0.1399
22166W        W42446   5.558   8.268  15.389 -0.0527  0.0262  0.0747
22167W        W42447  14.880  18.098   2.266 -0.3667  0.0517 -0.1839
22168W        W42448   3.067   3.380  13.430  0.0082 -0.0371 -0.1270
22169W        W42449  17.735  10.863  15.122  0.1955 -0.2506 -0.0905
22170W        W42450  12.537  11.079   3.767 -0.1517  0.4372 -0.0175
22171W        W42451  11.635   5.725   0.336  0.2894  0.1606  0.2784
22172W        W42452   8.978  17.083  14.607  0.3078  0.0315 -0.0530
22173W        W42453   2.065   9.511  12.149 -0.3192 -0.0290  0.0284
22174W        W42454   8.559  17.616   0.667 -0.1158 -0.2828  0.1196
22175W        W42455   5.252  15.440   2.932  0.0811 -0.1746  0.1976
22176W        W42456  10.316  10.521  12.205  0.1526  0.1559  0.2151
22177W        W42457  11.948  13.365  13.803 -0.2396 -0.1971 -0.3212
22178W        W42458   0.644  18.064   1.737 -0.1458  0.2690 -0.1421
22179W        W42459   9.459  18.228  13.634  0.2735 -0.1777 -0.1884
22180W        W42460   3.761  13.230   1.630  0.2058 -0.2282  0.2761
22181W        W42461  13.874  16.721   3.052  0.3030  0.0266 -0.1242
22182W        W42462   2.980   6.065   2.830  0.1939  0.0372  0.0225
22183W        W42463   9.666  12.033   2.826 -0.4491  0.3928  0.0737
22184W        W42464  18.217   3.026  12.472 -0.1049  0.0666  0.1722
22185W        W42465   8.567   0.520   3.128 -0.0432  0.1922 -0.1580
22186W        W42466  14.272  14.330  12.471  0.1018  0.2348  0.1031
22187W        W42467   2.923  16.170  15.709 -0.1719 -0.3485  0.0529
22188W        W42468  15.343  13.562   1.750  0.1804  0.1182 -0.1096
22189W        W42469   0.504  10.032   4.312  0.0520  0.0487 -0.0645
22190W        W42470   4.741  18.270  12.914 -0.0335  0.0967  0.1294
22191W        W42471  13.115   1.488   2.800 -0.3140 -0.0046 -0.2200
22192W        W42472  10.020   7.329   5.255 -0.2272 -0.0716 -0.2240
22193W        W42473  12.511  13.689   3.642 -0.0995  0.0760  0.0967
22194W        W42474  14.653  14.721   0.068 -0.0949 -0.0752  0.2908
22195W        W42475   5.525   7.328   2.722  0.6163 -0.1725 -0.0198
22196W        W42476   8.901  10.883  15.745 -0.0225 -0.1803  0.2833
22197W        W42477   8.416   1.627  13.745 -0.1388 -0.0715 -0.0149
22198W        W42478  15.294  15.336  11.270 -0.3461  0.1213 -0.2056
22199W        W42479   6.236  12.303   0.693 -0.0212 -0.0936 -0.1424
22200W        W42480   4.657   8.568  15.542 -0.0085 -0.0812 -0.1774
22201W        W42481  14.630  13.665  13.142 -0.0707  0.3757 -0.1590
22202W        W42482   5.459   0.440   2.204 -0.1895  0.0408  0.0395
22203W        W42483   5.139  15.572   3.691  0.1010 -0.0510 -0.1442
22204W        W42484   2.123  10.019   3.119  0.0608 -0.0343  0.2108
22205W        W42485   5.007  10.948  10.956  0.0899 -0.1340 -0.2808
22206W        W42486   5.558   2.155  15.492 -0.1397  0.2080  0.0826
22207W        W42487   6.444   3.815  13.017 -0.2078 -0.1043  0.1349
22208W        W42488   8.049   4.708  12.684  0.4155 -0.1117 -0.2574
22209W        W42489  12.945   8.496   0.095 -0.0433 -0.0062 -0.2224
22210W        W42490   0.530   2.318   2.733 -0.1020 -0.0772  0.0259
22211W        W42491  11.304  12.077   1.465  0.0707 -0.0868  0.0119
22212W        W42492  11.314  13.518   1.585 -0.2894 -0.2285 -0.2258
22213W        W42493  18.172  16.503  14.356  0.1819 -0.0531 -0.1787
22214W        W42494   8.996  17.459  11.970  0.0924 -0.1724  0.0221
22215W        W42495   4.417  15.964  13.721 -0.1280 -0.4323  0.0183
22216W        W42496  17.863   9.919   3.469  0.1540 -0.0784  0.1785
22217W        W42497   2.398   3.284   2.063  0.1079  0.0860 -0.0517
22218W        W42498  12.989  13.976   0.340  0.1062  0.0476  0.0045
22219W        W42499  14.082  13.206  15.353 -0.0058  0.2238  0.1002
22220W        W42500   6.435   4.875  11.949 -0.0514  0.0364  0.1757
22221W        W42501  16.959   6.917  12.344 -0.4277 -0.1949  0.1138
22222W        W42502  12.651   6.642  14.859 -0.1586 -0.2662 -0.3128
22223W        W42503   9.440  15.385  12.552  0.1158  0.3462  0.0095
22224W        W42504   4.073   4.117  14.332  0.1877  0.0092  0.1373
22225W        W42505  17.516   9.044  12.201  0.3468  0.0594 -0.1071
22226W        W42506  17.864   6.750   2.754 -0.0901 -0.3881  0.2769
22227W        W42507   4.967   7.404  11.681 -0.1413 -0.2415  0.0828
22228W        W42508  12.206  15.860  13.478  0.0491 -0.1614 -0.0772
22229W        W42509   7.720   2.522  15.714 -0.2366  0.0836  0.0446
22230W        W42510   9.421  14.132  15.259  0.1254  0.2544  0.1265
22231W        W42511  12.018  16.509   4.678 -0.1375 -0.0707 -0.0705
22232W        W42512  16.186  17.957   3.120  0.0760  0.2559 -0.3650
22233W        W42513  17.982   8.994  11.369  0.1498 -0.2497  0.0418
22234W        W42514   7.857   2.486   3.324 -0.0548 -0.1122 -0.1536
22235W        W42515   3.941  13.020  10.936 -0.0454  0.1235  0.1684
22236W        W42516   2.481   7.683  13.167  0.0360 -0.2515 -0.1694
22237W        W42517  16.179   1.975  12.021 -0.0603 -0.0171 -0.3065
22238W        W42518  15.339  13.417   2.228 -0.2948  0.0342 -0.0817
22239W        W42519  14.311   4.259  13.257 -0.3200  0.0149  0.1137
22240W        W42520  16.454   4.521  14.966  0.2250 -0.0972  0.2029
22241W        W42521   4.599   7.914   4.114 -0.0804  0.0082 -0.1648
22242W        W42522   6.751  16.682  14.743  0.3291  0.1973 -0.3703
22243W        W42523   2.362   3.662   3.038 -0.0175 -0.0244  0.0251
22244W        W42524  13.462   6.233   4.196  0.0928 -0.0555 -0.2015
22245W        W42525  13.868   0.941  14.401 -0.3764  0.2331  0.0985
22246W        W42526  10.513  18.174  15.450 -0.0335  0.0149 -0.2153
22247W        W42527  15.658   9.438  13.028 -0.0309 -0.1361 -0.2030
22248W        W42528  15.344  17.625  11.659  0.2512 -0.1259 -0.1403
22249W        W42529   7.080  10.916  13.820 -0.3103  0.2901  0.0829
22250W        W42530  10.332  11.442  12.726 -0.1300  0.1678  0.0213
22251W        W42531  11.963  10.401   5.771 -0.1854 -0.2243 -0.0609
22252W        W42532  18.140   9.104   0.553 -0.1995  0.0356 -0.1255
22253W        W42533  15.362   3.323   0.230  0.0575  0.3513 -0.0932
22254W        W42534  14.663   1.545   2.365  0.0749  0.2084 -0.2451
22255W        W42535  14.509   8.455  12.691  0.1957 -0.0387  0.4153
22256W        W42536  12.552   7.514  12.443 -0.2206  0.0903 -0.0025
22257W        W42537  15.679   0.860   1.996  0.0406 -0.1543  0.1729
22258W        W42538  11.839   0.654  11.760  0.4001  0.0862  0.3192
22259W        W42539   0.176  10.098  15.298  0.0613  0.0024 -0.3248
22260W        W42540   9.950  11.723  11.845 -0.1205  0.2250  0.1173
22261W        W42541   2.546   4.750   2.285  0.0979 -0.0146  0.0863
22262W        W42542   6.139  16.728  15.637 -0.1733 -0.1950 -0.3545
22263W        W42543   4.110  16.447  12.635 -0.0667  0.1244 -0.0397
22264W        W42544   4.140  12.334  10.873  0.0864  0.3476  0.0608
22265W        W42545  14.437   1.598   1.549  0.5221 -0.1511 -0.1343
22266W        W42546  15.857   1.993   1.817  0.0542 -0.0823 -0.0147
22267W        W42547  12.431  15.158   0.320  0.6682 -0.0781  0.1452
22268W        W42548   7.578  18.038  14.193  0.0105  0.2156 -0.1660
22269W        W42549   5.308  15.865  11.495  0.1335 -0.1104  0.4936
22270W        W42550  10.640  12.999   2.126  0.1363  0.2290 -0.2494
22271W        W42551   3.054  13.023  13.232 -0.0317 -0.2844 -0.0717
22272W        W42552   5.578  10.333  11.878  0.0577  0.0478 -0.1159
22273W        W42553   3.691   5.762  14.882  0.4732 -0.0944 -0.0564
22274W        W42554   8.315   9.735  14.496  0.0310  0.0379  0.1698
22275W        W42555   8.842  17.021   2.099 -0.0834 -0.0708 -0.0898
22276W        W42556   6.528   6.009  12.215 -0.2953 -0.2538 -0.0316
22277W        W42557   8.460  13.668   1.666  0.0423 -0.1449 -0.1547
22278W        W42558   7.626   9.902   0.854  0.0420  0.0071 -0.3647
22279W        W42559  11.728   6.813   3.000  0.1276  0.0278 -0.1176
22280W        W42560   1.495  13.486  14.451  0.1923  0.1418  0.1683
22281W        W42561   7.628  18.009   1.606 -0.1319 -0.1194 -0.3992
22282W        W42562  12.378  14.184  15.464 -0.2497 -0.1014  0.0810
22283W        W42563  10.990   7.194  15.526  0.0740 -0.1664  0.1304
22284W        W42564   0.235  13.944  13.770  0.0192 -0.1234  0.2288
22285W        W42565   1.408   7.457   1.120 -0.0149  0.1152 -0.0866
22286W        W42566   3.387   7.794  12.588 -0.0489  0.1402 -0.2290
22287W        W42567   0.981  17.480  12.067  0.0920 -0.0726  0.0988
22288W        W42568   8.328   4.369  11.957  0.4353  0.1383 -0.2466
22289W        W42569   7.078   5.757  13.841  0.1867  0.0698  0.3859
22290W        W42570   0.506  13.751  15.402  0.1158  0.1543  0.2603
22291W        W42571   0.434   3.209   3.717 -0.2176 -0.0843  0.0257
22292W        W42572   5.331   5.255   2.646 -0.1113 -0.0199 -0.0413
22293W        W42573   5.594   8.400  12.697 -0.2258  0.2048 -0.1102
22294W        W42574  11.972  13.743   3.423  0.0325  0.2832  0.0469
22295W        W42575  17.126   5.675  15.215 -0.1075 -0.0947  0.0768
22296W        W42576   9.570   3.696   4.174  0.1257  0.0170 -0.1316
22297W        W42577   8.772   6.488  14.795  0.0805 -0.3118 -0.1303
22298W        W42578   8.444   9.994  14.059  0.1120 -0.2546  0.0426
22299W        W42579   8.115  15.338  14.224 -0.0363  0.1381 -0.0124
22300W        W42580  12.172  16.474   4.167  0.1637  0.1544 -0.1512
22301W        W42581  11.048  13.758   2.083 -0.0552 -0.0785  0.0055
22302W        W42582  11.197   8.076  11.813  0.0155 -0.0735  0.0941
22303W        W42583  14.652  12.415  13.029 -0.1576 -0.1683 -0.0947
22304W        W42584  15.249   5.936  11.417 -0.0887 -0.2914 -0.2182
22305W        W42585  14.619   2.816  15.695  0.1178  0.0249 -0.0878
22306W        W42586  16.370  11.694   1.463 -0.1298  0.1068  0.3717
22307W        W42587   2.800  16.472  13.196  0.0864  0.0004 -0.1401
22308W        W42588  17.041   2.659   2.391  0.0691 -0.1222 -0.2907
22309W        W42589  14.204   3.200  11.156 -0.1641  0.3178 -0.1012
22310W        W42590  10.702   5.303   1.511  0.0334  0.0639  0.0277
22311W        W42591   8.728  11.273   2.048 -0.0767  0.0724  0.0927
22312W        W42592   1.752  13.706   3.879 -0.2053 -0.4945 -0.0732
22313W        W42593  12.325  12.274  12.332  0.1238 -0.2306  0.2487
22314W        W42594   7.090  12.125  13.492  0.1282  0.0026 -0.2552
22315W        W42595  16.766   5.997  12.424  0.1088  0.2064 -0.1972
22316W        W42596   2.806   1.235   2.428 -0.3234 -0.0273  0.2513
22317W        W42597  16.597  15.972   2.806 -0.3517 -0.0296 -0.1341
22318W        W42598   9.194  13.799   0.171  0.2697 -0.2664 -0.1227
22319W        W42599   9.467  10.590   3.797 -0.0636  0.0434 -0.3294
22320W        W42600  15.553   5.276   3.642 -0.0364 -0.1334  0.1123
22321W        W42601  16.630  15.455  13.144 -0.1836 -0.2019  0.0105
22322W        W42602   3.617  12.739   3.348 -0.0126  0.2842 -0.0263
22323W        W42603   4.806  17.125  11.535  0.2849  0.1094  0.0822
22324W        W42604   4.892   0.415   0.855 -0.3560 -0.3564 -0.0917
22325W        W42605  15.897   7.121   2.484 -0.0031  0.0719  0.0038
22326W        W42606  14.904  12.363  12.186  0.2011  0.0220  0.1392
22327W        W42607  10.704   2.765  13.435  0.0913 -0.1335  0.1749
22328W        W42608   9.631   4.054  12.152 -0.1732  0.0044 -0.0875
22329W        W42609   3.908   6.656   4.453 -0.0154  0.1504  0.2304
22330W        W42610  11.953  12.802   1.555 -0.2631  0.2209  0.1658
22331W        W42611   8.337  17.769   4.015 -0.4871  0.0778  0.1086
22332W        W42612  11.437   7.757   3.559 -0.2344 -0.0786  0.0332
22333W        W42613  12.883  15.138   3.458  0.1173 -0.0288  0.2904
22334W        W42614  13.585  12.597  14.250  0.2110 -0.1213  0.1141
22335W        W42615   9.720   6.130   0.755 -0.1166 -0.2667 -0.1734
22336W        W42616  17.440   8.288  15.394 -0.0542  0.1770  0.2291
22337W        W42617   3.051  17.276  11.236  0.3039  0.2955  0.2617
22338W        W42618   1.803   3.760   2.457 -0.0915 -0.2335 -0.0926
22339W        W42619   4.925  15.104  14.574  0.2149  0.1663  0.1762
22340W        W42620   9.453  18.041   1.514  0.3886 -0.2550  0.1781
22341W        W42621  11.765   6.045  14.282 -0.1943 -0.2552  0.2934
22342W        W42622   4.934   7.353  13.602  0.1063  0.0191 -0.1388
22343W        W42623  10.342  11.351   2.698  0.1504 -0.0716 -0.0913
22344W        W42624   0.073   9.901  10.889 -0.2188 -0.2323 -0.0453
22345W        W42625   9.530   5.214  13.495  0.0151 -0.2523  0.2252
22346W        W42626  12.440   9.215  15.569 -0.0822  0.1549 -0.0676
22347W        W42627  11.725  12.010   3.019  0.0999  0.1983 -0.1531
22348W        W42628  15.450   8.516  11.959  0.1223  0.1740 -0.0192
22349W        W42629  13.045  15.062  15.542  0.0290  0.0011  0.0537
22350W        W42630  14.159  18.288  14.111  0.1921  0.1530  0.1357
22351W        W42631   5.994   7.933   3.379  0.1122 -0.0110 -0.0256
22352W        W42632  18.324   2.433  11.155  0.0688 -0.3604  0.1473
22353W        W42633  16.087  12.950  11.887 -0.1371  0.0993 -0.2702
22354W        W42634  17.069   1.999  15.678  0.0291 -0.0418 -0.3330
22355W        W42635  10.126   7.250  12.096  0.0865  0.1714  0.1302
22356W        W42636  17.068  16.415   2.361  0.2089 -0.2889 -0.0904
22357W        W42637   9.017  11.224  11.786 -0.3672  0.0088  0.0966
22358W        W42638   2.322   4.518  13.322  0.0960 -0.0015 -0.2930
22359W        W42639   1.946   8.710  10.695  0.0669 -0.0937 -0.2421
22360W        W42640   4.098  12.373  13.820 -0.1710 -0.1333  0.1384
22361W        W42641   7.655  10.051  12.023  0.5545  0.0363  0.1212
22362W        W42642   7.205  17.859   0.925 -0.2437 -0.0424  0.0361
22363W        W42643  13.949   8.206  15.251 -0.1773 -0.1060  0.2269
22364W        W42644  15.311   2.413  12.389 -0.2000 -0.0786 -0.1513
22365W        W42645   0.596   1.800   2.776  0.0883 -0.2430  0.0602
22366W        W42646   6.351  10.705  15.400  0.0715  0.0947 -0.0345
22367W        W42647  14.092   8.773  12.898  0.0163 -0.0131 -0.1560
22368W        W42648  10.178  12.569   0.546  0.1634 -0.1155  0.0465
22369W        W42649  16.515   7.938  15.666 -0.0873  0.0671 -0.0162
22370W        W42650   5.804  16.674   3.903  0.1229 -0.0195 -0.1443
22371W        W42651  17.907   9.509   3.161 -0.0281 -0.0664 -0.0400
22372W        W42652  13.954   3.623  14.816  0.2179 -0.1403  0.4104
22373W        W42653   2.938  15.264   0.341  0.1852 -0.3670 -0.1844
22374W        W42654   8.705  11.325  12.212  0.1487 -0.0493 -0.0355
22375W        W42655   4.368   2.829  13.376  0.0013  0.0131 -0.2386
22376W        W42656   0.321   6.716   4.240 -0.0353  0.0328  0.0937
22377W        W42657  10.741   5.246   0.162  0.0171 -0.3227 -0.1512
22378W        W42658  17.553   6.189   5.279  0.1187 -0.3698  0.2039
22379W        W42659  12.411   4.181  13.996  0.0793  0.0940  0.3657
22380W        W42660   6.802   5.034  14.959  0.1062  0.1238 -0.1659
22381W        W42661  10.463   8.162  14.607  0.2929  0.3691  0.1009
22382W        W42662   4.544  15.443  12.063 -0.0258 -0.1179  0.0956
22383W        W42663  17.857   5.628   2.665  0.2960  0.0712 -0.0991
22384W        W42664   1.315   7.119   4.103 -0.0633  0.3171 -0.0112
22385W        W42665   2.092   4.126   0.434  0.0027  0.1145 -0.0657
22386W        W42666   2.735   2.997   2.544 -0.0834  0.0053  0.5837
22387W        W42667  14.864  12.471   1.801  0.0232 -0.3339  0.0565
22388W        W42668  16.596   5.071  15.684 -0.0250  0.0352  0.1660
22389W        W42669  16.081   2.126  14.296  0.0583  0.0839  0.0388
22390W        W42670  10.205   0.117   1.184  0.1734  0.1331 -0.4125
22391W        W42671  18.207   4.806   4.475 -0.1795  0.0607 -0.1969
22392W        W42672  17.714  15.521   2.190 -0.1490 -0.0024  0.0138
22393W        W42673   2.821  11.939   4.305 -0.0131  0.0042 -0.0879
22394W        W42674   4.927  10.357   2.892  0.1188 -0.3281  0.2992
22395W        W42675   9.247   1.319   4.045  0.2380  0.0481  0.3091
22396W        W42676  14.690   5.768   2.827 -0.1891 -0.1757 -0.1975
22397W        W42677   9.193   1.397  13.024 -0.1291  0.1199  0.1212
22398W        W42678   0.467   1.102  13.441  0.3115  0.1014  0.0307
22399W        W42679  16.581   7.641   1.789  0.1969 -0.2425 -0.2289
22400W        W42680  10.493   5.644  14.715 -0.2306  0.3709  0.1660
22401W        W42681  12.064  12.248   4.991 -0.1027 -0.0447  0.0299
22402W        W42682   0.981  15.746  12.614 -0.3963  0.0592 -0.0394
22403W        W42683   5.549  16.481   1.198  0.1584  0.0684 -0.1568
22404W        W42684  10.300   2.037  12.106  0.0687  0.3114 -0.2262
22405W        W42685  12.708   9.032  12.895  0.0025  0.2322  0.0816
22406W        W42686   2.378   2.812  15.429 -0.1760  0.1086 -0.0421
22407W        W42687   2.992   6.320  15.849 -0.0453  0.3241 -0.0045
22408W        W42688  11.445   8.871   2.877  0.0620 -0.0729 -0.0294
22409W        W42689  13.673   0.315  12.825  0.0765 -0.0974  0.1464
22410W        W42690  12.922   9.225   0.994 -0.0268  0.0807 -0.1180
22411W        W42691   1.416   6.200   3.722 -0.2960 -0.4916 -0.4055
22412W        W42692  16.794   6.046   4.129  0.1641  0.0170  0.0775
22413W        W42693  14.672  11.414  12.094  0.1596 -0.0168 -0.0865
22414W        W42694  16.985  17.536   3.762  0.2007  0.1143  0.3448
22415W        W42695   4.759   3.542  14.222 -0.0529  0.0827 -0.2301
22416W        W42696   7.572  17.416   4.111  0.1439  0.0971 -0.0310
22417W        W42697   1.778  12.686   1.422  0.0832  0.1148 -0.0579
22418W        W42698   8.066   9.507  12.800 -0.2270  0.3347  0.1599
22419W        W42699  15.101   0.581  11.540 -0.3674  0.1655 -0.1186
22420W        W42700   7.925  11.544   2.793 -0.1169 -0.1695  0.1165
22421W        W42701   0.083   7.205   0.966 -0.0851 -0.0340  0.1185
22422W        W42702   5.323   1.571   0.401  0.2631 -0.3561 -0.2563
22423W        W42703   4.613  14.140  13.422 -0.0067  0.0384 -0.1063
22424W        W42704   2.991   9.468  15.196 -0.0613 -0.0484 -0.0991
22425W        W42705  12.499   4.969   1.771 -0.0586  0.3015 -0.2572
22426W        W42706  10.492   8.666  14.232  0.1488  0.0708  0.1401
22427W        W42707  16.711   6.184   0.607 -0.0424 -0.1013  0.0390
22428W        W42708  13.430   8.018   0.707 -0.1001  0.2222 -0.1498
22429W        W42709   9.232   0.872  14.615  0.2044  0.0688 -0.1863
22430W        W42710   1.840  16.994   1.570 -0.2284  0.0399  0.0629
22431W        W42711  16.786  16.704  11.554  0.2105  0.2157 -0.1563
22432W        W42712   0.400  12.124   2.201 -0.1596 -0.2297 -0.0886
22433W        W42713   7.261  13.864  12.292 -0.2433  0.2729 -0.0984
22434W        W42714   3.021   1.040  14.692  0.0054  0.3026  0.2693
22435W        W42715  14.458  10.290  12.536  0.0061 -0.2689  0.3515
22436W        W42716   0.047   6.569  15.854  0.1553  0.0119  0.1289
22437W        W42717   1.486   7.994   1.152  0.1739 -0.0364  0.0696
22438W        W42718  13.036  10.055   0.320  0.0784  0.0756 -0.1666
22439W        W42719   8.509  12.105   0.558 -0.0472 -0.3774 -0.2276
22440W        W42720  11.911  14.248  12.799 -0.0196 -0.2167 -0.1289
22441W        W42721  17.184   0.772   0.494 -0.2551 -0.1841  0.2255
22442W        W42722   4.003   8.873  14.286 -0.1918  0.0443  0.0990
22443W        W42723  15.571   9.923  13.184  0.1517  0.0730  0.0955
22444W        W42724  17.524  10.286  12.847  0.0360  0.1435 -0.0796
22445W        W42725  16.638   4.292   0.645  0.2654  0.0243 -0.2008
22446W        W42726  17.696   6.265  13.671  0.0540 -0.0415  0.1597
22447W        W42727   1.416  16.193  15.917 -0.0553 -0.2372 -0.2606
22448W        W42728   3.454  11.675  12.058  0.1757  0.3487 -0.0711
22449W        W42729   0.862   1.960  13.778 -0.0078  0.0169  0.0197
22450W        W42730   4.866  10.645   0.389  0.1111 -0.3409 -0.2211
22451W        W42731   7.938  13.351   0.560 -0.1834 -0.2620  0.4515
22452W        W42732  13.411  16.638  15.050  0.2271  0.1291  0.0177
22453W        W42733   7.567   0.618  11.548 -0.3181  0.1149  0.1422
22454W        W42734   1.555   8.638   0.020  0.1344 -0.0484 -0.1272
22455W        W42735  16.937  11.066   3.747 -0.0716  0.1511  0.2431
22456W        W42736   5.758   6.322  13.771  0.2055  0.2094 -0.1700
22457W        W42737  11.327   2.295   0.037 -0.1189 -0.0548  0.0771
22458W        W42738   6.071   5.627  15.901  0.0849 -0.0169 -0.0650
22459W        W42739  16.641   8.942   1.062  0.0951 -0.2374  0.1955
22460W        W42740   8.686  12.517  12.600  0.1915  0.2026 -0.1778
22461W        W42741  14.133  13.512   0.280  0.2069 -0.2176  0.2562
22462W        W42742  12.895  12.669   3.580  0.0200 -0.1274 -0.0779
22463W        W42743  10.262  15.274  14.707 -0.0216  0.5003  0.1150
22464W        W42744  10.961  11.194   4.103 -0.0974 -0.1091  0.3537
22465W        W42745   1.595   9.197   1.258 -0.1067  0.0960 -0.1025
22466W        W42746   1.436   0.425   4.264 -0.2082 -0.4312  0.2880
22467W        W42747  11.948   5.017  13.968  0.1895  0.2444  0.1327
22468W        W42748  15.134  14.056  13.450 -0.1998  0.1171 -0.1155
22469W        W42749  14.373   7.859  15.190 -0.4374 -0.1697  0.0298
22470W        W42750   8.964  15.610   0.647 -0.0473  0.2925 -0.0134
22471W        W42751  12.007   0.145   0.886  0.0879  0.0760 -0.5346
22472W        W42752  13.403   9.345  15.581 -0.0618 -0.0880  0.1947
22473W        W42753   3.342  12.638   1.336  0.2019  0.1806  0.3454
22474W        W42754  15.718   9.474   0.668  0.3931  0.0845 -0.0735
22475W        W42755   1.013   3.013   0.722  0.2670 -0.5498  0.0685
22476W        W42756   9.620  13.386  12.608 -0.0076  0.1132  0.0667
22477W        W42757  12.397   1.305  13.182 -0.0717  0.0838 -0.0579
22478W        W42758   8.030  11.030  11.847 -0.1245 -0.2716  0.1479
22479W        W42759   6.276   9.898   1.647 -0.0532 -0.1288 -0.0650
22480W        W42760  14.617  16.798  11.218  0.0369 -0.1380 -0.1390
22481W        W42761  12.558   4.211   0.431  0.1360 -0.2380  0.0471
22482W        W42762  16.954   9.690   2.088  0.4161 -0.0176  0.2729
22483W        W42763   0.549   6.739  14.129 -0.1589 -0.0984  0.0030
22484W        W42764  11.489  15.097   1.896  0.1882  0.1703  0.0449
22485W        W42765  12.190  11.490  14.023 -0.0731 -0.0410 -0.1173
22486W        W42766   5.960  17.627  13.596  0.0368  0.1644 -0.0392
22487W        W42767   7.029   4.251   3.305 -0.2464 -0.1113  0.0039
22488W        W42768   9.632  11.204  14.317 -0.0903 -0.0750  0.3315
22489W        W42769   7.914   8.197   1.735  0.2166 -0.0382  0.4139
22490W        W42770  18.115  14.965  12.372 -0.0625 -0.0806  0.0758
22491W        W42771  13.447   8.421   0.152  0.0972  0.2982 -0.1282
22492W        W42772   2.032  17.243   0.283 -0.0548 -0.1921  0.1464
22493W        W42773   3.757   5.618   0.753  0.0107  0.0659 -0.2802
22494W        W42774  17.988  13.700  15.583 -0.4004  0.1052 -0.0224
22495W        W42775   4.216  16.481   4.045 -0.2350  0.2328 -0.0346
22496W        W42776  14.959   0.444   3.986 -0.2661  0.0113  0.1031
22497W        W42777   7.144   8.270   3.406 -0.2261 -0.1468 -0.1647
22498W        W42778   5.674  12.458  11.878  0.1861  0.1814 -0.0105
22499W        W42779   8.806   2.377   3.673 -0.1333 -0.1827  0.4313
22500W        W42780  14.716   9.801  15.251 -0.1646 -0.1696  0.2156
22501W        W42781   3.621  15.418   1.736  0.1022 -0.0785  0.0488
22502W        W42782  10.172   0.695  11.841  0.2252  0.0660 -0.0898
22503W        W42783  10.485   3.343  14.055  0.2857 -0.1561 -0.0327
22504W        W42784  17.410   5.607  14.495  0.2618 -0.0731  0.0457
22505W        W42785   1.011  12.513   3.661  0.1630 -0.1063  0.0913
22506W        W42786   1.245  11.838   2.656 -0.2492 -0.0064 -0.1944
22507W        W42787   5.101  11.603  15.866 -0.1059 -0.1436 -0.1666
22508W        W42788   9.599   6.627   4.436  0.1106 -0.2047  0.1156
22509W        W42789   9.517  15.902   0.341 -0.1089 -0.3090  0.0096
22510W        W42790   9.468  16.969  14.914  0.0608 -0.0367 -0.2286
22511W        W42791  13.629  13.364   3.124  0.1779  0.0811  0.1276
22512W        W42792  11.792  11.094   2.047  0.4864 -0.3432 -0.2154
22513W        W42793   2.397  15.783  12.533 -0.1476 -0.1219 -0.1521
22514W        W42794   2.848   9.454   5.297  0.1221 -0.2580  0.0318
22515W        W42795   2.583  15.731   3.992 -0.0843 -0.3060 -0.0802
22516W        W42796   2.901   2.754   2.928  0.0749 -0.0587 -0.0118
22517W        W42797  17.566  12.466  12.498 -0.0703  0.1963 -0.0125
22518W        W42798   2.368   6.733   4.129  0.2574 -0.0281 -0.0880
22519W        W42799   0.026  17.731  12.080 -0.3500 -0.0348 -0.0385
22520W        W42800  15.652   3.873   3.135  0.0499 -0.1803 -0.2990
22521W        W42801   2.158  17.081   1.106  0.2437  0.1948  0.1932
22522W        W42802   0.487  14.268  13.470 -0.1754  0.2093 -0.0425
22523W        W42803   9.214  15.793   3.882 -0.0683 -0.0883 -0.1544
22524W        W42804   1.889   9.757   1.576 -0.1616 -0.0510 -0.2246
22525W        W42805  12.124   8.461   3.232  0.0625  0.1711 -0.2504
22526W        W42806   2.469   4.638  15.572 -0.0430  0.2495  0.0708
22527W        W42807   4.534   0.360   4.123  0.2239 -0.3799  0.2933
22528W        W42808   3.455   1.864  12.772  0.3363  0.3106 -0.1976
22529W        W42809   6.274   2.284  12.889 -0.0075 -0.0225  0.1685
22530W        W42810   8.499   0.678  13.749  0.2497 -0.1260 -0.1758
22531W        W42811   4.684  15.340  12.538 -0.1545 -0.1527  0.2747
22532W        W42812  16.069   3.409  14.129  0.0183  0.0069  0.3770
22533W        W42813   7.775   6.703  12.637  0.1501 -0.1234  0.0325
22534W        W42814   6.288   3.158  13.087  0.1763  0.0563 -0.2460
22535W        W42815   5.406  16.716  14.204 -0.1012 -0.0064 -0.2135
22536W        W42816  12.662   4.482  12.041 -0.3696 -0.0604  0.2417
22537W        W42817   9.180  10.711  13.280  0.0892  0.0332  0.1752
22538W        W42818   3.520   4.073   3.609  0.1667  0.2838 -0.2560
22539W        W42819   2.216   9.942  15.031 -0.1271 -0.2240 -0.2063
22540W        W42820  12.579  16.612   2.570 -0.3423  0.1114  0.3433
22541W        W42821   2.277   8.010  14.108 -0.0982 -0.2103 -0.1918
22542W        W42822   7.791  13.125   1.030 -0.2364 -0.1730  0.2426
22543W        W42823  10.044  16.861   1.900  0.1572 -0.3420  0.1804
22544W        W42824  11.315   7.695   4.619 -0.1189  0.0860  0.1273
22545W        W42825  15.918   3.139   1.399  0.0006  0.1728 -0.2831
22546W        W42826   2.878  13.672  15.887  0.1042  0.0365 -0.1989
22547W        W42827  13.546  13.262  14.656  0.2455 -0.0160  0.2493
22548W        W42828   0.904   0.029   4.039 -0.1240  0.0576 -0.0452
22549W        W42829  17.074  14.252  12.878  0.1445  0.1669 -0.1036
22550W        W42830   4.193   4.622  13.387  0.0337 -0.0634 -0.0834
22551W        W42831   7.180  12.388   1.639  0.1418  0.0354 -0.1645
22552W        W42832   7.037  14.718   1.888 -0.0822 -0.0810 -0.0944
22553W        W42833   6.250  15.524   2.239 -0.0692  0.3549  0.0686
22554W        W42834   7.711  12.624   0.294  0.3121 -0.1717 -0.0460
22555W        W42835  10.629   6.927   3.254 -0.1664  0.1242 -0.1850
22556W        W42836  11.670  10.141   4.582  0.2388 -0.0598 -0.0781
22557W        W42837   2.290  13.972  13.012 -0.1003 -0.1811 -0.2675
22558W        W42838  15.427  12.945   2.357 -0.0031  0.0565  0.1437
22559W        W42839  10.938   3.473  14.757  0.2548  0.2108 -0.2059
22560W        W42840   9.601   4.680   1.834 -0.3624  0.1232  0.1712
22561W        W42841   6.344  11.680   3.165 -0.0281  0.0631  0.3029
22562W        W42842  13.298  18.116  15.378 -0.2826 -0.0859  0.1907
22563W        W42843   4.890  13.931   2.282  0.1844 -0.0539 -0.2521
22564W        W42844   8.102   8.611   4.406  0.2150 -0.1843  0.1996
22565W        W42845  14.159  15.557   2.084 -0.2122  0.1438 -0.0915
22566W        W42846   8.297  15.474  12.667 -0.2675  0.0652 -0.0477
22567W        W42847   5.287   8.672   3.917 -0.0076 -0.2803 -0.3515
22568W        W42848  17.171   8.744  15.145  0.2983 -0.1267 -0.1744
22569W        W42849   1.955   2.891   2.888  0.0557 -0.0623  0.1394
22570W        W42850  13.218  16.520  12.130  0.0594 -0.0600  0.0193
22571W        W42851   6.383   9.031  14.671 -0.0786 -0.1167 -0.0696
22572W        W42852   7.768  13.104  13.341  0.1749 -0.1695  0.1954
22573W        W42853  12.264  18.219  12.019 -0.0620  0.0571  0.0591
22574W        W42854  12.605  12.940  15.085  0.0791  0.1216  0.1730
22575W        W42855   0.821  10.880  13.812 -0.0567 -0.2556  0.1395
22576W        W42856  11.718  13.579   2.931 -0.0768 -0.3731  0.2319
22577W        W42857   1.688   3.030   3.420 -0.0072  0.0405 -0.4003
22578W        W42858   3.235  11.840   1.544  0.1084  0.0689  0.0184
22579W        W42859   4.964   2.499   3.142 -0.3952  0.0637 -0.3945
22580W        W42860   9.666  10.293  15.909 -0.0066  0.0903 -0.0533
22581W        W42861  18.252  13.631  13.941 -0.1572  0.0963  0.1174
22582W        W42862   3.770   7.804   2.821  0.0164 -0.2009  0.2067
22583W        W42863  11.275  10.057  12.529  0.0459  0.0380  0.1516
22584W        W42864   8.561  13.795   2.909  0.0867 -0.0864  0.1546
22585W        W42865   7.731  14.226   1.937  0.0743  0.2108  0.1856
22586W        W42866   2.449  12.062  15.229  0.1936 -0.3069 -0.0004
22587W        W42867   9.132   9.479  13.767  0.1986 -0.0738  0.0631
22588W        W42868  11.757   3.742   3.656 -0.0625 -0.0350 -0.0029
22589W        W42869  15.020  13.850   0.427  0.0671  0.0728  0.0197
22590W        W42870   2.814   6.496  14.871  0.1486  0.1907 -0.0486
22591W        W42871   3.694  17.809   4.117  0.1776 -0.3433 -0.2402
22592W        W42872   2.204  15.384   2.854 -0.1162  0.0070  0.3231
22593W        W42873  14.078   5.608   3.591 -0.0555  0.1118  0.2299
22594W        W42874   0.849   4.851   3.512  0.0038 -0.0840 -0.4066
22595W        W42875  17.395  10.715   2.918 -0.2444  0.2217 -0.0724
22596W        W42876   1.360  13.382  13.876  0.0164 -0.1249  0.0826
22597W        W42877   1.135   2.645   5.914 -0.0639  0.0724 -0.0626
22598W        W42878  13.863  10.116  15.551 -0.1788  0.0385 -0.0830
22599W        W42879  13.852  12.417  14.732 -0.0758  0.1742  0.1609
22600W        W42880   0.684   4.040  15.448  0.1883  0.0635 -0.3177
22601W        W42881  12.266   4.695  15.603 -0.1858  0.1039  0.1242
22602W        W42882  14.621   5.315  13.823 -0.0827 -0.2559 -0.2801
22603W        W42883   8.432  11.951   0.001  0.0064  0.2551 -0.0062
22604W        W42884  10.482  11.006  12.005 -0.0083 -0.0098 -0.0909
22605W        W42885   1.291  12.560  13.639  0.0754  0.0075 -0.1775
22606W        W42886  10.084   4.316  12.260  0.2089  0.1509  0.0665
22607W        W42887  16.778   4.439   1.671 -0.0130  0.1433  0.0771
22608W        W42888   4.874   7.401   0.943  0.2929  0.0217 -0.4049
22609W        W42889   2.482  10.639  13.304 -0.1786  0.0056  0.0534
22610W        W42890  10.489   5.227   2.465 -0.0239  0.1220 -0.2448
22611W        W42891  13.035  13.077   2.244  0.0604 -0.0465 -0.0017
22612W        W42892   7.429  10.885   4.601 -0.4280 -0.2923  0.1620
22613W        W42893  12.756   3.415   1.606  0.2588 -0.3009 -0.0649
22614W        W42894   9.502   6.598   0.708 -0.0870 -0.0880 -0.0635
22615W        W42895  18.279   1.832  15.402  0.0481  0.0620 -0.2145
22616W        W42896  12.548  16.110   3.207 -0.0399  0.0384  0.1211
22617W        W42897  17.626   1.028  12.784  0.1624 -0.0373 -0.0031
22618W        W42898   9.969   9.892  11.552 -0.0938  0.1174 -0.2355
22619W        W42899  16.493   8.058  14.300  0.0295  0.0629 -0.1182
22620W        W42900   4.887   1.523   0.140  0.1459 -0.0077  0.0973
22621W        W42901  17.766  17.359  15.362 -0.0748 -0.3193 -0.1513
22622W        W42902  11.469   1.999   3.537 -0.0784 -0.1913 -0.1941
22623W        W42903   4.911   3.240   3.764 -0.0867 -0.2745  0.0276
22624W        W42904   1.027   2.157   1.313  0.4691  0.1877  0.2951
22625W        W42905   8.855   3.876  11.621  0.1751 -0.1918  0.1958
22626W        W42906  16.847  17.625  11.662 -0.1071  0.0207  0.0609
22627W        W42907   8.833  11.508  15.188 -0.1739  0.3584  0.0335
22628W        W42908  14.099   0.257   1.582  0.0569  0.0456  0.1457
22629W        W42909   4.771  14.453  12.625  0.0661  0.2201  0.0526
22630W        W42910  17.385   4.042  12.455  0.3174 -0.1254  0.0209
22631W        W42911   1.730   7.295   2.881 -0.1071 -0.2678  0.2942
22632W        W42912  13.404  13.520   4.039  0.2856 -0.0326  0.1783
22633W        W42913   4.750  11.024   2.213  0.1268 -0.2578  0.2031
22634W        W42914   4.445  16.995   3.362 -0.3073 -0.0188  0.1842
22635W        W42915  13.748  12.766   1.571 -0.0505 -0.2226  0.2158
22636W        W42916   8.718  13.612  14.914  0.1670 -0.2305 -0.1092
22637W        W42917  18.151  15.493  13.208  0.1157 -0.2274  0.1379
22638W        W42918  18.299  13.142   1.866 -0.2006 -0.2313 -0.0938
22639W        W42919   7.912   3.313   3.305 -0.2328  0.1109  0.1644
22640W        W42920   8.628   6.750   2.860 -0.2609  0.1992 -0.3191
22641W        W42921   9.390   9.036   0.011  0.1853  0.1727 -0.4582
22642W        W42922   2.210  18.048   4.313 -0.0501  0.2469  0.2141
22643W        W42923  15.914  14.129   1.150 -0.1933 -0.0554 -0.2302
22644W        W42924   7.699   7.110   0.930 -0.2010  0.0660  0.0137
22645W        W42925   1.485  18.012   4.887  0.1370 -0.1054  0.1229
22646W        W42926  16.131   2.017  13.806  0.2365  0.0877  0.4884
22647W        W42927   3.452  16.020   2.572 -0.1570  0.0819 -0.0344
22648W        W42928  11.247   5.762  13.391 -0.1109 -0.0331 -0.0776
22649W        W42929  12.690   4.030   4.757  0.1074  0.1462  0.1572
22650W        W42930   1.472   8.806   3.207  0.0095  0.1034  0.0108
22651W        W42931  10.411   3.482  11.874 -0.3632 -0.1711 -0.1437
22652W        W42932   2.506  11.858  15.781  0.0202  0.1014  0.0142
22653W        W42933   7.502  12.967   1.765  0.2480  0.2267 -0.3771
22654W        W42934   0.297   6.937   1.339 -0.0657 -0.1870 -0.0169
22655W        W42935   2.649   7.060  14.537  0.3004  0.0907 -0.3764
22656W        W42936   8.697   9.512  13.934  0.0779  0.2317  0.1211
22657W        W42937  15.774  10.134   0.528  0.1266 -0.0350  0.2177
22658W        W42938   1.677   4.099  12.205 -0.0271  0.1291 -0.1511
22659W        W42939  15.473  11.690  14.786 -0.1683 -0.2253 -0.1327
22660W        W42940  10.632  16.311   1.792  0.2130 -0.0077 -0.0139
22661W        W42941   0.414   4.300  15.920 -0.0987  0.0984  0.2320
22662W        W42942  10.228   4.352  12.751 -0.0061 -0.1155 -0.1478
22663W        W42943  13.996  12.670   2.048 -0.1029 -0.0806 -0.1714
22664W        W42944   0.392   7.174   4.419  0.2049  0.0295  0.1164
22665W        W42945   9.802  17.831   2.044 -0.3243 -0.1061  0.1348
22666W        W42946   9.173   7.536  15.772  0.0711  0.1393  0.0617
22667W        W42947  14.066   7.180   1.009 -0.0947  0.1421  0.0176
22668W        W42948   1.240   3.606   5.095  0.1797 -0.0992  0.1558
22669W        W42949   6.838  16.371  12.194  0.0800 -0.0606 -0.1109
22670W        W42950   1.412  17.517  14.401  0.0701 -0.2245  0.2951
22671W        W42951   6.789   1.333  15.018  0.4927  0.0666  0.0600
22672W        W42952   8.491   3.276  13.969  0.0007  0.1239  0.1959
22673W        W42953   0.784  15.621   2.226  0.0698 -0.0142 -0.0728
22674W        W42954   0.187   1.513  11.429 -0.1649 -0.0083 -0.1219
22675W        W42955   3.725   3.436   2.657  0.1135  0.0658  0.3691
22676W        W42956   7.105   4.331  10.700 -0.0212  0.2424 -0.0078
22677W        W42957  13.495  14.532   3.013 -0.0868 -0.2170 -0.1409
22678W        W42958   7.883   1.052   2.740  0.3164 -0.0616 -0.1539
22679W        W42959  10.218  12.516   1.228 -0.2661 -0.1857 -0.2626
22680W        W42960   9.789   8.529  13.247  0.2323  0.0588  0.2601
22681W        W42961   3.096  14.821   0.171  0.2007  0.0212  0.0849
22682W        W42962  16.914  18.024   3.754 -0.3378  0.0972  0.1492
22683W        W42963   4.279   8.838   4.744  0.0736  0.1112 -0.2701
22684W        W42964   8.221  14.838  11.714  0.0105 -0.1057  0.1452
22685W        W42965   5.578   1.010   2.195 -0.1435 -0.0611 -0.1856
22686W        W42966   9.250  13.117  13.607 -0.0539  0.2035  0.1094
22687W        W42967   0.836  12.414  15.112  0.2327 -0.2532  0.2116
22688W        W42968  18.101  15.737  11.709 -0.2342 -0.2135  0.0732
22689W        W42969  18.150  11.132   0.218  0.3026  0.0041 -0.0202
22690W        W42970   9.019   1.902   0.638 -0.0119  0.1045  0.0769
22691W        W42971   6.657  14.313  13.082 -0.1222 -0.0251  0.0562
22692W        W42972  13.776   1.662   0.090  0.0881  0.1391 -0.1811
22693W        W42973   1.695  13.464   2.697  0.0219  0.0131 -0.2145
22694W        W42974   0.813  13.286  13.628 -0.1151  0.1319  0.2677
22695W        W42975  13.685  18.323   0.175 -0.0248 -0.1261  0.1723
22696W        W42976  18.270   9.018   4.660  0.2208 -0.0152 -0.1446
22697W        W42977   0.143   4.254   3.659  0.4336  0.1756 -0.0457
22698W        W42978   5.059   1.916   0.605 -0.2267  0.0654 -0.0780
22699W        W42979   7.762  15.568  12.763  0.0208  0.3613 -0.0124
22700W        W42980   9.993  12.768   2.835  0.5706 -0.0759 -0.3726
22701W        W42981  13.101   5.809   4.056  0.1225  0.1580  0.1764
22702W        W42982   0.610  13.764   1.496 -0.0955  0.1889 -0.1097
22703W        W42983  18.309  10.315   3.139  0.0643  0.2229 -0.0077
22704W        W42984  16.177   5.914   2.668 -0.1052 -0.0872  0.2329
22705W        W42985  18.197  15.583   2.279 -0.2682 -0.0667 -0.0146
22706W        W42986   1.363  11.376  12.326  0.1819  0.1326  0.0342
22707W        W42987  17.683  13.128  14.748  0.1498 -0.0192 -0.0500
22708W        W42988   5.684  15.526  15.591  0.0905 -0.0908 -0.1673
22709W        W42989  17.266   2.884   4.551  0.1576  0.1828  0.1452
22710W        W42990   1.369   9.921   2.042  0.0976  0.1638 -0.2286
22711W        W42991  15.691   2.379   0.165 -0.0037 -0.1207  0.0070
22712W        W42992  16.171  12.607  12.438 -0.2277  0.1631 -0.0420
22713W        W42993  15.343   6.768  15.630 -0.5059 -0.0237  0.1848
22714W        W42994   4.573  17.504  12.379 -0.0913 -0.1477  0.0775
22715W        W42995   0.566  10.669  12.440  0.1871 -0.2979  0.0263
22716W        W42996   0.909  15.327  11.576  0.1616  0.1203  0.1327
22717W        W42997  13.460  14.051   0.448 -0.0921 -0.0700  0.1285
22718W        W42998  13.595  17.703   2.123 -0.0453  0.0824  0.0433
22719W        W42999   9.055   3.670   4.136  0.1027  0.0718  0.0997
22720W        W43000  11.265   2.877  14.063 -0.0429 -0.1743  0.3259
22721W        W43001   4.972   9.362  15.693  0.1208  0.1389  0.1460
22722W        W43002   7.443  14.956  12.145 -0.0436  0.0533  0.2834
22723W        W43003  16.376  11.027  15.707  0.2489 -0.0492 -0.0920
22724W        W43004   2.748   3.217   0.294  0.2177 -0.0798 -0.0608
22725W        W43005   2.533  17.097   2.134  0.0274  0.0241 -0.1845
22726W        W43006   2.870  10.960   2.361 -0.1555  0.2384  0.0186
22727W        W43007   5.149   0.132  15.568 -0.4060 -0.3248  0.0162
22728W        W43008   4.182  11.702   3.953  0.0454  0.1560 -0.0900
22729W        W43009  16.662  17.253  14.870  0.0813  0.0234  0.0144
22730W        W43010   5.707   6.948  14.521 -0.3506  0.1028 -0.1052
22731W        W43011  16.077   2.314  12.386 -0.0806  0.1597  0.1066
22732W        W43012   8.664  10.968   1.123  0.0139 -0.0786 -0.1741
22733W        W43013  12.228  15.310   2.199  0.1226  0.0495 -0.2339
22734W        W43014   0.030   1.321  13.672 -0.0754 -0.2134 -0.1334
22735W        W43015   8.800   2.369   2.950 -0.0591  0.0761 -0.2702
22736W        W43016  18.187  11.625  12.589 -0.2155  0.0939  0.0614
22737W        W43017  11.459  16.224  13.813  0.0897  0.1765  0.1529
22738W        W43018   2.398  14.303  13.577  0.2393  0.0378 -0.1348
22739W        W43019   1.139  13.265   0.200 -0.0762 -0.0706 -0.0594
22740W        W43020   8.319  17.983  14.866 -0.3738  0.0371 -0.1122
22741W        W43021   9.580   9.366   3.653  0.0828  0.0442  0.0445
22742W        W43022  10.400   3.910  12.693  0.0347 -0.1760 -0.0663
22743W        W43023   2.284  14.033   4.482  0.1433 -0.1128 -0.0301
22744W        W43024  10.195   7.359   0.753 -0.0444  0.0490  0.0024
22745W        W43025  11.370   8.055   3.117 -0.0871  0.2272 -0.0174
22746W        W43026  13.660   6.193  11.241 -0.1748  0.1015  0.0482
22747W        W43027   9.433   2.972   3.318 -0.0103 -0.2934 -0.2022
22748W        W43028   1.423   3.526  14.357  0.2325 -0.0493 -0.0315
22749W        W43029  12.032   0.461  15.259 -0.0211 -0.1023  0.1089
22750W        W43030  17.283  16.590  13.038  0.0033  0.0484  0.0357
22751W        W43031   2.200   6.883   4.584  0.0011  0.3376 -0.2015
22752W        W43032  17.833   7.922  15.423 -0.1633 -0.0557 -0.1445
22753W        W43033   3.731  10.013  13.601 -0.1291 -0.1534  0.1894
22754W        W43034   3.707   9.675  15.854  0.2025 -0.1584 -0.0744
22755W        W43035   2.590   2.166   4.582  0.0488  0.2147  0.1444
22756W        W43036  10.347   5.287  11.476 -0.0930 -0.1956  0.0122
22757W        W43037  18.333   8.161  13.872 -0.3116 -0.0515  0.0154
22758W        W43038   2.605  14.897  14.726 -0.1598  0.3089 -0.0080
22759W        W43039  15.235   7.534   2.329 -0.4845 -0.0195  0.1113
22760W        W43040   1.219  12.545   1.336 -0.0236 -0.4048 -0.1437
22761W        W43041   6.413  13.452   4.253 -0.2560 -0.3465  0.1300
22762W        W43042  17.440  13.769   2.705  0.0045 -0.0937  0.1464
22763W        W43043  12.663   1.744  14.667  0.1237  0.4083 -0.2070
22764W        W43044  16.592   0.420  14.214 -0.2607 -0.1835  0.0787
22765W        W43045   4.284   7.537   0.797  0.2895 -0.1010 -0.3726
22766W        W43046  16.640  14.116   0.417 -0.4617  0.1646  0.0104
22767W        W43047  13.627  11.632   1.919 -0.1722 -0.0198 -0.0926
22768W        W43048   2.763   5.968   2.316  0.1125 -0.0711 -0.2456
22769W        W43049  16.798   3.392   0.345  0.0499 -0.0583 -0.0805
22770W        W43050   6.301   9.845   3.266 -0.2656  0.0709  0.0203
22771W        W43051  17.254  11.878   0.204  0.2356 -0.0332 -0.0202
22772W        W43052  11.715   8.028   0.087 -0.0483 -0.1124  0.1289
22773W        W43053  18.315   8.180   4.303 -0.2808  0.0587  0.0752
22774W        W43054   1.102   5.918  13.994  0.0025  0.2462  0.1278
22775W        W43055  11.102   3.524  14.262 -0.1067 -0.4518  0.2199
22776W        W43056   8.612  15.992  15.368  0.1654 -0.4401  0.0048
22777W        W43057  13.443   0.651   3.799 -0.0661 -0.0197  0.1644
22778W        W43058   1.278   4.852   3.763  0.1880 -0.4346 -0.1672
22779W        W43059   5.135  17.310  13.764  0.0334 -0.0479 -0.1441
22780W        W43060   2.537   4.796  12.993  0.1902  0.1741  0.0024
22781W        W43061  13.617   4.928  14.429  0.1035 -0.1195 -0.0942
22782W        W43062  14.142  18.049   3.248  0.1245  0.1662  0.0967
22783W        W43063   9.420   2.326   1.440 -0.5113 -0.0271  0.1959
22784W        W43064  14.494  17.454  12.589 -0.3790  0.2383 -0.0236
22785W        W43065   5.883   1.765   3.878 -0.1549 -0.3043  0.0073
22786W        W43066  16.170  10.061  12.103  0.1095  0.0294 -0.2989
22787W        W43067  15.449   2.300   1.622 -0.0715  0.0292 -0.0107
22788W        W43068   8.995  17.687  14.714 -0.0769  0.1368  0.4351
22789W        W43069   9.176  15.283   4.739 -0.2730 -0.0440 -0.2352
22790W        W43070  13.428   5.074  11.760 -0.2903 -0.0863 -0.2422
22791W        W43071  11.243   6.790  12.871  0.2899  0.2828 -0.1746
22792W        W43072   3.374  17.991   3.305  0.1617 -0.1216  0.2700
22793W        W43073  12.324   3.934   4.407 -0.0231 -0.0021  0.1228
22794W        W43074  10.375   9.077   1.416 -0.2589  0.0518 -0.1457
22795W        W43075  15.975  12.944   1.661  0.0889  0.0338 -0.3282
22796W        W43076   6.611  15.553   1.426 -0.0973  0.0688 -0.2488
22797W        W43077  15.595   7.245   2.048 -0.0136  0.1466  0.1696
22798W        W43078   9.652   7.976   0.974  0.0867  0.0774  0.0177
22799W        W43079   7.685  16.314  15.108 -0.1093  0.1370  0.0425
22800W        W43080  14.236   9.001  15.127  0.3440  0.1434 -0.0948
22801W        W43081   7.674   4.470  15.332  0.0010  0.2419 -0.1986
22802W        W43082  13.207  15.639   0.193 -0.0534 -0.0443  0.0507
22803W        W43083   9.275  16.320  12.146  0.1422 -0.0937 -0.2933
22804W        W43084   5.175   1.204   1.258 -0.3259 -0.0989 -0.0220
22805W        W43085  10.110  14.189   1.352 -0.1016  0.1076 -0.0469
22806W        W43086  16.707   6.409   3.788 -0.1606 -0.2653  0.1000
22807W        W43087  17.978  13.310   1.351  0.2520  0.1930  0.2107
22808W        W43088  10.355  17.186  12.954  0.0828  0.1213  0.0786
22809W        W43089  11.545   7.871   2.683  0.0380  0.0405  0.1025
22810W        W43090  10.649  15.895   2.250 -0.2638 -0.3384 -0.0626
22811W        W43091   1.463  14.112   0.513  0.2811 -0.1148  0.0517
22812W        W43092  17.802   5.185   2.165 -0.0536  0.3066 -0.0333
22813W        W43093   1.223  14.837  13.053 -0.1377  0.0825 -0.2403
22814W        W43094  10.129   1.298   5.821  0.2034 -0.3887 -0.0926
22815W        W43095   2.530  11.515   3.597 -0.2542  0.1893 -0.2183
22816W        W43096  11.661   2.799   1.104 -0.0657 -0.2090 -0.0836
22817W        W43097  12.859   9.472  12.612  0.1346 -0.2362  0.0427
22818W        W43098   3.297  17.685   3.645 -0.3091  0.1616  0.1105
22819W        W43099   7.999  13.419   1.423  0.5222  0.2524 -0.2436
22820W        W43100   7.278  16.468  12.570 -0.1242  0.1469  0.0469
22821W        W43101  17.763  14.811  13.288  0.0350  0.0048  0.0545
22822W        W43102  10.858  18.107  13.095  0.2546  0.4355  0.0094
22823W        W43103  10.219  11.249  13.712  0.1804 -0.0047 -0.0854
22824W        W43104  13.291   9.236   1.555 -0.1543  0.1825  0.0787
22825W        W43105  13.738  17.073  13.338 -0.1463 -0.0760 -0.3190
22826W        W43106  10.176   5.601   0.536  0.2315 -0.0198  0.0933
22827W        W43107  16.792   4.929   4.854 -0.0482  0.0436  0.2425
22828W        W43108  16.176  12.406  13.777 -0.0573 -0.3889  0.0609
22829W        W43109  13.854  10.906  14.792  0.5231  0.0596  0.2301
22830W        W43110   6.346   1.345  15.268 -0.1996 -0.0448 -0.1121
22831W        W43111   1.860  12.724   3.642 -0.3038  0.3613 -0.1088
22832W        W43112   6.215   1.969   3.299  0.0640 -0.2660  0.0127
22833W        W43113   2.320   9.692  12.511 -0.1004  0.0228  0.0237
22834W        W43114   5.319  16.678   0.830  0.1453  0.3888 -0.2551
22835W        W43115  15.658   0.411   2.202  0.0359  0.2786  0.1132
22836W        W43116  17.537   0.712   2.312  0.4123 -0.2565  0.2346
22837W        W43117  13.898   7.771   2.154  0.4288  0.1070  0.2321
22838W        W43118   8.280  17.853   3.090  0.1768  0.1792  0.3120
22839W        W43119   3.772  12.541   5.573  0.0705 -0.0432 -0.0804
22840W        W43120   3.118   5.698   2.010  0.2347 -0.0118  0.2800
22841W        W43121   3.566  12.226   2.495  0.2092  0.2276 -0.1745
22842W        W43122   6.522   8.861   0.210  0.1635 -0.4466  0.0056
22843W        W43123  12.534   8.933   0.871  0.0177 -0.0423 -0.3233
22844W        W43124   9.770  12.581  15.935 -0.2013 -0.0744 -0.1068
22845W        W43125   5.934   8.519   1.367  0.1582 -0.1490 -0.0656
22846W        W43126   7.051   7.974  13.925 -0.2184  0.0077 -0.3812
22847W        W43127  11.221  16.482  15.194  0.0045 -0.0557 -0.1887
22848W        W43128   0.231  11.574   0.506  0.1195  0.0448  0.1112
22849W        W43129   2.038  10.935   2.008  0.0310 -0.1483 -0.1641
22850W        W43130  12.172  14.352   0.068 -0.1557  0.2974 -0.0922
22851W        W43131  16.548   7.418  15.879  0.3595  0.0278 -0.0952
22852W        W43132   2.042   3.316  13.818  0.2222 -0.0216  0.0546
22853W        W43133  12.396   9.784   0.194 -0.0023 -0.1617  0.1597
22854W        W43134   7.922   5.108   0.210  0.1153 -0.2423 -0.2970
22855W        W43135   5.080  17.456  13.249 -0.3411 -0.0790 -0.2638
22856W        W43136  16.658   7.821  13.433 -0.0449  0.0100  0.4178
22857W        W43137   3.761   8.298   2.788  0.0103 -0.3448 -0.0352
22858W        W43138   5.406  16.989   2.669  0.2715 -0.2597 -0.0338
22859W        W43139   5.609   6.223  13.142  0.0544  0.1434 -0.3887
22860W        W43140   9.696   0.094   0.208 -0.2168 -0.3009 -0.1951
22861W        W43141   5.578   6.944  11.851  0.2108 -0.1169 -0.0298
22862W        W43142   0.011  13.787   1.662 -0.0241  0.4428  0.2458
22863W        W43143  17.146   7.662   0.613  0.0355 -0.1033  0.0438
22864W        W43144   3.978  17.481  11.189 -0.0099  0.0029 -0.0071
22865W        W43145  11.531   3.458  12.415 -0.2354  0.0239 -0.0487
22866W        W43146  12.813   7.213   2.267 -0.0719  0.1409 -0.0584
22867W        W43147   1.586  17.214   4.201  0.0385  0.1633 -0.2923
22868W        W43148  14.050  11.673   0.106 -0.1868 -0.1504 -0.0569
22869W        W43149   9.701  14.001  14.498  0.0291  0.0479  0.1416
22870W        W43150  14.372   9.773  12.503 -0.2116  0.1046  0.0643
22871W        W43151  13.394  15.086  13.826  0.0950  0.3773  0.1905
22872W        W43152   8.128   9.041  15.754  0.0938 -0.0693  0.2128
22873W        W43153  11.946   1.018   2.422  0.0950  0.0309  0.3394
22874W        W43154   6.734   7.608   2.425  0.1329  0.2361  0.0011
22875W        W43155  12.530  11.225   4.290 -0.0826 -0.1686 -0.1474
22876W        W43156   7.774  16.120   0.142 -0.1884  0.1575 -0.2451
22877W        W43157   6.170   9.316   3.214 -0.2088 -0.0416 -0.1209
22878W        W43158  12.100   4.038   3.922  0.0937 -0.0218  0.1917
22879W        W43159   0.320   9.282   1.061 -0.1801 -0.0101 -0.0819
22880W        W43160  13.256  17.887   4.278 -0.1620 -0.3160 -0.0072
22881W        W43161  15.164   7.213   1.419  0.0738 -0.0148  0.1102
22882W        W43162   6.291   1.198  11.811  0.1707  0.0248  0.0693
22883W        W43163  15.078   8.220   1.566  0.0477 -0.0757  0.0440
22884W        W43164   0.788   1.743   1.324 -0.0576 -0.0466 -0.0829
22885W        W43165   8.484   0.934  10.749  0.2214 -0.1777 -0.2733
22886W        W43166  13.817   5.410   3.918  0.1350  0.1315 -0.0616
22887W        W43167   1.926  17.514  13.036 -0.1057  0.1256 -0.0029
22888W        W43168   1.896   6.316   1.947  0.3400 -0.1678 -0.3468
22889W        W43169  16.733   1.593  13.389  0.0527 -0.0223  0.1339
22890W        W43170  16.935   4.183   4.528  0.3395 -0.2244  0.0481
22891W        W43171  17.906  16.712   2.588 -0.0734 -0.1305 -0.1273
22892W        W43172   2.566  10.905  11.410  0.1628 -0.1850 -0.2064
22893W        W43173   8.731  11.291   4.149 -0.1385 -0.1755 -0.0398
22894W        W43174   6.203  15.570   3.909  0.1398 -0.1433 -0.0215
22895W        W43175  17.660   4.876   1.241  0.1739 -0.0144  0.4881
22896W        W43176   0.739  10.273  10.823  0.0374  0.0715 -0.0026
22897W        W43177   1.919  11.036  14.379  0.0305 -0.3194 -0.0238
22898W        W43178   9.748   1.394   4.063  0.2213 -0.1965 -0.0538
22899W        W43179   5.843  15.100  11.061 -0.0703 -0.0416  0.0214
22900W        W43180  16.228   6.398   1.359  0.0359 -0.0865  0.1926
22901W        W43181  10.024   9.266  12.544  0.2557 -0.0901  0.0576
22902W        W43182   2.532  15.684   3.505  0.1435  0.2150  0.1539
22903W        W43183  14.239   0.678   1.267 -0.0845  0.3258 -0.1011
22904W        W43184   7.872  10.140   4.232  0.0655  0.0861  0.0593
22905W        W43185   8.363   5.718   1.142  0.1283 -0.2405  0.1507
22906W        W43186   2.008  10.526  12.473 -0.1936 -0.1859 -0.0272
22907W        W43187   0.210  17.765   4.373 -0.0028  0.1077 -0.2353
22908W        W43188  10.261   0.118   3.214  0.0743  0.2773 -0.3748
22909W        W43189  12.508   1.044   2.222 -0.3307  0.2600  0.0406
22910W        W43190   2.705  13.732  15.127  0.0611 -0.0807  0.0965
22911W        W43191  12.194   3.105   4.304 -0.3950 -0.3803  0.1160
22912W        W43192  12.878   3.567  13.160  0.0540  0.2085  0.1987
22913W        W43193  11.997  15.374   3.607  0.1406  0.2481  0.3040
22914W        W43194   0.782   0.277  12.035  0.3439 -0.0796 -0.0107
22915W        W43195  12.021   6.771   3.838  0.2504  0.1758  0.1432
22916W        W43196  11.307  17.902   0.506 -0.0546 -0.1311  0.0992
22917W        W43197   7.298   1.005  12.794  0.0200  0.1012 -0.1864
22918W        W43198  13.635   3.083   4.494  0.2754  0.1183 -0.1861
22919W        W43199   3.264   4.923  12.260  0.2650  0.0030 -0.0839
22920W        W43200  16.020   9.136   2.581  0.1496  0.0086  0.1232
22921W        W43201   1.341  10.387   1.767 -0.0254 -0.1646 -0.2562
22922W        W43202   5.288   1.616   1.649 -0.1794 -0.3001  0.1944
22923W        W43203   4.679   0.921  14.545  0.3372  0.0192  0.0397
22924W        W43204   8.334   7.321  15.081 -0.0125 -0.0024  0.0437
22925W        W43205  10.987   8.611  13.315  0.1017  0.0165 -0.1173
22926W        W43206   9.096  14.793  14.091  0.1260 -0.1509 -0.0002
22927W        W43207   2.338  11.066   3.833 -0.1918  0.1786 -0.0934
22928W        W43208  11.191   3.799   2.873 -0.3214  0.1553 -0.0689
22929W        W43209  10.777   5.373   3.592  0.1843  0.0807 -0.0900
22930W        W43210   2.184   8.018   1.361  0.0143  0.0258 -0.0604
22931W        W43211   2.062   3.108  14.461 -0.3048  0.4627 -0.2052
22932W        W43212  15.069   4.535   4.642 -0.1350  0.1688  0.1437
22933W        W43213  10.583   0.650  14.698 -0.1236  0.2225  0.0644
22934W        W43214  16.895  15.474  15.681 -0.0865  0.0055  0.0370
22935W        W43215   1.273   9.744  15.434 -0.2019  0.0296 -0.0255
22936W        W43216  14.851   6.522   0.136  0.2459  0.1831 -0.0933
22937W        W43217   4.597  16.145   0.782 -0.1096 -0.2572  0.0206
22938W        W43218  14.552   9.311  14.391 -0.0099  0.1203  0.1080
22939W        W43219  17.450   2.466  12.476 -0.1613  0.0698 -0.0076
22940W        W43220   8.826   7.572  14.014  0.0936 -0.3094 -0.1502
22941W        W43221  10.393  10.429   1.432 -0.0952 -0.0645 -0.1249
22942W        W43222   1.479   5.203  14.248 -0.1237  0.1225  0.0159
22943W        W43223   4.607   5.151   0.622 -0.0078  0.1227  0.0442
22944W        W43224  16.859  12.084  14.144  0.1887  0.0657  0.1710
22945W        W43225   0.917  12.335   4.215 -0.1385  0.1938  0.0613
22946W        W43226   1.092   5.163   2.990 -0.1560  0.0135 -0.0139
22947W        W43227  16.596  15.453  11.661 -0.1471  0.0334  0.1329
22948W        W43228  13.984   9.470  14.331 -0.0117  0.2318  0.0035
22949W        W43229  12.859   1.877   3.675 -0.1511  0.0646  0.1575
22950W        W43230  14.139  15.202  12.094 -0.0922 -0.0468 -0.2912
22951W        W43231   5.596   9.108  15.075  0.3254  0.0505 -0.3989
22952W        W43232   0.075   2.710  12.761 -0.0379 -0.0831 -0.2489
22953W        W43233  12.885   6.292   4.016  0.1749  0.0548  0.0725
22954W        W43234   1.736  12.886   4.108  0.0335  0.2396 -0.0826
22955W        W43235  13.418   3.176  15.611 -0.1487  0.0050 -0.0982
22956W        W43236  11.711   8.554   0.125  0.0065 -0.1385 -0.0575
22957W        W43237  15.734   0.207   1.325 -0.0386 -0.1627  0.2685
22958W        W43238  15.324  11.953  12.333 -0.0897 -0.0351 -0.2102
22959W        W43239   2.590   7.214   4.167  0.1268  0.0886 -0.1163
22960W        W43240  16.105   6.589  13.286  0.0166  0.1690  0.0637
22961W        W43241  16.267  13.013  15.063 -0.1863 -0.3349  0.0257
22962W        W43242  10.148   3.954   3.005  0.2355 -0.0312  0.0023
22963W        W43243   5.599   1.186   1.725  0.2296 -0.0115  0.0922
22964W        W43244  14.865   4.175   3.766 -0.3794 -0.0215 -0.3861
22965W        W43245  15.481  12.127  14.583  0.0501 -0.3625  0.3207
22966W        W43246   2.097  17.897   1.605  0.0401 -0.2062  0.0399
22967W        W43247   4.464   6.564   3.343  0.2474 -0.1632  0.2651
22968W        W43248   4.546   6.083  15.340 -0.0922  0.0662  0.2010
22969W        W43249  16.196  13.376  14.023 -0.0735 -0.2891  0.5130
22970W        W43250   6.962  15.275   4.131  0.0659 -0.1194 -0.0924
22971W        W43251   5.556   6.100  11.627  0.3356  0.4188  0.3064
22972W        W43252  14.450  16.990   0.486  0.0622  0.1486 -0.2846
22973W        W43253   2.247   2.394  14.157 -0.1511  0.0625  0.0617
22974W        W43254   3.202  13.000   3.362 -0.0224 -0.1338 -0.2553
22975W        W43255  16.798  12.372  12.115 -0.1569  0.0836 -0.2546
22976W        W43256   4.134   7.401  11.929  0.0260 -0.0105  0.0324
22977W        W43257   3.835   7.648   0.849 -0.0271  0.1434  0.1886
22978W        W43258  10.377  14.492   3.246  0.0356 -0.0962  0.1198
22979W        W43259   1.098   0.557  11.708  0.0577 -0.0642 -0.3222
22980W        W43260   9.633   0.861  14.308 -0.3060  0.1725 -0.1892
22981W        W43261  15.190  12.456  13.499 -0.0020  0.1308  0.0285
22982W        W43262  13.331   1.231   3.536  0.3142 -0.1636  0.2082
22983W        W43263  13.305  10.934  15.228 -0.0458 -0.3459 -0.2504
22984W        W43264  17.616  13.934   3.193  0.3529  0.1259  0.0681
22985W        W43265  13.899  17.523   2.539 -0.1262  0.1507 -0.2648
22986W        W43266  12.184  11.990  11.443 -0.2338  0.0579  0.1258
22987W        W43267   3.853   8.110   1.006  0.2276 -0.0721  0.2572
22988W        W43268  11.145   9.646   0.996 -0.0310 -0.2753 -0.0510
22989W        W43269  17.409  16.954   2.272  0.0220  0.0950 -0.2573
22990W        W43270  17.458  10.065   4.387 -0.1375  0.0664 -0.0440
22991W        W43271  12.720  15.355  15.876  0.0233  0.3288 -0.3090
22992W        W43272  13.316   4.927  12.410  0.1331 -0.1076 -0.1261
22993W        W43273   7.108   4.442   4.143  0.1370  0.0054  0.2244
22994W        W43274   1.282   5.754  15.557  0.1335  0.1554  0.1492
22995W        W43275  14.209  16.319  13.313  0.1005  0.1467 -0.0761
22996W        W43276  14.209  13.181   3.574 -0.2050 -0.4650  0.2661
22997W        W43277  11.551  17.227   4.560  0.3475 -0.0568  0.2424
22998W        W43278  15.079   9.086  14.928  0.0051 -0.0739 -0.1146
22999W        W43279  12.363   7.449   3.276  0.4261  0.0163  0.0433
23000W        W43280   3.158   0.155  11.799  0.1268 -0.1275  0.1283
23001W        W43281  14.427   7.772  13.278 -0.0250  0.3440  0.1857
23002W        W43282  18.055   9.994   4.606 -0.1404  0.0705 -0.0113
23003W        W43283  16.050  17.228   1.566 -0.0069  0.0233 -0.2552
23004W        W43284   2.342   3.699   3.728 -0.0847  0.2875 -0.2635
23005W        W43285   8.383   3.580   0.580 -0.0165  0.0559  0.0205
23006W        W43286   3.531   7.200   0.750 -0.0930 -0.2387 -0.0735
23007W        W43287   7.132  16.520   4.072  0.0328 -0.0820  0.0273
23008W        W43288  10.998  18.146   5.716  0.0482  0.1829  0.0875
23009W        W43289  15.792   2.549   0.996  0.0155  0.3128 -0.2079
23010W        W43290  17.261  10.297  13.350 -0.1132 -0.2272 -0.2110
23011W        W43291   2.909  16.781   0.929 -0.2062  0.2282 -0.1616
23012W        W43292   5.266   9.537   4.145 -0.1970  0.1902  0.1865
23013W        W43293   1.279   7.088   3.010 -0.1773  0.1542  0.3167
23014W        W43294  11.137   0.728   0.485 -0.1459 -0.0528 -0.1015
23015W        W43295  17.026  14.464   1.542 -0.1808  0.0836 -0.0054
23016W        W43296  14.925  15.788   2.580  0.1126 -0.3006  0.2180
23017W        W43297  13.134  11.390   4.421  0.1408 -0.1160  0.0143
23018W        W43298   8.130   6.152   3.406  0.0779  0.0277  0.0940
23019W        W43299   9.285   9.691  12.709  0.1113  0.0548  0.2637
23020W        W43300  12.027   2.219  13.049  0.0494 -0.0248 -0.0987
23021W        W43301   2.101  16.336  12.637  0.1369  0.1681 -0.1220
23022W        W43302  12.802   9.938  15.764 -0.0800  0.0345 -0.1057
23023W        W43303   8.489  16.962  14.846  0.3238  0.3166 -0.0295
23024W        W43304  12.924   8.057  14.764 -0.0677 -0.0720 -0.0291
23025W        W43305   0.992   0.299   2.510 -0.2541  0.0630  0.0873
23026W        W43306  10.571  14.455  11.996 -0.0173  0.0590  0.1193
23027W        W43307   0.931   3.914   0.792 -0.1994 -0.3066  0.0761
23028W        W43308   0.375   8.841   1.366  0.3562  0.0862  0.1038
23029W        W43309  12.003   9.125  15.845 -0.1299 -0.0128  0.0836
23030W        W43310   6.163  13.234   4.602  0.0745 -0.0425 -0.1133
23031W        W43311   8.976  16.978   3.289 -0.0921 -0.2361 -0.0616
23032W        W43312   3.721  17.836  11.515 -0.0770  0.2408  0.1313
23033W        W43313   0.654   4.245   1.029 -0.0681 -0.0676 -0.1850
23034W        W43314  17.425   5.928   2.922  0.0150  0.0699  0.1832
23035W        W43315  12.764  17.750   2.904 -0.0184  0.0362  0.0712
23036W        W43316  13.413   6.411  12.136  0.1759  0.1977  0.0109
23037W        W43317   9.951  12.303  13.569 -0.0896 -0.3032 -0.0343
23038W        W43318  14.167   6.163  13.540  0.2135  0.1291 -0.2497
23039W        W43319   9.873  16.580  14.557  0.1871 -0.2864 -0.0998
23040W        W43320  14.609  14.373   3.349 -0.0654 -0.1751 -0.0827
23041W        W43321  14.777   9.524   3.243 -0.5159  0.1942  0.0724
23042W        W43322  12.552   4.495   3.076  0.1039 -0.3221 -0.0533
23043W        W43323  15.292   3.107   1.545 -0.0053 -0.0241  0.0173
23044W        W43324   4.697  17.124  13.024  0.2525 -0.0375  0.0330
23045W        W43325  12.984  12.000  12.887 -0.2529  0.0500  0.0382
23046W        W43326   6.823   2.267   1.904  0.0004  0.0808  0.0179
23047W        W43327  10.842   4.188  13.953 -0.0998  0.2717  0.1917
23048W        W43328   6.382  15.903  14.627  0.0809  0.3587 -0.0111
23049W        W43329   7.460  17.304  12.076 -0.0363 -0.0493 -0.0688
23050W        W43330   4.464   0.163   0.266 -0.2544 -0.0914 -0.0165
23051W        W43331  17.611   4.876   1.798  0.0030  0.0586  0.0718
23052W        W43332   1.963  14.123  15.929  0.0924 -0.0179 -0.1565
23053W        W43333  11.893   9.404  11.424 -0.0534  0.2340 -0.0433
23054W        W43334   8.789  17.318  15.139 -0.1463 -0.0219  0.2682
23055W        W43335  16.653   3.957   2.063  0.3318 -0.3609  0.3338
23056W        W43336  16.454   7.794   2.872  0.0251  0.0602 -0.1405
23057W        W43337   4.049  17.719  13.266 -0.2311  0.0745  0.2044
23058W        W43338   7.834  17.283   1.330  0.2615  0.0060  0.0819
23059W        W43339  11.958  15.728   0.901 -0.0320 -0.0278  0.0101
23060W        W43340  18.140   2.326   4.878  0.0974 -0.1274  0.0025
23061W        W43341   9.929  10.517   2.882 -0.0623 -0.1479 -0.1883
23062W        W43342  13.314   3.670  15.594 -0.0362 -0.2218 -0.2137
23063W        W43343   0.420   8.804  13.383 -0.1218 -0.1315 -0.0505
23064W        W43344   8.329  11.781   4.142  0.2966  0.0464  0.0434
23065W        W43345  17.358  10.710   3.588  0.3140  0.2530 -0.3090
23066W        W43346   5.608  12.829  13.090 -0.0002 -0.2171  0.3005
23067W        W43347   5.398   4.635   0.081 -0.1973  0.2230  0.0062
23068W        W43348  10.138   4.247   0.835 -0.0006 -0.0357 -0.0667
23069W        W43349  11.110  12.528   1.566  0.1185 -0.1365 -0.1707
23070W        W43350  16.093   9.390   1.607 -0.0587 -0.2375 -0.1876
23071W        W43351  14.103  12.108  11.082 -0.0529 -0.2647  0.1396
23072W        W43352  10.730  10.844   1.259 -0.2053  0.0380  0.1584
23073W        W43353   9.858  16.918   0.714 -0.1899 -0.0468  0.0267
23074W        W43354  18.128  16.889  13.468 -0.1357  0.1314  0.2856
23075W        W43355  14.368   1.843  13.701 -0.1084  0.2041  0.1115
23076W        W43356   6.790   6.331  15.011 -0.3286 -0.1449  0.0204
23077W        W43357  16.406   3.679   3.350 -0.2307  0.0412 -0.2806
23078W        W43358   9.721   0.782  14.835 -0.2518 -0.0998 -0.1001
23079W        W43359  10.675   1.645   3.609 -0.3213  0.1776  0.0674
23080W        W43360   8.006  13.592   4.350  0.3469 -0.2348  0.0313
23081W        W43361   5.420   4.352  14.292  0.0262 -0.0766 -0.0912
23082W        W43362  12.471   9.887  14.748  0.1882 -0.0945 -0.1599
23083W        W43363  14.728   7.808   3.790  0.0159  0.3270 -0.3738
23084W        W43364   5.929  13.237  15.760  0.0244 -0.1980  0.0304
23085W        W43365   5.293  15.873  14.956  0.1371  0.1650  0.2203
23086W        W43366  15.404  12.814  12.985 -0.3084 -0.1319  0.1516
23087W        W43367  17.434  17.392  12.476  0.0204 -0.1703 -0.1207
23088W        W43368  10.921  17.467  14.133  0.1440 -0.3736  0.0639
23089W        W43369   0.459  17.042  14.970  0.1971 -0.4570 -0.0950
23090W        W43370   9.569  12.234   2.351 -0.1030  0.2646  0.2707
23091W        W43371  11.058  13.228  13.245 -0.1124 -0.0693 -0.0345
23092W        W43372   8.855   4.128   4.320 -0.0768  0.0710  0.4725
23093W        W43373  11.659   2.503   2.335 -0.1400  0.3070 -0.0729
23094W        W43374   3.716  10.756   4.610  0.2707  0.1903  0.1018
23095W        W43375   8.957  11.388  11.215  0.0774 -0.1768  0.3131
23096W        W43376  11.979   9.387   0.544  0.0813 -0.0402 -0.3917
23097W        W43377  14.162  10.508  12.215 -0.3089  0.1393 -0.0433
23098W        W43378  12.322   3.561  11.636 -0.2370 -0.0801 -0.1386
23099W        W43379  13.021   0.947   1.978  0.1959 -0.1946 -0.2090
23100W        W43380   5.392  10.517  15.557 -0.3182 -0.0557 -0.0373
23101W        W43381   3.664  11.208  12.258  0.3575 -0.1016  0.0492
23102W        W43382   1.407   2.766   3.908  0.2592  0.0406 -0.0323
23103W        W43383   5.010   3.216  15.922 -0.0358  0.2357 -0.1535
23104W        W43384  11.376   7.754  14.888 -0.2095  0.1080  0.0840
23105W        W43385   7.532   4.194   4.048  0.0968  0.0025 -0.1234
23106W        W43386   8.743  15.046  15.043 -0.1003  0.1586  0.1398
23107W        W43387  14.977  15.026   3.964 -0.0004 -0.1137 -0.1782
23108W        W43388  13.011   5.180  12.832 -0.0445 -0.0231 -0.2883
23109W        W43389   7.892   1.684  12.299  0.1979  0.2407  0.0183
23110W        W43390   1.304   4.800  13.398  0.1678 -0.2061  0.1352
23111W        W43391   8.932   3.216   3.000  0.1590 -0.0659  0.1352
23112W        W43392   7.656   6.181   3.181  0.1074  0.1547  0.3169
23113W        W43393  15.109  11.793  15.866 -0.0292 -0.1719  0.1102
23114W        W43394  10.390   4.351   2.756  0.0366  0.1781  0.0805
23115W        W43395   8.905   4.894  11.700 -0.1401  0.0711 -0.0364
23116W        W43396   8.856  13.368   4.141 -0.3487  0.0647 -0.1852
23117W        W43397  17.292  17.342   2.531 -0.0495 -0.0536 -0.0630
23118W        W43398   9.978   3.954   4.072 -0.0962 -0.0498  0.2023
23119W        W43399   6.541   4.748   2.730 -0.0139  0.2739 -0.0540
23120W        W43400   7.160  15.346  15.327 -0.1952 -0.1249  0.0002
23121W        W43401  12.577   7.441  11.913 -0.1416  0.2408  0.1405
23122W        W43402   3.601  14.714  13.965 -0.1583  0.1372 -0.0342
23123W        W43403   7.861  10.016   3.372  0.2017  0.0199 -0.1285
23124W        W43404  10.715  10.278  15.658  0.0536 -0.0075  0.1201
23125W        W43405  16.832  15.627   1.538 -0.1281 -0.3140  0.1882
23126W        W43406  10.490  15.248  11.297 -0.1546 -0.0964  0.0902
23127W        W43407   6.590  15.292  13.113  0.0098  0.0890 -0.0124
23128W        W43408  12.054  16.132   3.789  0.0839  0.0012 -0.3488
23129W        W43409  16.728   8.895   3.730  0.0968  0.2805 -0.1735
23130W        W43410   0.508  16.270  10.808  0.1799  0.0909 -0.0090
23131W        W43411  15.439  10.001  15.769  0.3760 -0.0070 -0.2309
23132W        W43412   5.711   3.997   3.568 -0.0842 -0.1600 -0.0441
23133W        W43413   5.892  11.963   2.075  0.1943 -0.1791 -0.0243
23134W        W43414   5.837   2.285  15.091 -0.1020 -0.0744 -0.3693
23135W        W43415   0.853  10.236  14.747 -0.1864  0.0310 -0.1332
23136W        W43416   6.208   9.833  14.932  0.0770  0.1540  0.1611
23137W        W43417   9.195   1.108  11.535  0.0874  0.0376  0.3757
23138W        W43418  13.799   6.900   0.755 -0.3066  0.3303 -0.1175
23139W        W43419  11.041   9.798   0.456  0.0113 -0.0173  0.0320
23140W        W43420  14.864  10.555  14.635  0.0185 -0.0545  0.5082
23141W        W43421   3.584   0.762  15.218  0.1582  0.3525 -0.0158
23142W        W43422  15.769   4.042  10.686  0.3105  0.1060 -0.0739
23143W        W43423  17.396  10.462   2.426 -0.0212 -0.0716  0.0164
23144W        W43424   8.640   8.907   0.686  0.1658  0.0751  0.2445
23145W        W43425  17.795  17.691   2.634 -0.1547 -0.2899  0.3268
23146W        W43426   2.729  16.988  15.203 -0.0231 -0.2219  0.0898
23147W        W43427   5.863  16.900   2.508 -0.1745  0.1117  0.0029
23148W        W43428  15.160  17.865  15.154  0.0437  0.0750  0.3978
23149W        W43429  11.628  11.689  13.347 -0.0262 -0.1424  0.0444
23150W        W43430   7.733  14.143  12.132  0.0945 -0.1367 -0.0960
23151W        W43431  16.924   6.420  14.920  0.1043  0.0489 -0.0590
23152W        W43432   5.371   8.270  12.283  0.1346  0.3326 -0.0024
23153W        W43433  10.011   3.779  15.213  0.0828  0.0461  0.1711
23154W        W43434   4.569  15.472  11.554  0.4327  0.0669  0.1115
23155W        W43435  16.196  18.057   0.901 -0.1517 -0.0129  0.3843
23156W        W43436   3.023   1.900  11.718 -0.3388  0.0366  0.2482
23157W        W43437   8.446  10.932  13.695  0.0327  0.3530 -0.0623
23158W        W43438   9.377   3.013  12.192  0.0201 -0.2173 -0.5536
23159W        W43439   6.067   6.783  11.775 -0.0103  0.0826 -0.0766
23160W        W43440   6.103   8.297  15.464  0.0405  0.0422  0.0179
23161W        W43441  17.484  16.292  14.625 -0.0220  0.0231  0.1107
23162W        W43442  12.615   7.383  14.379  0.5080 -0.1000 -0.2061
23163W        W43443  17.948  12.373  13.255  0.0532  0.0018  0.2449
23164W        W43444   6.990  12.571   0.939  0.0084  0.3266  0.3759
23165W        W43445   1.003   5.519  12.937 -0.2490 -0.2365 -0.1739
23166W        W43446   3.103   2.225  14.211  0.1059  0.0252 -0.2772
23167W        W43447   3.243   1.221  11.381  0.1951  0.1110 -0.1848
23168W        W43448   6.816  15.757   4.011 -0.1620  0.0938 -0.2659
23169W        W43449   9.351  13.035  15.377 -0.2843 -0.3692  0.0883
23170W        W43450   7.314   8.139  11.733  0.1258  0.0667 -0.0206
23171W        W43451  11.307  17.194  12.240 -0.2043  0.0728 -0.2033
23172W        W43452   1.381  17.789  11.831  0.4533  0.0349 -0.1533
23173W        W43453  17.472  12.138   3.228 -0.4514  0.2866  0.3440
23174W        W43454   7.946   3.552   1.271  0.1939 -0.1827 -0.0051
23175W        W43455  12.332   4.240  11.298 -0.0541  0.1366  0.0884
23176W        W43456   4.801   9.009  12.533  0.2402  0.2125 -0.1612
23177W        W43457  10.920   9.376  14.494 -0.1753  0.1320  0.0379
23178W        W43458   9.171  14.115  13.403 -0.0369  0.1137 -0.1676
23179W        W43459   4.612  13.833  10.847  0.2720 -0.1015 -0.0409
23180W        W43460   8.772   5.708   0.330 -0.1991  0.2085 -0.1532
23181W        W43461  15.972   0.371   2.662 -0.0829 -0.3791 -0.0248
23182W        W43462  13.368  15.325  14.820  0.2813  0.3904 -0.0914
23183W        W43463   9.719  18.287   4.183  0.0015 -0.1469  0.1448
23184W        W43464   6.357   0.939  11.088 -0.0208 -0.0226  0.0778
23185W        W43465   2.587  15.353  15.460  0.2103 -0.0689  0.0713
23186W        W43466   3.602  15.531  11.165  0.0222 -0.0006 -0.0990
23187W        W43467   6.825  12.205  15.435 -0.0181 -0.0843 -0.0017
23188W        W43468   3.242  11.262  13.020  0.1121 -0.1250 -0.0690
23189W        W43469  17.821   2.474  13.785 -0.0245  0.0640 -0.1698
23190W        W43470   9.641   6.337   2.379 -0.0553  0.3422  0.0446
23191W        W43471   5.421  17.045   1.683  0.0746 -0.1260 -0.0009
23192W        W43472   8.349  10.481   1.570 -0.2307  0.1107  0.1055
23193W        W43473   9.713   3.841   5.237 -0.3978 -0.2846  0.1380
23194W        W43474   7.480   4.421  14.503  0.0523  0.0078  0.3722
23195W        W43475   2.574  12.556   1.000 -0.1652 -0.0928  0.0166
23196W        W43476  17.726   8.368   4.869 -0.0580  0.1205  0.1708
23197W        W43477   2.256   6.777  14.803 -0.0657 -0.3053  0.1753
23198W        W43478   2.982   7.260  11.908 -0.1045  0.0314 -0.0420
23199W        W43479   1.286   6.265  13.735 -0.0106  0.2412  0.1745
23200W        W43480  14.868  14.522   2.580 -0.4168  0.1373 -0.3300
23201W        W43481   6.173   9.489  14.414 -0.4088  0.0429  0.1563
23202W        W43482   1.701  13.690   1.330  0.0139 -0.1850  0.1005
23203W        W43483  17.860   6.426   1.572  0.1450  0.1285  0.0801
23204W        W43484   4.014   4.875  12.404  0.1088  0.0179  0.1304
23205W        W43485  16.699   4.918   2.987 -0.1207 -0.1496  0.3282
23206W        W43486  14.491   9.218  13.362 -0.5254 -0.0243 -0.0777
23207W        W43487   5.371  14.864   2.947 -0.2723 -0.0796 -0.1030
23208W        W43488   9.876  16.665  13.606 -0.2321 -0.3007 -0.1377
23209W        W43489   6.469   8.233  13.808 -0.0449 -0.0978 -0.0379
23210W        W43490  10.804  11.093  13.849 -0.1470 -0.3515 -0.4088
23211W        W43491   0.875   9.321  15.847  0.1599 -0.3397 -0.1285
23212W        W43492   4.861   2.258  12.522  0.0552 -0.1200 -0.1624
23213W        W43493  17.346   2.536  12.970 -0.0352  0.1125  0.0666
23214W        W43494  14.516  11.588  14.711  0.0292 -0.0204 -0.0578
23215W        W43495   0.604  10.042   2.499  0.1104  0.2992  0.2499
23216W        W43496   0.084   5.453  11.229 -0.2505 -0.0296  0.2489
23217W        W43497   4.699  12.080  13.990  0.0020 -0.0989 -0.1025
23218W        W43498   9.810  10.024   3.319  0.0530 -0.3685 -0.0914
23219W        W43499  12.978   5.389   0.948 -0.3852  0.0184  0.1843
23220W        W43500  14.185   7.088   5.950  0.0543 -0.1242  0.2942
23221W        W43501   0.925   0.311  15.347  0.0222 -0.1584 -0.1731
23222W        W43502  16.183  10.901  14.584  0.0197 -0.1074  0.0940
23223W        W43503  12.317   3.058  14.244 -0.1522 -0.1203  0.2357
23224W        W43504  13.503   3.813   1.314 -0.1581  0.3803 -0.2284
23225W        W43505   1.663  13.549  12.891  0.0892  0.1075 -0.1045
23226W        W43506  14.343  10.024   2.017  0.3046  0.0513 -0.0166
23227W        W43507  18.080   8.379  15.613 -0.1474 -0.2306 -0.2557
23228W        W43508   3.816  17.162  15.663  0.1786  0.1751 -0.0713
23229W        W43509   1.853   2.096   4.379  0.1253 -0.3428  0.1912
23230W        W43510   3.558  18.229  14.009  0.1596 -0.2946  0.4420
23231W        W43511   0.483  12.919  13.798  0.2560  0.2334  0.1568
23232W        W43512  15.643   4.323   3.393  0.2370 -0.0161  0.1066
23233W        W43513  17.541  17.920  12.421  0.3720  0.2640 -0.1214
23234W        W43514   5.342   8.369   1.890  0.1453  0.2225 -0.1254
23235W        W43515   5.216  11.073  12.507  0.2815  0.0073  0.3816
23236W        W43516   4.092  13.867  14.052  0.2282 -0.2853 -0.0368
23237W        W43517   8.376   2.082  13.006  0.0884  0.2070  0.0874
23238W        W43518   1.765  16.348   0.898 -0.1155 -0.2816 -0.0232
23239W        W43519  15.094  13.802   4.464  0.0171  0.0634  0.0616
23240W        W43520  10.001   1.573   2.902 -0.1729  0.3097  0.0235
23241W        W43521  12.449   5.342  11.698 -0.0852 -0.3534 -0.1415
23242W        W43522   9.456   2.263  12.622  0.3490  0.2793  0.2006
23243W        W43523  16.933   4.364   3.929 -0.0572 -0.3234 -0.0542
23244W        W43524   7.649  15.058   2.712  0.1722 -0.2034  0.1533
23245W        W43525  10.728  11.583  12.968 -0.1407  0.1270  0.5227
23246W        W43526   4.690   3.377   2.071  0.1067 -0.0423 -0.1801
23247W        W43527  14.466   5.752  13.606 -0.0919  0.0091  0.0266
23248W        W43528   9.010   4.911  13.139  0.1176  0.0079  0.4448
23249W        W43529   4.266  14.493   4.393 -0.0486 -0.2670 -0.0803
23250W        W43530  15.438   4.446   2.155  0.0423 -0.0658  0.1516
23251W        W43531  16.266   5.625  11.798 -0.1600 -0.1659 -0.4743
23252W        W43532   7.901   6.117   0.486  0.0549 -0.1519  0.1672
23253W        W43533   6.312   6.990  13.367 -0.0727  0.0893 -0.2463
23254W        W43534   0.177  11.770  15.557  0.3005 -0.2616 -0.1331
23255W        W43535   9.157   6.536   2.679  0.1178  0.1027 -0.1145
23256W        W43536   9.467   3.131   0.075 -0.2231  0.0379 -0.1830
23257W        W43537   7.069  10.793  12.736  0.1948  0.0126 -0.1332
23258W        W43538   0.819   2.785  12.430  0.1975  0.2730 -0.0051
23259W        W43539  17.009   0.703  14.572 -0.2854  0.0931  0.0277
23260W        W43540  16.469  13.534  13.619  0.0739  0.0065  0.0906
23261W        W43541   9.407   9.363  15.544  0.2011  0.2568  0.1916
23262W        W43542   8.263   7.990  13.648  0.0629 -0.2275 -0.2967
23263W        W43543   4.760   4.047  15.095 -0.2422  0.0183 -0.1465
23264W        W43544  18.053  15.136  12.878  0.0802 -0.6317 -0.1873
23265W        W43545   3.836   3.734   2.233  0.0996  0.0671  0.1157
23266W        W43546   3.316  11.165  10.939 -0.0981 -0.0229 -0.0363
23267W        W43547   7.776  13.995  14.068 -0.2116  0.2511  0.1409
23268W        W43548  13.811  11.423  12.542  0.0002 -0.1098  0.0770
23269W        W43549  15.657  17.547  14.848  0.0569  0.0053  0.1888
23270W        W43550  13.156   2.741  15.612 -0.1905 -0.2708 -0.1600
23271W        W43551   9.092  14.402   1.412  0.0563 -0.0124  0.0237
23272W        W43552   4.942  16.010   2.459  0.0350  0.2246  0.3417
23273W        W43553  13.839  17.983  13.844 -0.0697  0.3765  0.2158
23274W        W43554   7.405   3.422   0.557 -0.0841 -0.0918  0.3809
23275W        W43555  12.525  13.762  14.036 -0.2714 -0.0281 -0.4348
23276W        W43556   0.649  15.294   0.886  0.1725 -0.1672  0.0515
23277W        W43557   6.324   6.008   3.357 -0.0365  0.1889  0.1007
23278W        W43558   3.651  12.950  13.237 -0.2474  0.0311 -0.2602
23279W        W43559  11.801   9.577   4.241 -0.2252 -0.2683 -0.2203
23280W        W43560   2.483   0.979   2.752 -0.0416 -0.2215  0.2822
23281W        W43561   4.978   3.680   3.967 -0.1032  0.0845  0.0483
23282W        W43562  17.530   5.398  12.075  0.1025 -0.1580 -0.1270
23283W        W43563  13.784   7.822   1.596  0.0796  0.0049 -0.1517
23284W        W43564   7.860   1.806  13.676  0.1407 -0.3021 -0.0245
23285W        W43565   7.716  17.330  12.905 -0.0306 -0.0896  0.0819
23286W        W43566   4.985   2.107   1.464 -0.1070  0.2524 -0.1060
23287W        W43567   4.465  17.626  11.845  0.0288 -0.0020  0.0218
23288W        W43568   2.805  17.081  13.825 -0.3166 -0.0836  0.1168
23289W        W43569   7.953  13.530  13.176  0.0974 -0.3442 -0.0452
23290W        W43570   8.057  14.837   0.223 -0.1640  0.0717  0.1583
23291W        W43571  16.378  14.692  13.552  0.1596  0.1438 -0.1434
23292W        W43572   2.355  14.819  12.084  0.0863 -0.2452  0.0230
23293W        W43573   9.364  14.405   3.422 -0.1164  0.2772 -0.1266
23294W        W43574  13.371  14.071  15.091  0.2380 -0.0864  0.2344
23295W        W43575  17.842   3.141   2.998  0.1517 -0.0279 -0.1722
23296W        W43576   7.473  11.099  14.792  0.1984  0.1054  0.1333
23297W        W43577  12.662  14.605  13.320 -0.0101  0.4515  0.0152
23298W        W43578  14.799   9.926   0.639 -0.0353  0.0091 -0.3467
23299W        W43579   7.507   5.732   3.905  0.2274 -0.2341  0.2352
23300W        W43580   8.238  10.570   4.357 -0.1137  0.1150 -0.0777
23301W        W43581  10.060  15.447   1.722 -0.4148  0.0706  0.1362
23302W        W43582   5.923  12.287   4.674  0.0443 -0.1961  0.3024
23303W        W43583  12.267  18.186  12.535 -0.1283  0.1901 -0.0159
23304W        W43584  16.926  13.694   3.840 -0.0066 -0.0491  0.2972
23305W        W43585  10.838  11.660  14.663 -0.0053  0.1250 -0.0593
23306W        W43586   9.401   9.835   1.500 -0.3926  0.0313 -0.0963
23307W        W43587   5.001   4.086   3.441  0.1206  0.0389 -0.0676
23308W        W43588  17.080   9.866   1.183  0.3228 -0.0123 -0.0958
23309W        W43589   8.693  14.208  15.500 -0.1567 -0.1804  0.0149
23310W        W43590  18.244   8.963   1.098  0.0159 -0.1220 -0.0522
23311W        W43591   4.735   6.328   5.321 -0.0066  0.0227 -0.2409
23312W        W43592   1.412  16.548  13.104 -0.1174 -0.0734  0.1619
23313W        W43593   1.036   3.673  12.643  0.3100  0.1560 -0.1068
23314W        W43594   0.635   3.244   2.459  0.2532 -0.2220  0.1891
23315W        W43595   3.000  17.696   3.166  0.0875 -0.3892 -0.2373
23316W        W43596  15.319  10.276  13.853  0.1165  0.0199  0.0577
23317W        W43597  10.461   1.893  15.787 -0.2522  0.1644 -0.0850
23318W        W43598  12.919  10.283  13.773 -0.1333 -0.3499  0.0272
23319W        W43599   3.206  17.534   4.137 -0.2107  0.1741 -0.0887
23320W        W43600   1.502  15.646  12.852 -0.1708  0.2031 -0.1259
23321W        W43601   8.378   8.753  12.900  0.1078 -0.1868  0.0376
23322W        W43602  11.195   0.184  13.030  0.1472  0.2654  0.3987
23323W        W43603  17.152  11.395   0.071 -0.1618 -0.2702  0.0689
23324W        W43604  10.103  11.368  15.238 -0.0024 -0.0618 -0.1777
23325W        W43605   5.961   2.304   0.224  0.0303  0.1718  0.1538
23326W        W43606  10.325   8.776   1.963 -0.2599  0.0423 -0.1343
23327W        W43607  14.185   6.091   2.387 -0.1644  0.2804 -0.2704
23328W        W43608  12.845   7.803   2.905  0.0532  0.1951 -0.1444
23329W        W43609  16.331  13.604   2.786  0.0325 -0.2842  0.1759
23330W        W43610   5.541   6.884   1.779  0.0641 -0.4007  0.0751
23331W        W43611   7.823   6.535  15.099  0.1695 -0.2858  0.0301
23332W        W43612   4.630  14.331   1.279 -0.0019  0.0780  0.0160
23333W        W43613  13.216   6.789  12.419 -0.1263 -0.2056 -0.0333
23334W        W43614   2.318   2.898   1.672 -0.3157 -0.3146  0.1534
23335W        W43615  11.074   6.075   3.205  0.0102  0.0403 -0.0257
23336W        W43616   9.287  10.858   3.395 -0.0005  0.0705  0.3181
23337W        W43617   8.775  17.814   1.073  0.4069  0.2641  0.1602
23338W        W43618   2.604   1.028   3.830 -0.2375  0.2268  0.0831
23339W        W43619   6.053  13.713  15.096  0.2294 -0.1875 -0.0331
23340W        W43620   8.689   9.937   0.926 -0.1539  0.0650  0.0782
23341W        W43621   0.618  10.555   5.232  0.2565 -0.0751 -0.2123
23342W        W43622   6.936   4.732   0.104 -0.2728 -0.2707 -0.0144
23343W        W43623   8.018   2.111   0.105  0.0146  0.0314 -0.2067
23344W        W43624  15.968   4.801  12.518 -0.1546 -0.1633  0.0375
23345W        W43625  12.225   4.282   1.387 -0.0260 -0.4049 -0.1175
23346W        W43626  17.576  15.610   4.990  0.0322  0.2164  0.4782
23347W        W43627   2.701   8.513  12.725 -0.0299 -0.0449 -0.3305
23348W        W43628  18.274  15.610  11.170  0.1195 -0.0909  0.3632
23349W        W43629  14.620   9.923   3.757  0.1479 -0.2673 -0.0600
23350W        W43630  14.976   6.658   3.375 -0.3235  0.2504  0.1588
23351W        W43631  12.091   3.878   0.060 -0.2521 -0.1246  0.1210
23352W        W43632  16.694   2.934  14.829 -0.1413 -0.2002  0.1739
23353W        W43633   6.559  11.503  12.550 -0.0547 -0.0027 -0.3277
23354W        W43634   4.869   6.204   4.455  0.4727 -0.0997  0.0343
23355W        W43635   4.493  17.600   2.206  0.2819  0.2374  0.0363
23356W        W43636  15.190   0.346   1.331 -0.0002  0.3128  0.1796
23357W        W43637   7.684   1.855   2.274  0.2727 -0.0079 -0.2650
23358W        W43638  16.929   1.559  14.919 -0.3679  0.0010 -0.1767
23359W        W43639  12.024   4.172   0.494  0.0342 -0.1080 -0.1710
23360W        W43640  15.755   2.299  13.669  0.2266 -0.0043  0.4114
23361W        W43641  17.618  10.599  15.587  0.0355  0.0002 -0.0435
23362W        W43642   2.030  15.629   3.784 -0.0998  0.1104  0.2810
23363W        W43643  14.669   1.646  15.652  0.2222 -0.1443 -0.2722
23364W        W43644  11.159   2.988  11.743  0.0402  0.3506  0.0049
23365W        W43645  18.002   1.043  13.895  0.2473  0.1283  0.0714
23366W        W43646   9.146   7.824  12.746 -0.0478  0.2124  0.2743
23367W        W43647   5.246   4.481  15.574 -0.2870 -0.0397 -0.1324
23368W        W43648   0.501   8.686  14.927  0.3958  0.0060 -0.3267
23369W        W43649   8.458  15.328  14.674 -0.0845  0.0562  0.1783
23370W        W43650  13.359  17.248  14.185 -0.0072  0.0945 -0.2459
23371W        W43651  17.092   1.166   3.515  0.1324 -0.2296  0.0703
23372W        W43652   6.426   6.481  12.083  0.4552 -0.0514  0.1757
23373W        W43653  14.794  14.976   4.711  0.0180 -0.0379  0.1353
23374W        W43654   3.302   8.578  11.876  0.0818 -0.1995 -0.2515
23375W        W43655  16.668   5.870   2.653 -0.0580  0.2485 -0.1517
23376W        W43656  16.572   9.597   4.766  0.2717 -0.0726  0.2263
23377W        W43657  16.375   0.822  11.637  0.3968  0.0399  0.1301
23378W        W43658  13.296  11.661   1.185 -0.2736  0.0922 -0.0707
23379W        W43659   4.401   6.326   4.349  0.3749  0.0473 -0.0058
23380W        W43660  17.106  11.379  12.447  0.0688 -0.3513  0.0038
23381W        W43661   2.179   6.771  11.609 -0.1622  0.2517 -0.2409
23382W        W43662   1.621   3.787   1.962 -0.4098 -0.0094 -0.0486
23383W        W43663  16.832  16.202  13.635  0.1060 -0.0970  0.0524
23384W        W43664  14.206  11.431  15.581  0.3650  0.0836  0.0126
23385W        W43665  15.550  11.540   3.012  0.2830  0.1562  0.1683
23386W        W43666   6.098  17.497  11.833 -0.0860 -0.0709  0.1981
23387W        W43667   6.272   4.191  14.613  0.0442 -0.0743  0.1187
23388W        W43668   8.088   5.038  13.743 -0.0469 -0.1685  0.0719
23389W        W43669  13.545   3.099  13.684  0.0942 -0.1326 -0.1971
23390W        W43670   2.363   8.579  13.401  0.0612  0.0674 -0.3415
23391W        W43671  16.239  15.360   2.026  0.0224 -0.1211  0.3730
23392W        W43672   2.050   7.524  14.172  0.4341 -0.1538 -0.2098
23393W        W43673   2.419  14.978   2.707 -0.3415 -0.2706  0.1067
23394W        W43674  17.366  11.839   2.417 -0.1331  0.2076 -0.0013
23395W        W43675  11.019   0.439  14.902  0.1298  0.1868 -0.3576
23396W        W43676  15.483   5.660  12.504  0.0027  0.1228  0.1762
23397W        W43677   5.500  15.430  11.863 -0.1357 -0.0021  0.0178
23398W        W43678   0.483  15.329   4.810  0.1639 -0.0178  0.2124
23399W        W43679  17.908  14.616   0.668  0.2138 -0.1588 -0.2705
23400W        W43680   7.460   6.396  12.349 -0.1986 -0.0117 -0.2717
23401W        W43681   8.892   7.472  13.089  0.0263 -0.0008 -0.1331
23402W        W43682   4.226  14.767   0.636  0.1130 -0.2283 -0.0363
23403W        W43683   8.151   0.306   2.436 -0.2565 -0.0716  0.2776
23404W        W43684   6.356   2.160   1.620 -0.0183  0.0405 -0.1282
23405W        W43685   4.021   8.944   0.403 -0.1767 -0.1449  0.0347
23406W        W43686   6.356   5.345  14.992  0.2539  0.0061  0.2151
23407W        W43687  12.014   3.638  15.042 -0.0768 -0.3542  0.1999
23408W        W43688   5.444   4.867  12.875  0.0571 -0.3992  0.0369
23409W        W43689  14.029   4.208   0.612  0.2484  0.1703 -0.0972
23410W        W43690  16.206  16.099  13.720 -0.1033  0.1887  0.0131
23411W        W43691  14.938  13.753   1.475  0.0278  0.1909  0.0832
23412W        W43692   6.938   1.386   3.090 -0.0358 -0.2626  0.1052
23413W        W43693   0.478  17.631  12.434 -0.2427 -0.0778  0.4971
23414W        W43694  15.119   1.593  15.837  0.0509  0.0542 -0.1765
23415W        W43695  11.088  12.823   2.926 -0.2713 -0.1589  0.1991
23416W        W43696   1.142   3.592   0.314 -0.1254  0.4382  0.0567
23417W        W43697   2.240   1.708   3.287 -0.1824 -0.2353  0.0484
23418W        W43698  13.028  14.751  13.737 -0.3644 -0.1505 -0.0466
23419W        W43699  15.748   8.605   2.098  0.0380 -0.3491 -0.0083
23420W        W43700   4.726   2.345   1.894 -0.2673  0.1703  0.0050
23421W        W43701   3.149   0.008  12.363 -0.0557  0.0221 -0.0771
23422W        W43702   2.415   0.359   1.166 -0.3744 -0.0371 -0.2449
23423W        W43703  10.251   2.948  10.337  0.2300  0.0179  0.2603
23424W        W43704  12.788  13.562   1.023 -0.0368 -0.0587  0.2583
23425W        W43705  11.228   1.586   2.401 -0.1701  0.0792  0.0931
23426W        W43706   4.648   2.895  11.755  0.2915  0.0322 -0.1505
23427W        W43707   4.880   6.452   4.016  0.1260 -0.2733 -0.0369
23428W        W43708   6.381   8.806   1.510 -0.1732  0.2161 -0.0531
23429W        W43709   9.104   8.764   3.219 -0.4655 -0.0757  0.1044
23430W        W43710  10.620  17.002  11.712 -0.0772 -0.2434  0.0602
23431W        W43711   9.397  16.188  15.367  0.0548 -0.0096  0.0172
23432W        W43712  13.475  16.226   2.190 -0.1800 -0.0180  0.2445
23433W        W43713   4.416  11.359   4.689  0.4070  0.1777  0.0035
23434W        W43714  10.572  12.170  12.887 -0.1315 -0.0113  0.3031
23435W        W43715  10.195  12.225  14.987 -0.0688 -0.1133  0.3862
23436W        W43716   6.205  11.878  13.090 -0.2407  0.1892 -0.0949
23437W        W43717   8.824  13.807   1.405  0.2420  0.0716 -0.2941
23438W        W43718   0.800   6.323  14.194  0.2198 -0.0841  0.0658
23439W        W43719   1.760   3.087   3.950  0.0659 -0.2914  0.0847
23440W        W43720  11.638   1.981   2.467  0.0320 -0.1924  0.0412
23441W        W43721  12.007   1.053   1.903  0.1990  0.2950 -0.0649
23442W        W43722  14.659  14.903  13.785  0.2630 -0.3058 -0.2578
23443W        W43723  11.031  10.215  13.327 -0.3413 -0.0762  0.3029
23444W        W43724  11.963   6.327  11.621 -0.2303 -0.0911  0.0807
23445W        W43725  12.827   2.790  12.621 -0.1360  0.0727  0.1920
23446W        W43726  12.716   0.345   4.013 -0.0703 -0.0057  0.1067
23447W        W43727  17.252   6.234  12.458 -0.4583 -0.2600 -0.2063
23448W        W43728   3.587  14.068  15.158  0.1410 -0.0084 -0.2499
23449W        W43729   5.823   1.382  13.778  0.2700  0.1392 -0.5326
23450W        W43730   0.674   7.540  14.258  0.1036 -0.2325 -0.0106
23451W        W43731   1.928   8.810  12.684  0.0912  0.2969 -0.0664
23452W        W43732  17.358   7.331   5.049  0.0744  0.2754  0.1298
23453W        W43733  12.618   5.918   1.098  0.3599 -0.0992 -0.0859
23454W        W43734  11.157   1.204   0.611  0.1351  0.0754 -0.3792
23455W        W43735  11.728  12.411   0.356  0.0573  0.0104  0.0855
23456W        W43736  11.471   1.253  10.303  0.0056 -0.0237 -0.3138
23457W        W43737   0.709   9.649   0.319  0.2281 -0.0252  0.2898
23458W        W43738  12.625  13.006   5.350  0.0499  0.1475 -0.0872
23459W        W43739   9.782  11.412   3.996 -0.0503 -0.0450  0.1194
23460W        W43740   9.344   7.702  15.303  0.0234 -0.2901  0.0492
23461W        W43741   8.692  14.473  10.226 -0.2472  0.1622  0.0386
23462W        W43742   8.846  14.286   2.397 -0.1282 -0.0040  0.0828
23463W        W43743   4.934   6.717   3.596  0.0169  0.0779 -0.4196
23464W        W43744   4.355   2.015   4.284  0.0638 -0.0630  0.0360
23465W        W43745  11.895   4.811  12.679 -0.3146  0.0810  0.1420
23466W        W43746  13.655  16.211   1.057 -0.1693 -0.2026  0.0406
23467W        W43747   0.120   1.360  13.152  0.3087  0.1827 -0.0323
23468W        W43748   9.473   1.188  12.670  0.0755  0.1019  0.1128
23469W        W43749   7.855   2.540   2.761 -0.0388  0.0731 -0.0749
23470W        W43750   5.834  17.002  12.804 -0.0757 -0.0198  0.2223
23471W        W43751   8.303   6.806  14.667  0.1886 -0.0691 -0.1629
23472W        W43752   9.353   2.175  13.989  0.2268 -0.1065  0.1853
23473W        W43753   6.193   6.367   1.113 -0.1349  0.1823 -0.0274
23474W        W43754   1.343   6.258  15.721  0.1523 -0.1102  0.1651
23475W        W43755   3.762  10.552   1.427 -0.1037 -0.0256  0.1575
23476W        W43756   5.709  16.635   4.427 -0.1151  0.0470 -0.0215
23477W        W43757  15.793   8.325   0.724 -0.1223  0.4058 -0.3250
23478W        W43758   6.590   3.899  14.962  0.0546  0.0608  0.0024
23479W        W43759   8.225   6.614   1.868 -0.2173 -0.2910  0.1691
23480W        W43760  13.959   4.529  13.018  0.0855  0.0753 -0.0256
23481W        W43761   7.197  13.200  14.059  0.1468 -0.1622 -0.1020
23482W        W43762   9.986   7.130   1.201 -0.3143 -0.0312  0.0798
23483W        W43763   1.883  15.028   2.858 -0.1854 -0.0418  0.0806
23484W        W43764   7.989  10.203   1.767  0.0308 -0.0791 -0.0462
23485W        W43765  13.539   3.961   3.733  0.0892 -0.0934  0.0219
23486W        W43766   3.798  17.603  15.446  0.1782 -0.0385 -0.0779
23487W        W43767   7.614  14.261  15.532  0.0948  0.0032 -0.0897
23488W        W43768   9.381   7.181   4.465  0.1795 -0.0001 -0.0783
23489W        W43769   0.903   6.107  15.495 -0.1012 -0.0352  0.1220
23490W        W43770   6.306   4.677   0.331 -0.1571 -0.0455  0.2900
23491W        W43771  12.406  17.027   1.415 -0.0224 -0.2351  0.0308
23492W        W43772   4.308   7.164  13.975 -0.3404 -0.1960  0.2290
23493W        W43773   7.590  14.487  11.794 -0.0034 -0.0956 -0.0085
23494W        W43774   7.217  15.557   0.759  0.0586  0.0046  0.1061
23495W        W43775  16.501  17.527   3.243  0.2785  0.0178 -0.0458
23496W        W43776  15.794  16.973  13.577  0.0870  0.3059 -0.1136
23497W        W43777   7.564   1.128  11.549 -0.2572  0.0911  0.0043
23498W        W43778   0.988  11.241   0.150  0.0788 -0.1263 -0.4146
23499W        W43779  18.105   6.408   2.072  0.1998  0.0424 -0.1960
23500W        W43780   9.866  17.847   4.304 -0.2138 -0.1870  0.1283
23501W        W43781   0.612   4.830   4.377 -0.0778 -0.3886 -0.1662
23502W        W43782  15.427  18.257  13.156  0.3108 -0.0081  0.0307
23503W        W43783   6.765  14.463  14.000  0.1300  0.2247 -0.0153
23504W        W43784  11.698  17.501   3.913  0.2078  0.0045  0.0798
23505W        W43785   7.773  12.430  15.158  0.3690 -0.0998 -0.1065
23506W        W43786   5.306   3.915  14.323  0.2462 -0.1125 -0.0076
23507W        W43787   1.693   1.713  14.367 -0.2112  0.0698  0.0771
23508W        W43788   0.650   8.297   4.330 -0.3058  0.0595 -0.2575
23509W        W43789   5.388   6.484   0.593  0.0601  0.2678  0.3336
23510W        W43790   0.485   4.102  14.951  0.0382  0.0298 -0.1903
23511W        W43791  13.061   7.671   4.146  0.1472  0.1071  0.2758
23512W        W43792   4.856   9.159   1.670  0.0611 -0.4966  0.1485
23513W        W43793  15.382  16.363  14.594 -0.0353 -0.2697 -0.1225
23514W        W43794  10.541  10.980  15.897  0.0000 -0.2321  0.0430
23515W        W43795   9.212   0.177  11.722 -0.0562  0.2811 -0.1645
23516W        W43796   1.543  14.210   3.550 -0.1964 -0.1828  0.2835
23517W        W43797   1.492   6.680  15.137  0.2873  0.0118  0.1138
23518W        W43798   2.764   9.016   3.479  0.2725 -0.1596 -0.0024
23519W        W43799   5.762   1.771  12.247 -0.0417 -0.2610  0.2018
23520W        W43800   3.907  10.979  15.483 -0.2921  0.1357  0.1137
23521W        W43801  14.261  17.377   3.337 -0.1947 -0.1047 -0.0406
23522W        W43802   4.533   5.733   1.709  0.0321  0.3072  0.2042
23523W        W43803  10.838   9.584   4.528  0.3281 -0.0418  0.1665
23524W        W43804  15.559  13.040  11.703  0.2279 -0.1127 -0.0083
23525W        W43805  11.432  12.637  15.677  0.2785  0.1103  0.0454
23526W        W43806   3.869  18.160  13.526  0.0446  0.1308 -0.2276
23527W        W43807   3.605   8.542   2.318 -0.1745  0.0302  0.2365
23528W        W43808  15.611  17.272   2.702  0.4263  0.1083 -0.2737
23529W        W43809  14.771   8.288   4.038 -0.1166  0.0270 -0.0877
23530W        W43810  14.599  10.754  15.052  0.2158 -0.1578  0.0011
23531W        W43811  10.984   9.084   3.049  0.0298 -0.0340 -0.0486
23532W        W43812   2.180   2.377  11.499 -0.1486  0.0503  0.0427
23533W        W43813  10.656  12.451  15.186  0.1868  0.1010 -0.1373
23534W        W43814   0.378   6.735   0.853  0.0003 -0.0730  0.1825
23535W        W43815   0.036  12.800  12.833 -0.0897 -0.0214 -0.2962
23536W        W43816   9.419   5.736  12.068  0.0110 -0.0936 -0.0433
23537W        W43817   1.444   9.204   2.672 -0.0274 -0.0643 -0.1637
23538W        W43818   5.558   6.805   4.122  0.0887  0.0700  0.2596
23539W        W43819   7.710  17.949   2.978  0.1397  0.1194 -0.1551
23540W        W43820   0.898   0.484   0.560  0.6084  0.1199  0.0217
23541W        W43821  15.741   0.047  13.466  0.0793 -0.2176 -0.2888
23542W        W43822  11.246  12.607   3.831  0.1414  0.2710 -0.3344
23543W        W43823   1.999   1.636  13.297 -0.0131  0.1426  0.1006
23544W        W43824  17.515  15.611   3.541 -0.1019  0.0331 -0.1421
23545W        W43825   8.646   5.344  11.846  0.2526  0.0074  0.2034
23546W        W43826   1.737   6.796  11.871  0.1554 -0.3259 -0.2656
23547W        W43827  11.506   1.031   4.469 -0.0944  0.0046  0.2374
23548W        W43828  17.703   7.856   3.483 -0.0659 -0.2651  0.1800
23549W        W43829   8.386  10.512  12.526 -0.0077 -0.1579  0.0731
23550W        W43830   3.370   1.089  13.192  0.1350  0.1442  0.1781
23551W        W43831  16.771   1.697   4.236  0.1753  0.0658 -0.0709
23552W        W43832  16.418   8.588  14.122 -0.1465  0.1415  0.0701
23553W        W43833  11.874  11.092  15.472 -0.0994 -0.1790 -0.0843
23554W        W43834  13.351  13.986   2.336 -0.0451 -0.2594 -0.1979
23555W        W43835  16.314   1.197   3.178 -0.0953  0.5744 -0.1100
23556W        W43836   7.884   5.378   5.277  0.2001 -0.0875 -0.1093
23557W        W43837  14.831  15.735  12.669  0.1775 -0.0022 -0.1246
23558W        W43838   8.670  15.019  12.637  0.1727  0.5304  0.1397
23559W        W43839   2.097   2.288  11.964 -0.0136 -0.4327  0.2780
23560W        W43840  11.932  11.281  11.579  0.0301 -0.0547  0.1308
23561W        W43841  18.320   9.848  15.800 -0.1170  0.1616  0.1828
23562W        W43842   3.692  17.799  14.840  0.0566  0.0073  0.0932
23563W        W43843   9.937  14.997   3.999  0.4200 -0.0428  0.1554
23564W        W43844   4.684  11.541  11.247 -0.1620 -0.1818  0.0275
23565W        W43845   8.970   1.726   1.119 -0.0206 -0.2863 -0.1542
23566W        W43846  11.665  12.941   3.820 -0.0727  0.2809  0.0617
23567W        W43847  12.205   4.086  12.355 -0.1144 -0.1835 -0.4441
23568W        W43848  17.910   8.287  14.573  0.1531 -0.0670  0.1374
23569W        W43849   9.720  15.622  14.754  0.1178  0.0056  0.5579
23570W        W43850  11.729  12.457   3.953  0.0448 -0.0160  0.1593
23571W        W43851   2.031  13.967   3.561 -0.3669  0.1162  0.0706
23572W        W43852  15.119  15.461   1.805  0.1677  0.2803 -0.1846
23573W        W43853   5.786   9.883  12.073 -0.1132  0.0135 -0.0787
23574W        W43854   8.575   0.652  11.303  0.2064  0.0989 -0.0832
23575W        W43855   5.083   3.200  12.912 -0.0109 -0.1096  0.1227
23576W        W43856   3.146  12.814  13.753  0.2340 -0.0632 -0.1563
23577W        W43857   2.627   6.421   3.178  0.1732 -0.1264 -0.3344
23578W        W43858  15.769   6.485   1.486 -0.1893 -0.2521 -0.0466
23579W        W43859  17.107  17.618   2.080  0.1110  0.1111  0.0015
23580W        W43860  10.113   4.232  13.296 -0.0383 -0.2411 -0.0549
23581W        W43861   0.400   2.840   2.862  0.0490  0.0169  0.1429
23582W        W43862   7.375   9.000  13.150 -0.1831 -0.0327 -0.2564
23583W        W43863   5.029  11.341   1.531 -0.0488  0.1213  0.1928
23584W        W43864   4.517   4.625  11.599 -0.0441 -0.1269 -0.0578
23585W        W43865   4.583   6.038  15.838 -0.0700 -0.0333  0.2297
23586W        W43866   6.233   7.111  14.590  0.1054  0.2606 -0.0533
23587W        W43867  17.386   2.211   1.468  0.0407 -0.2757 -0.1239
23588W        W43868   4.455  10.557  12.602 -0.2645  0.0765 -0.1171
23589W        W43869   7.275   6.027  12.019 -0.1219  0.1193 -0.1408
23590W        W43870  11.376  14.033   0.414  0.5734 -0.0102 -0.1510
23591W        W43871   5.592  17.166   3.152 -0.1406  0.2953  0.0152
23592W        W43872  10.035  16.302   0.454 -0.3093 -0.0142  0.0450
23593W        W43873   4.562  18.273   3.845  0.0854 -0.1969 -0.0673
23594W        W43874   2.654   6.428   4.470  0.0441  0.0891  0.0319
23595W        W43875   3.894   1.939  12.986  0.0546  0.4393  0.4989
23596W        W43876   7.096  16.904   0.986 -0.0101 -0.0329 -0.0709
23597W        W43877   7.047  16.179   2.113  0.1945 -0.1918  0.1938
23598W        W43878   6.150   8.065   0.367  0.2065  0.1960  0.0716
23599W        W43879   7.217  10.655   0.988  0.4220  0.0458 -0.0632
23600W        W43880   5.183   5.887  12.698  0.1663  0.1487 -0.3710
23601W        W43881  11.488   8.755   3.831  0.2028 -0.1372  0.1084
23602W        W43882   4.028  14.623   4.776  0.0745  0.0386  0.1139
23603W        W43883   4.123  15.747   0.439 -0.0888 -0.0431  0.3656
23604W        W43884   5.629   3.557  13.616  0.1181  0.1475 -0.0810
23605W        W43885  15.963  14.801  12.851 -0.2733  0.1166  0.1154
23606W        W43886  13.770   9.166   0.557 -0.0547  0.1569  0.0940
23607W        W43887   8.496   8.295  15.479 -0.2357  0.3994 -0.0558
23608W        W43888   9.062   3.065   2.463 -0.0357 -0.1039 -0.1425
23609W        W43889   8.227   1.225   2.412  0.0469 -0.2223  0.0950
23610W        W43890   1.301  11.483   2.286  0.0944 -0.0206  0.2565
23611W        W43891   4.757   0.810   4.165  0.0675  0.0652  0.1311
23612W        W43892  11.477   2.426   3.203  0.0215  0.4208 -0.1661
23613W        W43893   9.419   7.078   0.459 -0.0521  0.0611  0.1857
23614W        W43894   9.468  11.484   4.854 -0.2985  0.0982 -0.0870
23615W        W43895  10.523  17.569  12.387 -0.0162 -0.1289  0.0307
23616W        W43896  15.382   8.575   3.314  0.0955 -0.2417  0.3309
23617W        W43897  10.493  10.032   2.343 -0.0156  0.2374 -0.2148
23618W        W43898   0.788  17.804   0.005  0.1346  0.0815  0.1159
23619W        W43899   8.855   1.106   3.712 -0.0612  0.0451 -0.0595
23620W        W43900  14.408  17.651   0.802 -0.5001 -0.0992 -0.2107
23621W        W43901   1.896  13.800  14.529 -0.0131 -0.1018  0.0886
23622W        W43902   7.490   7.222   5.308  0.1891  0.2211  0.0434
23623W        W43903  16.693   3.520   1.192 -0.1673 -0.0914  0.1790
23624W        W43904   1.353  15.728  14.366 -0.0718 -0.3705 -0.1007
23625W        W43905   1.379   5.539  12.041  0.1480  0.0421  0.0693
23626W        W43906  18.112   6.448  13.841  0.0983 -0.1566 -0.0453
23627W        W43907  15.983  11.250  10.467  0.2180 -0.2840  0.3287
23628W        W43908   9.712   7.674  13.756  0.3521  0.0291 -0.0836
23629W        W43909  16.178  18.232  15.413  0.0243  0.0669  0.1248
23630W        W43910   5.251   0.876   0.815  0.0806  0.0011  0.1050
23631W        W43911   9.183  18.335   3.911 -0.4311  0.1053  0.0578
23632W        W43912   0.568  15.121   2.134  0.0364  0.4041  0.2090
23633W        W43913  13.046  16.989  15.300 -0.0526  0.1013  0.2303
23634W        W43914  16.311   2.706   2.986 -0.0253  0.0216  0.1868
23635W        W43915   9.346   2.063   3.513 -0.1997  0.0658 -0.1591
23636W        W43916  12.775  14.607  12.450  0.2186  0.0064 -0.0106
23637W        W43917  14.579  11.116  15.578 -0.1840  0.2065  0.0009
23638W        W43918  10.843   8.466  12.586  0.1628 -0.0715 -0.1873
23639W        W43919  10.816   0.703   0.949 -0.2636  0.1568 -0.1441
23640W        W43920  11.028  14.975   1.371 -0.1209 -0.0883 -0.1669
23641W        W43921   0.622  15.667  13.212 -0.0248 -0.2274 -0.1878
23642W        W43922   2.768   5.318  11.661  0.0760  0.0238 -0.0694
23643W        W43923  11.716   4.836   3.486  0.2104 -0.4899  0.2929
23644W        W43924  18.103  11.604   0.529 -0.1065 -0.0389 -0.1813
23645W        W43925   6.818  10.206  14.085 -0.2768 -0.2842 -0.0183
23646W        W43926  18.170   3.299  11.667 -0.1554 -0.0497  0.0554
23647W        W43927   5.847  15.607  11.129  0.0922  0.0488 -0.0790
23648W        W43928  17.817  14.861   1.229  0.0776  0.2025 -0.1466
23649W        W43929  13.144  11.511  12.763 -0.3108 -0.0794  0.1550
23650W        W43930  10.609  10.639  12.655 -0.1474  0.0023 -0.1896
23651W        W43931  17.410   7.212   0.629  0.1565  0.4313 -0.0496
23652W        W43932  15.421   9.381   4.057 -0.0570 -0.2478 -0.0690
23653W        W43933   3.401   3.994  11.737  0.1201 -0.0842  0.3912
23654W        W43934  12.789  11.840  12.486 -0.1067 -0.1446  0.0500
23655W        W43935   8.128   1.968  14.065  0.1431 -0.1193 -0.0219
23656W        W43936   0.343  10.733  11.075  0.0405 -0.3896 -0.1751
23657W        W43937  16.752   0.820   4.356 -0.2418 -0.0495  0.2702
23658W        W43938   4.236   3.818  12.254  0.0693 -0.0227 -0.1817
23659W        W43939   8.618   9.065  15.039 -0.1081 -0.0934 -0.0892
23660W        W43940  18.104  16.134  15.151  0.0152 -0.3047 -0.4096
23661W        W43941  17.350  15.493  11.186 -0.0543 -0.2929 -0.0252
23662W        W43942  14.319   7.730   4.103  0.1918 -0.1224 -0.1075
23663W        W43943  16.545  14.454   2.904  0.0228  0.2146 -0.3266
23664W        W43944   4.007  11.488  15.834  0.1491  0.0308 -0.1840
23665W        W43945   1.891  15.887   2.559 -0.2250 -0.1628 -0.1790
23666W        W43946   2.965  17.658   1.365  0.0596 -0.1211 -0.3742
23667W        W43947   7.172  14.794  13.872  0.3777 -0.0756 -0.0044
23668W        W43948  10.339   8.642  12.019  0.1175  0.2823  0.1572
23669W        W43949  12.708   9.076   2.277 -0.1467 -0.0921  0.1408
23670W        W43950  15.540   0.121   2.620  0.0086 -0.0753  0.0806
23671W        W43951   6.641   0.418  12.536 -0.0412  0.4009  0.0300
23672W        W43952   1.089  10.046   2.458 -0.1413 -0.0257  0.1969
23673W        W43953   1.879   2.840   0.684 -0.1640  0.2543  0.1662
23674W        W43954   0.027   4.945   2.587  0.1819 -0.3475 -0.0063
23675W        W43955  15.189  18.015   3.730  0.1544 -0.1021  0.2216
23676W        W43956   9.349   9.510  13.257 -0.0452  0.0996  0.0458
23677W        W43957  10.328   3.600   3.968 -0.2742 -0.0188 -0.0935
23678W        W43958   8.763   5.188   0.324  0.0667 -0.0566 -0.0157
23679W        W43959   8.162  17.437  12.713  0.0072 -0.1781  0.1807
23680W        W43960  16.930   6.997  12.896 -0.0113  0.0518  0.0563
23681W        W43961   7.368   8.636   5.481  0.2612 -0.1974 -0.3950
23682W        W43962   8.049   4.075   1.381 -0.0197  0.0140  0.2892
23683W        W43963   4.251   8.507   0.482  0.2147  0.2269  0.1697
23684W        W43964   9.872  14.157  13.572 -0.2811  0.0778 -0.0561
23685W        W43965  12.436   4.958  12.070 -0.3407  0.1223 -0.0333
23686W        W43966  12.425   0.831   1.781  0.2376 -0.0736 -0.1491
23687W        W43967   4.192  15.694  13.234  0.0223 -0.2711 -0.1123
23688W        W43968  11.996  10.230   0.900  0.1270  0.0557 -0.2391
23689W        W43969  15.668   3.571  12.394 -0.3350  0.2524 -0.1009
23690W        W43970   8.170  17.503  14.074 -0.0008 -0.2356  0.0019
23691W        W43971   8.519   4.709   2.072  0.3502 -0.1654 -0.1505
23692W        W43972  15.578  14.338   3.725 -0.0130 -0.0849 -0.2312
23693W        W43973   9.293   2.723   1.143  0.0037  0.0112  0.2741
23694W        W43974   6.904  12.452   3.291  0.0417  0.1109 -0.0556
23695W        W43975   5.005  13.306   3.028  0.1249 -0.1180  0.1291
23696W        W43976   8.138  14.529   4.237 -0.1351 -0.1957 -0.1473
23697W        W43977  13.758   4.651  15.937  0.0040  0.3684 -0.1075
23698W        W43978   6.908   4.274   1.950  0.0178 -0.1219 -0.1815
23699W        W43979   6.081  18.239  15.577  0.0724 -0.0920  0.0489
23700W        W43980   0.279   7.175  11.553 -0.0038  0.3795 -0.0080
23701W        W43981  16.241   8.388  15.598  0.1637 -0.1058 -0.0616
23702W        W43982  10.988   4.968   4.259  0.1906  0.0657  0.0028
23703W        W43983  18.108  16.969   2.234 -0.2853 -0.0497 -0.1490
23704W        W43984   8.542   5.812   3.140 -0.0395  0.0724  0.0206
23705W        W43985   5.725   5.322  14.011 -0.3301 -0.0227  0.0239
23706W        W43986   1.004   6.645  15.523 -0.2457 -0.0570  0.0354
23707W        W43987  13.233  15.906  15.097  0.1390  0.2965 -0.1458
23708W        W43988   1.755  16.853   0.961 -0.1074  0.0905 -0.1287
23709W        W43989   6.719  14.981  14.265  0.0104  0.0831 -0.0589
23710W        W43990   2.915   2.729  12.460  0.2313 -0.2386 -0.2659
23711W        W43991  11.016   0.301   2.102  0.1952 -0.0236 -0.2719
23712W        W43992   1.172   0.101   0.865  0.0515  0.0355  0.1517
23713W        W43993  12.624   7.332   2.798  0.1086  0.2355 -0.1121
23714W        W43994   5.664  16.671   2.971  0.1087 -0.2448  0.0061
23715W        W43995  14.010   8.978  11.111  0.4846 -0.0585 -0.0958
23716W        W43996  16.850   9.697  14.790 -0.1427  0.1321  0.0643
23717W        W43997  11.139   8.893   0.984  0.0459 -0.0511  0.4694
23718W        W43998   1.135   1.333  12.928  0.0323 -0.0140  0.3151
23719W        W43999   0.808   4.635  15.760  0.1124 -0.0441 -0.1052
23720W        W44000  14.624  15.947  14.659  0.0171  0.1422 -0.1750
23721W        W44001   8.393   4.165  11.505 -0.5374 -0.1029  0.2304
23722W        W44002  12.615  15.617   5.459  0.0753 -0.0563 -0.0597
23723W        W44003  11.325  17.448  14.917 -0.0117  0.0814  0.2963
23724W        W44004  14.693  10.688  12.239 -0.0410  0.3042 -0.0685
23725W        W44005   7.446   2.460  12.066 -0.3569 -0.3614  0.0664
23726W        W44006   1.340  11.443  15.188  0.1250 -0.0878  0.0064
23727W        W44007  11.103  17.925   2.337  0.1720  0.2756  0.0141
23728W        W44008   4.712   6.625   1.564  0.1258 -0.1398  0.0074
23729W        W44009   7.651   3.674   1.859 -0.1354 -0.0336  0.0715
23730W        W44010  11.987  12.924  13.605  0.0115  0.0153  0.0695
23731W        W44011  17.873   7.270  14.639 -0.1031  0.0577  0.2799
23732W        W44012   8.813   7.854  11.737 -0.1104  0.0851  0.1228
23733W        W44013  14.620  10.281  15.073 -0.0847  0.2134 -0.0461
23734W        W44014  15.087  14.291   3.470 -0.0499 -0.3133  0.1420
23735W        W44015   1.976   4.455   3.233  0.0444  0.2618 -0.1690
23736W        W44016   4.746  14.829  13.657  0.0019 -0.0585  0.0392
23737W        W44017   2.308  16.601   2.291  0.4242 -0.0687  0.3745
23738W        W44018   6.083   9.643  13.633  0.0464 -0.0968 -0.3352
23739W        W44019  17.548   8.166   1.882  0.0979  0.3087 -0.1253
23740W        W44020   6.506  10.464  11.625  0.2635  0.1859  0.0075
23741W        W44021  17.877  13.570   0.559 -0.0026  0.1304  0.2498
23742W        W44022   7.390  11.065   3.570  0.0127  0.0546 -0.0828
23743W        W44023   8.907   6.834   5.486  0.0421  0.3416 -0.0186
23744W        W44024  15.433   9.991  11.138  0.4444  0.0090 -0.0193
23745W        W44025   2.342   0.697   0.497 -0.0648 -0.1039 -0.2450
23746W        W44026   5.398   9.325   1.748  0.1995  0.0158 -0.0067
23747W        W44027  16.801  16.594   0.204  0.0530 -0.4384 -0.2615
23748W        W44028  11.243   8.414  15.773  0.0262  0.1510 -0.4348
23749W        W44029   0.163   1.379   2.783  0.2891  0.1458  0.0839
23750W        W44030   7.140   7.213   2.220 -0.2333  0.0805  0.1854
23751W        W44031   4.742  13.079   1.896 -0.3338  0.0363  0.1194
23752W        W44032   5.198  13.431   0.122 -0.0066 -0.1626  0.2980
23753W        W44033   8.027   9.929  14.855  0.5178 -0.1605 -0.0343
23754W        W44034  13.998  10.311   0.871  0.1037  0.0056 -0.3104
23755W        W44035  15.871   4.548  14.369  0.2447  0.0857  0.0147
23756W        W44036  16.033   2.304   3.187  0.5316 -0.0070  0.1204
23757W        W44037   8.366   1.397  14.378  0.0586 -0.0900  0.1101
23758W        W44038  11.388   7.364   3.872  0.2361 -0.1909 -0.0479
23759W        W44039  11.439   3.358  11.867 -0.2412 -0.0044 -0.5091
23760W        W44040  17.533  16.841  14.624  0.2372  0.0152 -0.0471
23761W        W44041  11.801  17.670  14.119  0.1823 -0.0668  0.0658
23762W        W44042   2.107   2.590  13.227 -0.0008  0.0091 -0.0508
23763W        W44043  10.458  17.609  11.795 -0.2766  0.1819  0.5393
23764W        W44044   3.846   9.905  12.353 -0.2666 -0.1180 -0.0980
23765W        W44045  18.149   5.972  13.398 -0.0947  0.1284 -0.0017
23766W        W44046   4.810  16.625  13.441 -0.0137 -0.0256  0.1419
23767W        W44047  10.056   2.794   0.151  0.1221 -0.1066  0.0248
23768W        W44048   8.660  15.731   4.095 -0.1593  0.0580 -0.0541
23769W        W44049  18.037   4.931  14.182  0.2061 -0.1768 -0.1880
23770W        W44050   8.533  13.633   6.114 -0.0946 -0.1002 -0.2342
23771W        W44051  14.330  10.936   3.033  0.0262 -0.3896 -0.4929
23772W        W44052  10.764   6.032  12.578  0.1287  0.0579  0.0271
23773W        W44053   8.187  16.423   2.287  0.2565 -0.1216  0.3047
23774W        W44054   2.024  15.540  13.879 -0.2330  0.1917  0.2563
23775W        W44055  15.985   6.615   0.818  0.0301  0.1958 -0.0027
23776W        W44056  11.984  17.664   3.475  0.2127 -0.1489 -0.3398
23777W        W44057   3.399  13.883  13.309 -0.2406 -0.1365  0.0399
23778W        W44058  13.001  12.301  11.712 -0.0724 -0.1178 -0.0929
23779W        W44059   6.500   5.535   4.934  0.2237 -0.0219  0.4272
23780W        W44060  14.246   7.451  12.942  0.0641 -0.1065 -0.0794
23781W        W44061   1.516   0.434  13.531  0.0449 -0.0909 -0.1956
23782W        W44062   7.033  11.806   2.679  0.2114  0.4961 -0.0210
23783W        W44063   2.572   8.206  15.585  0.0249  0.4258 -0.2262
23784W        W44064   4.544   3.113  15.239 -0.0283  0.2614  0.2765
23785W        W44065  10.991  17.286  15.777 -0.0154  0.0052 -0.1367
23786W        W44066  10.844  17.209  13.190  0.2224  0.2892 -0.0145
23787W        W44067  14.228   3.705  15.580 -0.0045 -0.1017 -0.0790
23788W        W44068  13.950  16.648  15.629  0.0211 -0.2987  0.0610
23789W        W44069   5.455  12.137  11.037  0.0318 -0.2966 -0.1249
23790W        W44070  16.835  10.127   2.353 -0.0183 -0.0706  0.0816
23791W        W44071   0.338  18.137  12.260  0.0344  0.0533  0.1310
23792W        W44072   4.046  10.640   1.041 -0.0765 -0.2114  0.0230
23793W        W44073   4.384   8.251  14.283  0.1959 -0.1889 -0.1030
23794W        W44074   5.002   3.310  13.468  0.2476 -0.2826 -0.0250
23795W        W44075  10.041   2.435  11.173  0.0963 -0.0273 -0.1485
23796W        W44076  13.734   5.555   2.654 -0.0432  0.0873  0.2056
23797W        W44077   4.407  10.811   3.917 -0.0714  0.1510 -0.0231
23798W        W44078   6.248   0.040  11.378 -0.0294 -0.1125 -0.0378
23799W        W44079   0.978   8.874  13.011  0.1734 -0.0574 -0.2198
23800W        W44080   6.449  16.839   3.798  0.0963  0.0080  0.0751
23801W        W44081  14.281  10.848  13.993  0.0232  0.1471  0.0335
23802W        W44082  10.440   9.178  14.589  0.0905  0.0592  0.2903
23803W        W44083  16.615   6.945   4.576  0.2391  0.0156 -0.2032
23804W        W44084  13.494   6.000  12.906 -0.1032 -0.1252 -0.0955
23805W        W44085  11.192  14.513   3.888  0.2293  0.1087 -0.0268
23806W        W44086  14.270   7.038  13.925  0.0776  0.1625 -0.2683
23807W        W44087  10.568  17.688   4.529 -0.1458  0.0527  0.1474
23808W        W44088  15.696   9.951  13.814 -0.0199  0.0693  0.2416
23809W        W44089   8.404   8.630  15.038 -0.3998 -0.2141  0.1408
23810W        W44090  12.228   6.119   3.356 -0.1763  0.0334 -0.0200
23811W        W44091   3.094   6.867   2.419  0.0300  0.0621  0.1952
23812W        W44092   0.061   5.643   0.001 -0.1310 -0.3607 -0.2041
23813W        W44093   8.035  10.865  15.001  0.1546 -0.2402  0.1869
23814W        W44094  15.324  15.145  15.477  0.1587 -0.1016 -0.0748
23815W        W44095  13.133  12.902  15.784  0.2183  0.0812 -0.1852
23816W        W44096   8.391  16.142  13.311 -0.0081 -0.2275 -0.2415
23817W        W44097  10.034   2.576   0.872 -0.1663 -0.0661 -0.0834
23818W        W44098  14.835  17.723  11.635  0.1125  0.3864  0.1914
23819W        W44099   5.428  10.178  12.329  0.3727  0.1103 -0.3009
23820W        W44100   3.082   6.916  13.558 -0.0428 -0.1781  0.0179
23821W        W44101   9.913  12.492  14.093 -0.1489 -0.2652 -0.1864
23822W        W44102  16.085   5.259   0.644 -0.0676  0.1405  0.1670
23823W        W44103   9.224   0.021   0.181 -0.0048  0.2708 -0.0194
23824W        W44104  14.801   9.245   5.461  0.1246 -0.2833 -0.0953
23825W        W44105  16.516   2.134   1.166 -0.0991  0.1151  0.1844
23826W        W44106   7.861   7.097   4.689 -0.1672 -0.0931 -0.0407
23827W        W44107   2.069  11.596   3.212  0.0742  0.1671 -0.3804
23828W        W44108   1.508   3.575   4.110  0.0115 -0.0278  0.1019
23829W        W44109   2.839  11.063   3.663  0.1515 -0.0508 -0.1219
23830W        W44110  16.260  15.037  14.916  0.0359 -0.0661  0.3926
23831W        W44111   8.264   6.855  12.595 -0.0455 -0.1731  0.2941
23832W        W44112   6.578  10.142  12.818 -0.0154 -0.0718 -0.0366
23833W        W44113  13.358   7.911   2.986 -0.2060  0.0679 -0.1285
23834W        W44114  12.896  13.322   4.016  0.0602 -0.1696  0.0534
23835W        W44115  10.930   6.030  12.111  0.0557 -0.5044  0.0485
23836W        W44116   5.275   3.883   3.122 -0.2415  0.0279  0.2557
23837W        W44117   9.543   8.609  14.832 -0.1046  0.2885  0.1585
23838W        W44118   8.331   9.698   2.490  0.3222  0.0866 -0.0227
23839W        W44119   4.277  17.016  11.365  0.2244  0.1197 -0.0581
23840W        W44120   5.906   3.162  14.878 -0.2496  0.0864 -0.1707
23841W        W44121   3.770   4.718   3.993 -0.0725 -0.3946 -0.0637
23842W        W44122  11.208   6.212  14.382  0.1032 -0.1107  0.1365
23843W        W44123  14.088   9.860   0.629  0.3992  0.0834  0.1450
23844W        W44124  11.988  15.901   4.260 -0.0407 -0.3376 -0.0650
23845W        W44125   9.132   9.031   2.823  0.0899 -0.2223 -0.2349
23846W        W44126  10.518  10.104  14.956 -0.0024  0.1157 -0.0564
23847W        W44127   1.762  17.409   1.207 -0.0212 -0.3346  0.0661
23848W        W44128   3.074   3.333   1.266  0.0002 -0.1684  0.0539
23849W        W44129   1.685   9.377  15.386 -0.2805  0.1379 -0.0632
23850W        W44130  16.599  12.953  14.109  0.0111 -0.0172  0.0722
23851W        W44131   3.331  18.172  11.450 -0.2586  0.0314  0.4363
23852W        W44132   4.588  16.042  14.241  0.0727 -0.0387 -0.5561
23853W        W44133   7.826  16.649   0.580  0.1620  0.0542  0.0767
23854W        W44134   5.676   3.848  15.556  0.3977  0.2421 -0.0276
23855W        W44135  15.314  10.258   4.437 -0.1907  0.2632  0.2759
23856W        W44136   8.653  11.210   2.532 -0.1979 -0.0624 -0.0441
23857W        W44137   0.813  13.297   2.191  0.0239 -0.1618 -0.0180
23858W        W44138   0.083  14.246  14.803 -0.0446  0.2599 -0.0709
23859W        W44139   6.112   3.692   0.791 -0.0853  0.2929 -0.0553
23860W        W44140   6.717   1.421   3.897 -0.4167 -0.2166  0.3378
23861W        W44141   0.727   0.697  15.104 -0.3607  0.1469  0.1079
23862W        W44142  13.522   2.369  12.496 -0.1117 -0.0639 -0.1231
23863W        W44143  14.834   1.737   0.413 -0.1835 -0.2652 -0.1841
23864W        W44144  11.672   3.929  13.991 -0.0620  0.2515 -0.1430
23865W        W44145  10.792   1.706   2.579  0.1086  0.1608  0.0401
23866W        W44146   4.791  18.002   2.233  0.0614 -0.4703 -0.0165
23867W        W44147  14.624   0.946   1.179  0.1983 -0.1674 -0.0783
23868W        W44148  16.806   1.196   2.467  0.3408  0.0052 -0.1248
23869W        W44149   3.588  15.759   2.124  0.1156  0.2155  0.0137
23870W        W44150   8.583   3.352  11.629 -0.0337  0.3443 -0.1769
23871W        W44151   1.412   9.673   4.407  0.0954  0.0279  0.0073
23872W        W44152   1.215  16.206   3.369  0.5209  0.0817  0.0218
23873W        W44153  11.717  14.638  11.328  0.0082  0.0458  0.3307
23874W        W44154  16.422  16.702   3.185 -0.0614  0.0833  0.0621
23875W        W44155  10.237   2.828  15.496 -0.1215  0.1098  0.0623
23876W        W44156  10.896   2.439   2.994  0.0038 -0.1625  0.1092
23877W        W44157  15.257   7.248  14.358  0.0925 -0.1283 -0.1285
23878W        W44158   4.343   9.032  11.475 -0.2337 -0.1142 -0.1412
23879W        W44159   5.945  10.617  13.796  0.0786 -0.1463 -0.2323
23880W        W44160   4.241  16.543   0.934  0.0331 -0.2215  0.2544
23881W        W44161   2.381   3.480  12.029 -0.0356  0.0540  0.1194
23882W        W44162   5.140   2.086   3.400  0.0414 -0.2161 -0.0100
23883W        W44163  15.326   7.519  14.995  0.2377  0.5103  0.2426
23884W        W44164   5.297  10.222   4.413 -0.1308 -0.1042  0.3502
23885W        W44165   9.350  16.037  14.126 -0.3285 -0.0007 -0.1601
23886W        W44166  12.405  15.672   0.223  0.2687  0.3383  0.3431
23887W        W44167   7.840   5.223   1.823 -0.2592 -0.2309 -0.0235
23888W        W44168   7.615  12.842  11.430  0.0473  0.3439  0.1558
23889W        W44169   0.926   5.659   3.969 -0.2516 -0.1001 -0.0488
23890W        W44170  11.813   4.059  15.180  0.3138  0.2197 -0.2217
23891W        W44171  10.198   7.941   3.816 -0.0636  0.1912 -0.0358
23892W        W44172   7.589  10.988   1.073 -0.1142 -0.2963 -0.3586
23893W        W44173  16.102  13.925  11.739  0.0975 -0.1272 -0.3345
23894W        W44174   4.900   9.599   1.885  0.1296  0.0118 -0.2077
23895W        W44175   3.553  16.055  13.709  0.0647 -0.3478  0.2335
23896W        W44176  11.103   9.768   1.661 -0.2716 -0.1311 -0.0252
23897W        W44177  16.981   0.152  15.375 -0.0090  0.1723 -0.0926
23898W        W44178  16.090  12.785  10.900  0.0123  0.0741  0.1744
23899W        W44179  17.072   4.100   1.379  0.0662  0.2967  0.3069
23900W        W44180   3.139  12.453  12.746 -0.1128  0.0278  0.2011
23901W        W44181   8.291   5.382   0.306  0.2562  0.3502 -0.1057
23902W        W44182  10.179  15.050  13.924 -0.0305  0.0541  0.1450
23903W        W44183   3.400   6.407   0.268 -0.0069 -0.0636  0.0500
23904W        W44184   2.733   7.478   0.771 -0.1139  0.0207 -0.3184
23905W        W44185  17.355  12.926   4.151 -0.2678  0.0019 -0.1144
23906W        W44186   9.821   6.633   1.131  0.2000  0.1941 -0.1565
23907W        W44187   5.189  11.056  14.337  0.2993  0.2472  0.0914
23908W        W44188  14.810   6.791  14.638 -0.0425 -0.1579 -0.0805
23909W        W44189   1.937  11.812   4.042  0.0852  0.1624  0.1800
23910W        W44190  10.128   2.173   3.555 -0.1642  0.0111  0.1964
23911W        W44191   9.219   5.717   1.524 -0.0805 -0.4193  0.1446
23912W        W44192   2.679  10.158  13.280 -0.4824 -0.2137  0.1176
23913W        W44193   9.257   4.888  14.132 -0.1609  0.1746 -0.2195
23914W        W44194   5.526   9.803   2.070  0.0361  0.0605  0.0871
23915W        W44195   7.467  13.490  13.320  0.4180 -0.0857 -0.0134
23916W        W44196   8.337  12.165  12.769  0.1838  0.0939 -0.0708
23917W        W44197   9.148  18.177  11.295  0.0398 -0.0807 -0.3257
23918W        W44198   0.163   3.763  15.246  0.1856 -0.0278 -0.0058
23919W        W44199   3.245   9.903  15.285  0.1283 -0.0780 -0.2326
23920W        W44200  16.694   0.295   3.637  0.0106  0.1816 -0.0814
23921W        W44201  15.167   9.077   1.451  0.0069 -0.2210 -0.1252
23922W        W44202  14.144   6.639   4.208  0.1098 -0.1288 -0.0266
23923W        W44203   5.080  10.004  13.666  0.0273  0.1547 -0.0968
23924W        W44204   3.119   9.456   3.336 -0.1818  0.3545 -0.1565
23925W        W44205   7.024  16.143   2.701 -0.0193 -0.1428 -0.0139
23926W        W44206  11.067   1.695  13.016  0.1541  0.1541  0.1811
23927W        W44207  16.439  17.352  15.748  0.0115 -0.0482 -0.1080
23928W        W44208  11.549   4.038  12.987 -0.0694  0.1463 -0.3113
23929W        W44209  10.921   3.227  13.847  0.0867  0.0954 -0.0738
23930W        W44210   9.343   7.490  14.080  0.2593 -0.0222 -0.2410
23931W        W44211  13.116   2.201  15.627  0.2196 -0.0100 -0.0434
23932W        W44212  16.332   2.191   1.622  0.2076  0.2602 -0.4443
23933W        W44213   8.233  14.149   3.192  0.1087 -0.0069 -0.1855
23934W        W44214   0.154  15.535  15.215 -0.2241 -0.2108  0.1082
23935W        W44215   5.298  12.915   4.147 -0.1538  0.1884 -0.1282
23936W        W44216   3.276   4.884  14.971  0.0705 -0.0933 -0.1466
23937W        W44217   7.426   1.666  12.802 -0.1222 -0.0369 -0.1577
23938W        W44218   4.309  14.559  15.757  0.0963 -0.0640 -0.1759
23939W        W44219  10.174   2.399  15.242  0.3626 -0.1991 -0.0204
23940W        W44220  11.180   5.253  11.656  0.1162 -0.0804 -0.0687
23941W        W44221  16.160   0.881  14.881 -0.2478  0.2717  0.3006
23942W        W44222   0.740  17.723   2.845 -0.4217  0.0250 -0.2690
23943W        W44223   3.999   3.966  12.665  0.0022 -0.1372  0.1426
23944W        W44224  15.257   9.512  15.789  0.1839  0.1207 -0.2476
23945W        W44225  15.295   7.840   0.285 -0.0153  0.1312  0.0455
23946W        W44226   4.195   0.796   3.299  0.0682 -0.0892 -0.0436
23947W        W44227  13.733   6.855  11.698 -0.0773  0.1013 -0.4029
23948W        W44228  11.192  16.939   0.691 -0.1420 -0.1923  0.0491
23949W        W44229  15.099   0.209   3.587 -0.1532 -0.1340 -0.2431
23950W        W44230   4.429  10.884   0.389 -0.3734 -0.1514 -0.1546
23951W        W44231   0.614   4.806   1.330  0.0811  0.3099  0.0539
23952W        W44232   9.155  12.535   2.081  0.2098 -0.1797 -0.0963
23953W        W44233  14.825   5.528   3.232 -0.4149 -0.1955  0.1848
23954W        W44234  11.563   3.685   0.970  0.2033 -0.1327  0.0151
23955W        W44235  12.772   5.750   3.728  0.3067  0.2577  0.2151
23956W        W44236   8.890   6.101   2.941 -0.0696  0.1781  0.3521
23957W        W44237   4.545   3.607  14.879  0.0983  0.1728 -0.2811
23958W        W44238  14.339   0.860   0.230  0.0854 -0.0403  0.0377
23959W        W44239  10.299  14.706   4.217  0.2846  0.0041 -0.2999
23960W        W44240  14.715   8.912  13.688  0.1693 -0.1362  0.0718
23961W        W44241   1.314   5.350  15.309  0.0459  0.0450 -0.0821
23962W        W44242   1.040   2.842  14.952  0.0169  0.3868  0.3454
23963W        W44243   1.529  18.303   1.311 -0.1666  0.0391 -0.1996
23964W        W44244   2.210   8.547  11.968  0.0724 -0.2045 -0.0992
23965W        W44245  12.288   7.645   2.790 -0.1833 -0.1437 -0.0353
23966W        W44246  17.533  11.802   0.770  0.0613 -0.0081  0.0369
23967W        W44247  12.662   5.139   0.527 -0.3835 -0.1010  0.1421
23968W        W44248   7.973  17.064   3.406 -0.0338 -0.0639  0.1254
23969W        W44249   8.386   7.866  11.414  0.2511  0.2212  0.0368
23970W        W44250  10.543   4.087   3.336  0.1716  0.1074 -0.2442
23971W        W44251   5.269   5.354   4.159 -0.1845  0.1265  0.1315
23972W        W44252  17.447   1.584   0.937  0.3237 -0.0492 -0.1645
23973W        W44253   1.387   0.811   0.360 -0.1348 -0.1634  0.0313
23974W        W44254  14.872   9.012   4.878  0.0107 -0.0642  0.0250
23975W        W44255  12.809  17.982  13.803  0.2757  0.0759  0.0790
23976W        W44256  15.007   1.460   4.370  0.0130 -0.2858 -0.1763
23977W        W44257  13.321  10.729   3.135  0.3010  0.1556  0.1159
23978W        W44258  14.136   9.440  12.886  0.0108  0.1973 -0.1285
23979W        W44259  12.284  17.325  14.970  0.0291  0.3300 -0.1404
23980W        W44260   0.765   2.962   3.416  0.1843 -0.0438  0.1063
23981W        W44261   3.543  17.352  15.078 -0.0204  0.0278  0.0704
23982W        W44262   1.939   1.357   3.176 -0.1449 -0.1376  0.2454
23983W        W44263  18.216  17.964   1.483  0.0869 -0.0252  0.1957
23984W        W44264  11.945  17.156   0.176 -0.0020  0.0947  0.0061
23985W        W44265  16.946   7.393  15.168 -0.0606  0.0098 -0.1626
23986W        W44266   4.340   1.688  13.797  0.1876  0.0077 -0.0556
23987W        W44267   5.229   1.649  12.602  0.2280 -0.1178 -0.0787
23988W        W44268   9.716  13.356  12.087  0.2004  0.0445  0.4670
23989W        W44269  16.110   2.746  12.693 -0.1113 -0.0446  0.0645
23990W        W44270  16.181  10.768  12.987 -0.1987 -0.1532 -0.2560
23991W        W44271   7.700   2.069   0.769  0.0941 -0.0749 -0.0283
23992W        W44272   3.169  16.811   2.933  0.0356 -0.0370  0.0355
23993W        W44273  11.577   5.535   2.663  0.1404 -0.0046 -0.2096
23994W        W44274   8.697   7.785  14.464  0.0643  0.0235 -0.0811
23995W        W44275   7.928   0.381  13.324  0.3437 -0.1056  0.0522
23996W        W44276  13.419  10.929   6.150 -0.1995  0.3826  0.1849
23997W        W44277  10.047   7.503   3.460 -0.1439 -0.0468 -0.3907
23998W        W44278  15.249   6.746  14.059 -0.4548 -0.0421  0.1062
23999W        W44279  14.206   2.442   1.283 -0.0151  0.3275 -0.2566
24000W        W44280  12.175   6.375   1.847  0.2223  0.0715  0.0446
24001W        W44281   3.183  14.155   0.768 -0.2963  0.4546  0.0185
24002W        W44282  10.843  17.244  12.109  0.0240 -0.0930  0.0265
24003W        W44283   0.960  17.138   2.741 -0.0334  0.1797 -0.2561
24004W        W44284  14.256   1.268   2.571 -0.1534 -0.1619 -0.0645
24005W        W44285  12.664  14.669  15.438 -0.0020 -0.2589  0.1249
24006W        W44286  12.804   2.286   1.829  0.0374 -0.1180 -0.1951
24007W        W44287  16.016  12.257   4.181  0.0473  0.0794 -0.0139
24008W        W44288   7.920   3.797  15.712 -0.1962 -0.0975  0.0863
24009W        W44289  15.713   9.686  15.384  0.1927  0.0500  0.1749
24010W        W44290  12.840   8.980   1.759  0.2774  0.0024  0.3669
24011W        W44291   2.554   7.007   2.378 -0.1174  0.2030  0.1659
24012W        W44292  16.379  18.298  14.222 -0.2204 -0.1196 -0.1899
24013W        W44293  11.293   8.389  12.755  0.1382 -0.0465  0.0718
24014W        W44294  14.310   3.991  14.036  0.2158 -0.0937  0.0569
24015W        W44295   0.605   2.488   3.220 -0.1608  0.2855  0.2762
24016W        W44296  10.479   1.370  15.932  0.1613  0.0268 -0.1279
24017W        W44297  17.047  12.825  12.045 -0.0339 -0.0771  0.0957
24018W        W44298   2.396  15.510  12.979  0.1307 -0.1662 -0.1245
24019W        W44299  15.415  13.560  12.546 -0.0428  0.1274 -0.1818
24020W        W44300   9.393   6.737  14.044  0.2485  0.0648  0.1360
24021W        W44301  17.473  11.527  15.657 -0.0418  0.1663  0.0940
24022W        W44302   2.882   3.824  10.278  0.0829  0.3670  0.2225
24023W        W44303  11.471   9.434  13.212 -0.0291 -0.1209  0.2356
24024W        W44304  16.556  10.549   3.407 -0.0067 -0.1180 -0.2768
24025W        W44305   0.969  14.817   1.807 -0.1483 -0.0639  0.0343
24026W        W44306  10.302  17.095   4.040 -0.2885  0.0294  0.2269
24027W        W44307   6.074  13.199   1.991 -0.2128 -0.4491  0.0913
24028W        W44308   4.171   8.699   3.187 -0.0761  0.2331  0.1520
24029W        W44309  13.174   6.983   4.676 -0.0521  0.0025 -0.0003
24030W        W44310   0.722  12.941   2.551 -0.0911 -0.2651  0.1863
24031W        W44311   9.340   5.282   1.089  0.0148 -0.4376 -0.0026
24032W        W44312  18.207  14.699  13.100  0.0686  0.0723  0.1503
24033W        W44313   0.723   3.760  13.636 -0.1083  0.1170 -0.1681
24034W        W44314  16.023  15.028   2.277 -0.0647  0.1753  0.1701
24035W        W44315   2.129   1.577   0.959 -0.1031  0.0918 -0.2058
24036W        W44316  13.371  12.763  12.444 -0.0288 -0.1904 -0.1924
24037W        W44317  13.148   9.279  13.029 -0.2898 -0.0037 -0.1242
24038W        W44318   5.249   3.754   2.647  0.2707  0.0525  0.0963
24039W        W44319  16.201   0.296   2.192  0.1839 -0.2712  0.3803
24040W        W44320  16.589   2.846  13.051 -0.1212  0.1298  0.0769
24041W        W44321  12.858   3.979   2.983  0.1750  0.1998 -0.1486
24042W        W44322  13.255  11.717  12.295  0.0747  0.0622 -0.1515
24043W        W44323   5.523   8.553  13.155  0.5652 -0.2911  0.0997
24044W        W44324   8.615  10.804   2.987 -0.1014 -0.1108  0.0656
24045W        W44325  12.472   8.552  12.142 -0.2382  0.1554 -0.2580
24046W        W44326  10.873   6.606   3.018 -0.2180 -0.0940 -0.0157
24047W        W44327  15.602   0.503  12.338  0.0685 -0.0747 -0.3097
24048W        W44328   7.638  17.499   1.704 -0.3621 -0.3182  0.1446
24049W        W44329   5.828  15.722   4.385 -0.1108 -0.1881  0.1735
24050W        W44330  14.262   5.962  13.075  0.1371  0.2506 -0.0260
24051W        W44331  11.547   2.956   2.429  0.0032  0.2086  0.0716
24052W        W44332  15.535   7.122  14.729  0.0919  0.1218 -0.3379
24053W        W44333   9.171   1.289   0.720  0.1202 -0.1368 -0.2463
24054W        W44334   9.246   9.052   2.338  0.1213 -0.3924 -0.0867
24055W        W44335  10.793  10.638   2.891  0.2736  0.1373 -0.0954
24056W        W44336  13.518   5.325  12.179 -0.0635  0.4249 -0.1487
24057W        W44337  14.448  16.010   1.824  0.2086  0.2660  0.0781
24058W        W44338   3.986   6.308   2.738 -0.1192 -0.0107  0.2632
24059W        W44339  17.808  10.633   3.863 -0.3348 -0.2142  0.0948
24060W        W44340   8.546   3.006   1.182 -0.2538  0.0487 -0.2204
24061W        W44341  15.666  10.791   4.215 -0.0099 -0.0279 -0.1731
24062W        W44342   1.639  14.584  11.327  0.0683 -0.3598 -0.1486
24063W        W44343   2.802  18.194  11.563 -0.0448  0.1110 -0.0537
24064W        W44344  16.389  14.449  12.563 -0.0419  0.0034  0.1014
24065W        W44345   0.515   3.710   1.004  0.0555  0.0008  0.2125
24066W        W44346  13.460   1.777  11.945  0.3080 -0.0760 -0.1290
24067W        W44347  17.880  11.654  11.782 -0.2542  0.0483  0.1052
24068W        W44348   6.066  18.027  15.098  0.3051  0.2021 -0.0954
24069W        W44349   4.443   7.049   0.935 -0.0414 -0.1039  0.2085
24070W        W44350  13.190  16.129  14.182  0.0663 -0.0191 -0.1181
24071W        W44351   3.913   9.909  11.828 -0.0148 -0.4407 -0.0058
24072W        W44352  18.175  15.050  13.475 -0.4290  0.1849  0.2404
24073W        W44353   4.113  13.213  15.382  0.0023 -0.2446  0.0391
24074W        W44354   2.115   0.992  15.080 -0.1465 -0.4608  0.2912
24075W        W44355   1.025  12.530  15.589 -0.2365  0.0200  0.2587
24076W        W44356   2.865  15.892  10.510  0.0358 -0.2172 -0.0970
24077W        W44357  14.832  10.789  14.168  0.1792 -0.0897  0.3523
24078W        W44358  11.862  15.943  13.888  0.1301 -0.4772  0.1263
24079W        W44359   9.396   4.917  15.330 -0.1153  0.0830  0.1201
24080W        W44360  17.176  12.909  14.666  0.1012  0.1709  0.1847
24081W        W44361   7.442  17.066  10.740  0.1975 -0.1556  0.1258
24082W        W44362  15.290   0.132   3.096  0.1678 -0.0349  0.1755
24083W        W44363   6.567   0.544  13.108  0.1476 -0.1087 -0.2093
24084W        W44364   9.679  11.515   0.217  0.2636 -0.0342  0.1057
24085W        W44365   4.766  18.264   3.382 -0.1190 -0.1157  0.0199
24086W        W44366   7.714   4.569   1.553  0.0643  0.0563  0.1382
24087W        W44367   6.474   1.679   2.953 -0.1898  0.2164 -0.1263
24088W        W44368  11.864  12.906   2.578 -0.1051  0.0303 -0.2312
24089W        W44369   7.847   8.073  12.573  0.0312  0.0719  0.1485
24090W        W44370   1.763  12.353   0.210  0.0091  0.0009  0.2161
24091W        W44371   9.348   7.190  12.223 -0.0653  0.0134  0.3494
24092W        W44372  13.612  13.450   0.486 -0.3782 -0.2727 -0.1715
24093W        W44373  11.848   1.002  15.824  0.2734  0.3921 -0.1363
24094W        W44374   5.630   3.660   0.525  0.2044  0.0357  0.0559
24095W        W44375   8.877  17.829   4.163  0.1228 -0.0128  0.1660
24096W        W44376   6.241   6.797  15.745 -0.1599  0.2776 -0.0398
24097W        W44377  12.868  14.699   3.657  0.1446  0.1223 -0.1738
24098W        W44378   5.661   5.304   1.348  0.1526  0.1679 -0.0402
24099W        W44379  11.620   1.214  12.143  0.1355  0.2533 -0.1096
24100W        W44380  14.660  17.231   0.074  0.0127 -0.0971  0.3097
24101W        W44381  13.055   4.197   0.540 -0.2025  0.2238  0.1070
24102W        W44382  13.218  14.546   4.475 -0.0579 -0.0300 -0.1729
24103W        W44383   2.212  14.821   3.284  0.0180 -0.0644 -0.1583
24104W        W44384   3.264  16.754   0.515  0.0957 -0.0111  0.0135
24105W        W44385  16.311   1.151  14.147  0.0022  0.0889 -0.1395
24106W        W44386   3.031   7.152   5.365  0.0729 -0.1570 -0.0343
24107W        W44387   9.686  13.227   4.866  0.0508  0.0223  0.0456
24108W        W44388   3.306   5.835   3.524 -0.2091  0.3256 -0.0042
24109W        W44389  11.602  14.859   0.293 -0.0884  0.0710  0.3317
24110W        W44390   0.498  11.448   0.090  0.0285  0.2144 -0.4372
24111W        W44391   8.856   4.550  12.703 -0.0958 -0.1149  0.2094
24112W        W44392   1.970  10.961  12.739 -0.1120  0.0780  0.1264
24113W        W44393   0.068   7.576   3.759 -0.2779 -0.0611  0.0291
24114W        W44394  11.560  11.158   1.571 -0.2502 -0.1141  0.0900
24115W        W44395  16.985   8.646  13.837 -0.1215  0.0013 -0.1010
24116W        W44396   5.516  16.161   1.622 -0.1809 -0.4798  0.0129
24117W        W44397   5.445  16.037  12.940  0.0901 -0.2674  0.0406
24118W        W44398   2.326  13.676  12.468  0.2533  0.1819 -0.0578
24119W        W44399  13.399   4.582   0.302  0.0163  0.1422  0.1197
24120W        W44400   7.198   7.810   3.061  0.0867  0.0968 -0.0789
24121W        W44401   4.665  14.367  15.445 -0.1451 -0.1809  0.2812
24122W        W44402   7.617  15.515  12.280  0.1792 -0.0387 -0.3705
24123W        W44403  10.023   0.446  14.390  0.1533  0.2114 -0.2926
24124W        W44404   3.308  13.409  11.343  0.2589  0.3277 -0.0720
24125W        W44405   3.806   3.688  14.103  0.0467  0.1376  0.2855
24126W        W44406   2.857  18.315   1.943  0.0067 -0.0533 -0.4649
24127W        W44407   4.406   4.502   2.310  0.0258 -0.1227  0.0843
24128W        W44408   6.078   7.520  15.362 -0.1300 -0.1383 -0.2336
24129W        W44409   3.928   6.458   3.916  0.0721  0.2958 -0.0149
24130W        W44410   6.268  12.932  14.468  0.0612  0.1430 -0.0254
24131W        W44411  10.975   4.701  13.884 -0.0874 -0.1973  0.0293
24132W        W44412  18.087  13.276  15.815 -0.1923  0.1055  0.0590
24133W        W44413  14.251  12.568  13.484  0.1922 -0.0805  0.0265
24134W        W44414  18.183  16.222   2.630  0.1705  0.0091  0.1587
24135W        W44415   7.719   8.498  11.879  0.1308  0.3896  0.2798
24136W        W44416  14.906  11.355   1.623 -0.0690 -0.3017  0.0330
24137W        W44417   5.981   3.568  13.283 -0.0718  0.0121 -0.2336
24138W        W44418  10.493   1.117   2.492 -0.1347  0.0045  0.1246
24139W        W44419   7.498   0.687  15.196 -0.0468  0.1383  0.0573
24140W        W44420   5.373  13.554   4.157  0.1270 -0.0223  0.0882
24141W        W44421   7.962   0.704  14.185  0.0258  0.0289  0.1360
24142W        W44422   8.459   7.033   2.029 -0.1728  0.1335  0.2877
24143W        W44423  12.347   7.065   4.289  0.1583  0.2321 -0.2467
24144W        W44424   3.234  11.430  15.515  0.1186 -0.0178  0.0312
24145W        W44425   7.266  14.603   4.261  0.0125  0.0175  0.0333
24146W        W44426  18.274  17.641  15.159  0.1439  0.1902 -0.0054
24147W        W44427   0.609   7.033   3.863 -0.0009 -0.0770 -0.2651
24148W        W44428   0.549  17.328  14.035  0.1235 -0.0415  0.2574
24149W        W44429   9.125  16.641   3.691 -0.0886  0.0968 -0.0095
24150W        W44430   9.407   2.625  13.746  0.0346 -0.0013 -0.0031
24151W        W44431   9.243   3.128  15.347 -0.0160 -0.3076  0.3649
24152W        W44432  11.433  14.139  15.700  0.0263 -0.3837  0.1461
24153W        W44433  12.810   2.849   3.696 -0.1432 -0.1036 -0.1093
24154W        W44434   5.879  17.591   3.145  0.1084 -0.2912  0.2298
24155W        W44435   6.970   7.823   3.580  0.1898  0.0229 -0.1783
24156W        W44436   6.146  17.027  12.061 -0.1075  0.1077  0.0927
24157W        W44437   3.649  16.994   2.888 -0.1191 -0.1936 -0.3758
24158W        W44438  11.577   9.141   0.267  0.1910  0.1386  0.0709
24159W        W44439   2.892   1.838  12.254  0.1597  0.0872  0.0827
24160W        W44440   2.254   8.535  14.617  0.2464 -0.0804  0.2729
24161W        W44441   8.719  13.872  13.609 -0.3093  0.0064  0.1736
24162W        W44442   0.759   6.149   4.033  0.0339  0.0801  0.1249
24163W        W44443  18.239  17.945  12.567  0.0053 -0.0059  0.2615
24164W        W44444  14.264  13.916  15.066 -0.2089 -0.0330  0.2029
24165W        W44445  12.559  15.557  13.671 -0.2103  0.0683 -0.1493
24166W        W44446   9.794  10.145   0.831  0.2606 -0.1820 -0.1250
24167W        W44447  11.678   2.408   1.555 -0.2683 -0.2006 -0.1732
24168W        W44448  13.246  10.689   2.110  0.0767  0.0552 -0.1762
24169W        W44449  13.619  15.882  15.459  0.0495 -0.2161 -0.2400
24170W        W44450  12.587  12.717  12.330 -0.2002  0.0168  0.3628
24171W        W44451  12.836   9.794  13.512  0.0950 -0.2436  0.1023
24172W        W44452   9.770  15.759  14.289  0.2526 -0.0614  0.3033
24173W        W44453   7.746   8.372   0.172  0.0157 -0.1125 -0.1137
24174W        W44454   4.483   8.804   3.544  0.0725 -0.0353 -0.1056
24175W        W44455   9.023  12.982  11.486  0.2441 -0.0970 -0.0441
24176W        W44456   5.551  13.934  15.139  0.2219 -0.0240  0.1478
24177W        W44457  10.772   9.663   2.887  0.1176  0.0481  0.1977
24178W        W44458   6.817   6.430   3.176 -0.2616  0.0788  0.0029
24179W        W44459  10.096  11.367  15.858  0.2691 -0.0479 -0.1160
24180W        W44460   5.185  15.183  12.621  0.0261 -0.2813  0.2666
24181W        W44461  14.858   5.441  14.320 -0.1532 -0.2604  0.2823
24182W        W44462  15.776  13.791  13.853 -0.0178 -0.1094  0.0108
24183W        W44463  15.205  16.827   2.508  0.1816 -0.0162  0.0273
24184W        W44464   8.857  13.005   0.738  0.0111  0.0179  0.2055
24185W        W44465  15.491  14.206  15.817  0.0526  0.0468  0.2016
24186W        W44466   3.595  16.496  15.002 -0.0902 -0.3094 -0.2825
24187W        W44467   4.630  10.121   3.168  0.1155 -0.0597 -0.0610
24188W        W44468   0.704  16.526   2.099  0.0434 -0.0656 -0.2518
24189W        W44469   1.050  15.256  12.863 -0.3052 -0.1442 -0.2077
24190W        W44470  11.957  17.484   5.403 -0.0821  0.1051  0.1796
24191W        W44471  14.220   0.011   0.320 -0.0299 -0.1892  0.2614
24192W        W44472  14.846   1.719  13.008 -0.2108  0.3110 -0.1069
24193W        W44473   6.092  10.777  12.483 -0.0401  0.1495  0.1421
24194W        W44474   2.202  14.464   2.845 -0.3023 -0.2857  0.2509
24195W        W44475   4.602   6.161  14.682  0.0760 -0.1983  0.1411
24196W        W44476  10.644  18.201  11.262 -0.2177  0.2546 -0.1002
24197W        W44477  15.154  12.369  12.988 -0.0241  0.1472  0.1482
24198W        W44478   6.726  17.331   3.454 -0.1445 -0.0421 -0.0019
24199W        W44479   8.827   6.461   3.800  0.2877 -0.0035  0.2217
24200W        W44480   9.762   2.174   1.106 -0.1073  0.1407  0.3261
24201W        W44481   8.926  17.221   4.634  0.1121  0.0466 -0.1754
24202W        W44482  10.119   8.097  13.244 -0.2157  0.1547  0.2180
24203W        W44483   9.077  12.497  12.976  0.2625 -0.0491  0.0417
24204W        W44484  13.620   0.903   3.281 -0.2605  0.0400 -0.0785
24205W        W44485   9.934  12.070   1.789  0.0634  0.0122  0.1060
24206W        W44486   0.765   9.472   0.829  0.0690 -0.1147  0.1283
24207W        W44487  14.975  16.098   0.625  0.0021 -0.1968  0.2502
24208W        W44488   1.080   6.993  12.025 -0.0007 -0.0320 -0.1706
24209W        W44489  10.893   6.219  13.496  0.1415 -0.1030 -0.0785
24210W        W44490   7.222   3.587   2.158  0.2388 -0.0979 -0.0880
24211W        W44491   8.621   2.493  12.648  0.0947 -0.1800 -0.2916
24212W        W44492  14.316   0.434   2.143 -0.2578 -0.3289 -0.0160
24213W        W44493  16.393  10.978  15.059 -0.0942 -0.0524 -0.3137
24214W        W44494   6.438   2.538  15.828 -0.1833 -0.1854  0.2064
24215W        W44495  12.355  18.156  15.368  0.0810 -0.2601 -0.3014
24216W        W44496  17.888   0.349  12.780  0.0358  0.0152  0.0616
24217W        W44497   5.590   2.591   1.364 -0.3212 -0.2812  0.0967
24218W        W44498   0.879   9.605  11.847 -0.2310  0.1017 -0.1585
24219W        W44499   3.708   4.298  15.874  0.3030 -0.1246  0.1757
24220W        W44500   1.653  11.096  11.511  0.2121 -0.0728  0.3501
24221W        W44501  16.795   9.573  14.234  0.3458 -0.1718 -0.2704
24222W        W44502   9.480   9.847  13.614  0.2011  0.0405  0.2504
24223W        W44503  11.353  11.822  15.524  0.2030 -0.0665  0.1854
24224W        W44504  11.239   2.629   1.372 -0.2748 -0.0559 -0.1872
24225W        W44505   8.624   2.081   0.379 -0.0396 -0.0187 -0.0293
24226W        W44506   5.006  13.396  14.048 -0.1203  0.0318  0.0859
24227W        W44507   6.092  15.411   3.036 -0.2341  0.1522 -0.1866
24228W        W44508  10.542   8.247  13.419 -0.4286  0.1007  0.0971
24229W        W44509  16.854   0.804   0.919  0.1995  0.0436  0.0943
24230W        W44510  14.083   6.492   2.092  0.1304  0.0153 -0.0838
24231W        W44511  10.469  16.303  14.086 -0.0141 -0.1676 -0.0678
24232W        W44512  16.393  15.559   1.111  0.3984 -0.0556  0.0820
24233W        W44513   0.605   3.081   1.511  0.0588  0.0818 -0.1275
24234W        W44514   5.443  13.375   0.649 -0.0752  0.1465  0.0014
24235W        W44515   0.650   1.867  12.642  0.2411 -0.2440 -0.3600
24236W        W44516  16.086   5.616   1.845 -0.3779  0.0933  0.0630
24237W        W44517   3.800   4.193  11.523 -0.1539 -0.0470  0.1488
24238W        W44518  15.749  10.664  14.572  0.3714  0.1346  0.0516
24239W        W44519   7.805  10.688  11.530  0.4849  0.2689  0.1405
24240W        W44520  15.778  10.031   1.626  0.3229  0.3813  0.3028
24241W        W44521  17.373  16.968   3.389 -0.2501  0.2270 -0.0693
24242W        W44522  16.373  12.454   3.829  0.2592  0.1345 -0.0162
24243W        W44523   4.857  11.750  14.504  0.0962 -0.1853 -0.0905
24244W        W44524  14.876  11.754   3.508  0.0844  0.0084  0.1717
24245W        W44525  10.756   4.662  12.717 -0.2101 -0.2036  0.1455
24246W        W44526  15.500   6.444   0.997  0.0593  0.1710 -0.3669
24247W        W44527  12.060   6.244   4.658  0.1088  0.1320  0.3797
24248W        W44528   8.761  15.450   3.023 -0.0662 -0.0616 -0.0230
24249W        W44529  15.853  12.002  13.936  0.0083 -0.3374 -0.0123
24250W        W44530   7.359  14.943   5.422  0.1885 -0.0432 -0.2782
24251W        W44531   2.215   9.007   3.519  0.0042 -0.0518 -0.1351
24252W        W44532   0.259   5.823  13.782  0.1001  0.0372 -0.1156
24253W        W44533   9.828   1.446  13.529 -0.1110 -0.0311  0.1976
24254W        W44534   6.290   4.099  12.090 -0.0377 -0.2537  0.1916
24255W        W44535   8.243  13.772  11.566  0.2508  0.0200 -0.2001
24256W        W44536   7.151  15.247  13.085 -0.0583 -0.2302  0.0251
24257W        W44537   3.592   2.458  15.571  0.0165 -0.0489 -0.0753
24258W        W44538  11.605   2.607  12.818 -0.2901  0.2990  0.3852
24259W        W44539   2.404  11.630  14.111  0.0093 -0.1450  0.0149
24260W        W44540  16.700   0.803   2.769  0.2640  0.0913 -0.3814
24261W        W44541   0.377  11.265   3.306 -0.2989 -0.1684  0.5689
24262W        W44542  14.005  17.911  14.928  0.0545  0.1683 -0.1069
24263W        W44543  17.014  10.775   4.596 -0.1787 -0.0451 -0.1148
24264W        W44544  18.327  12.347  12.197 -0.1300  0.0330 -0.6040
24265W        W44545   4.031  14.439  14.549 -0.0993 -0.1981  0.0487
24266W        W44546  16.961   0.028  13.952 -0.1331  0.1099  0.3352
24267W        W44547  15.306   6.035   0.855 -0.0928 -0.0228 -0.1934
24268W        W44548  10.149   8.355  12.741 -0.1252  0.0703 -0.4476
24269W        W44549  11.685  10.746  14.071  0.1316 -0.0321  0.1567
24270W        W44550   9.813   0.884   2.288 -0.1781  0.1710  0.0259
24271W        W44551   7.376  18.183  13.222 -0.0873  0.4002  0.1384
24272W        W44552   5.925  16.544   1.966  0.3052 -0.2208 -0.0625
24273W        W44553   5.844   0.393  15.605  0.2172  0.1651  0.1027
24274W        W44554   5.792   1.706   1.738 -0.0530 -0.1402  0.1629
24275W        W44555   5.439   1.347  13.419 -0.2111  0.0824 -0.2597
24276W        W44556   5.209  16.969  13.351  0.0086  0.2506 -0.1433
24277W        W44557  11.548   5.578  11.536  0.0046 -0.4212 -0.0092
24278W        W44558   7.645  11.252  13.371  0.0911 -0.0919 -0.1289
24279W        W44559  16.780   2.365  13.173 -0.0703 -0.1249 -0.1393
24280W        W44560   9.004   8.695   4.146  0.0983  0.1253  0.3150
24281W        W44561  12.761   3.544   4.453  0.0509 -0.0092 -0.0782
24282W        W44562  12.836   4.635   2.616 -0.0533  0.0385  0.0886
24283W        W44563  13.001   6.524   4.796  0.0234 -0.0142 -0.2653
24284W        W44564   4.228  16.103   3.639 -0.1750  0.1605  0.0245
24285W        W44565   1.441   5.827   0.162 -0.0089  0.0690 -0.0736
24286W        W44566   5.581   9.384   4.516  0.0923 -0.2213 -0.1148
24287W        W44567  11.321  11.747   2.865  0.3367 -0.0705 -0.0028
24288W        W44568   3.971  16.122  13.446  0.2242  0.3207 -0.1633
24289W        W44569  14.967   8.832  12.608 -0.1185  0.3942 -0.0449
24290W        W44570  17.807  12.977  11.849  0.0330  0.1152  0.0124
24291W        W44571  14.958   6.155   1.224  0.1324  0.0701 -0.4005
24292W        W44572   3.936   5.376   0.378 -0.1014  0.0399 -0.1971
24293W        W44573   0.004   1.453  12.179 -0.0362 -0.1168  0.1326
24294W        W44574   4.180  12.271  10.362  0.0403  0.1794  0.0969
24295W        W44575   3.863   5.861   4.795 -0.1521  0.1653  0.0113
24296W        W44576   3.665   1.316   3.420  0.1576  0.2008 -0.0453
24297W        W44577  16.902  10.873   3.063 -0.0541 -0.0842  0.3545
24298W        W44578   7.996   0.827  13.684  0.0131  0.2016  0.1416
24299W        W44579  16.128  17.267   2.542 -0.1774 -0.0858 -0.0049
24300W        W44580   7.934  14.103   4.002 -0.0674  0.4860 -0.1903
24301W        W44581  15.316  11.655   2.075 -0.3094  0.0951 -0.2982
24302W        W44582   3.030  13.372   0.320 -0.1293 -0.1139 -0.0976
24303W        W44583   2.522   1.209   4.458 -0.0974  0.4392  0.0194
24304W        W44584   8.309   0.119  15.010  0.0978  0.3431  0.0966
24305W        W44585   3.758   6.244  15.839  0.1036  0.0458 -0.1835
24306W        W44586   3.758   8.752   4.802  0.4499 -0.0941 -0.0530
24307W        W44587  12.318  11.036  13.644  0.0195 -0.2261 -0.0688
24308W        W44588  13.451  12.222  14.538  0.2440 -0.2089 -0.0401
24309W        W44589   2.689  11.951  13.844 -0.4958  0.0945 -0.0037
24310W        W44590  14.256   3.946  11.389  0.4632  0.0336  0.3412
24311W        W44591   7.443   1.725  14.632 -0.3548  0.1031 -0.0870
24312W        W44592   2.134  13.475   0.986 -0.2485  0.1130  0.1964
24313W        W44593   7.982   1.362  13.479  0.1661 -0.1334 -0.3046
24314W        W44594   7.779   2.817   0.711 -0.0723 -0.0668  0.0536
24315W        W44595   6.332   2.991   3.688 -0.2146  0.1804 -0.0041
24316W        W44596  17.417   7.211  13.684 -0.1007 -0.1207  0.1651
24317W        W44597  12.413   9.710  11.883  0.1954  0.1062 -0.0601
24318W        W44598  12.233  17.896   3.072  0.3403 -0.1632 -0.0659
24319W        W44599  17.484   3.761   5.732 -0.2989  0.1608 -0.2360
24320W        W44600   5.267   0.016  13.557 -0.0230 -0.0018  0.0905
24321W        W44601   5.243   9.647  14.603  0.0596 -0.2164 -0.2089
24322W        W44602   9.221  13.928   1.101  0.2011  0.1453 -0.0308
24323W        W44603   2.275   0.660  12.200 -0.1989 -0.0377 -0.0337
24324W        W44604   9.499  11.302   1.576  0.0325  0.0371  0.2106
24325W        W44605   5.857   4.366   1.244 -0.1848  0.4223 -0.3037
24326W        W44606   0.905  13.925  15.610 -0.1329  0.0185 -0.0376
24327W        W44607  11.262   7.362   2.431  0.0236 -0.2281 -0.3983
24328W        W44608   7.478   5.563  11.994 -0.1379 -0.0287 -0.0154
24329W        W44609   4.040  17.806   1.458  0.1642 -0.0016 -0.0483
24330W        W44610  10.365  14.917  13.440 -0.2527  0.2095 -0.1692
24331W        W44611   2.646  12.727  12.281  0.0200  0.1402 -0.1352
24332W        W44612   9.091  17.638   0.633 -0.2043  0.1198 -0.1251
24333W        W44613  14.379   0.928   2.228 -0.2200  0.0365  0.0243
24334W        W44614   8.266  10.315   0.206  0.3937 -0.0331 -0.1766
24335W        W44615   6.279   1.635   3.657 -0.0109 -0.0389 -0.1592
24336W        W44616   9.014  16.047  13.197 -0.0124  0.1016 -0.0463
24337W        W44617   2.424  16.980  11.872  0.0269  0.1148 -0.0094
24338W        W44618  13.054  14.476  14.990 -0.1188  0.0094 -0.0753
24339W        W44619   7.060  16.114   0.451  0.2909  0.2369  0.0684
24340W        W44620  16.681   2.610   4.322 -0.1265 -0.0149  0.2046
24341W        W44621   0.543   3.094  15.652  0.1206 -0.1785  0.0945
24342W        W44622  16.445   9.827  13.338  0.1213 -0.0746  0.1490
24343W        W44623   0.556   2.200   1.530 -0.1649  0.0658  0.2252
24344W        W44624   5.914  16.058   1.856 -0.0096 -0.1527 -0.0700
24345W        W44625   1.070   8.585   1.786 -0.2754  0.0743 -0.0943
24346W        W44626   5.020   9.860  15.498  0.3229 -0.1950  0.1658
24347W        W44627  13.910  11.517   4.926  0.1727  0.2319  0.0118
24348W        W44628   4.381  16.777   2.788  0.1609 -0.1666 -0.1013
24349W        W44629   5.275  15.882  15.648  0.0032 -0.0106  0.0395
24350W        W44630   1.784   7.617   2.361  0.1872  0.0038 -0.1464
24351W        W44631   1.876   0.149  11.421  0.1415 -0.0221  0.0309
24352W        W44632  15.995   6.426   1.935  0.1123 -0.1741  0.3152
24353W        W44633   8.737  10.902  12.525  0.2359  0.0907  0.3517
24354W        W44634   2.767  17.276  11.621  0.2141  0.0716 -0.2299
24355W        W44635  10.089  10.440  14.242 -0.0909 -0.0949  0.0764
24356W        W44636   3.220  11.043  14.677  0.0957  0.0251 -0.0646
24357W        W44637  10.766   8.318  10.423  0.0866  0.2279  0.1977
24358W        W44638   9.389   3.238   4.280  0.1376  0.2863 -0.0406
24359W        W44639   5.949  14.152  13.478  0.0410 -0.1297 -0.3415
24360W        W44640  13.849  17.137   4.164 -0.0396  0.2843 -0.1025
24361W        W44641  11.828  11.991   3.617  0.1005 -0.0060  0.1152
24362W        W44642  15.326   7.765  15.405 -0.2086  0.0552 -0.0893
24363W        W44643   3.144   8.154  12.855  0.1904  0.0248  0.1296
24364W        W44644  16.445   8.979  14.505 -0.0649 -0.1244  0.0875
24365W        W44645  15.864   5.090  14.320 -0.0987  0.1908  0.2204
24366W        W44646   3.865   0.542  12.367  0.0744 -0.0893 -0.0244
24367W        W44647   8.895   2.235  14.104 -0.0466  0.1529  0.0154
24368W        W44648  10.789   6.234   0.800 -0.4223  0.2874 -0.0166
24369W        W44649   0.544  17.551   1.940  0.1628 -0.0396  0.1517
24370W        W44650   4.870  10.990  13.884 -0.3744  0.0730 -0.0768
24371W        W44651  11.183   1.692   2.885 -0.1806 -0.0157 -0.1391
24372W        W44652   4.495   9.764   3.977 -0.0591 -0.1575 -0.1271
24373W        W44653   2.462  15.169  12.547  0.0751  0.0586  0.1162
24374W        W44654   3.748   7.559  12.221 -0.1491  0.3407 -0.1990
24375W        W44655   7.142   9.821   4.859  0.0913  0.1526 -0.1013
24376W        W44656  18.134   4.883   3.489  0.2153 -0.2970  0.1281
24377W        W44657   2.364   9.371  15.811 -0.3383  0.1494 -0.1804
24378W        W44658   7.813  11.493  11.745  0.0263 -0.1120 -0.2020
24379W        W44659  17.929   1.344  15.126 -0.1212 -0.0293  0.0195
24380W        W44660  15.796  16.395  13.797 -0.1637 -0.2546 -0.1130
24381W        W44661  11.283   6.900   2.683  0.1345  0.1256 -0.1196
24382W        W44662   9.353  15.221   2.078 -0.1613 -0.0060 -0.3000
24383W        W44663  11.105  11.015  15.185  0.2610 -0.2307 -0.2273
24384W        W44664  11.195   6.703  14.814 -0.0037 -0.0647  0.2390
24385W        W44665   3.181   5.967   0.523  0.0634  0.1447  0.0425
24386W        W44666   4.694  17.578  13.916 -0.2868 -0.1929  0.1784
24387W        W44667   8.322  16.162   4.215 -0.0677 -0.0673 -0.3664
24388W        W44668   9.528  14.079  12.657  0.1950  0.2539 -0.3579
24389W        W44669   0.187   2.080   2.977  0.1384  0.0616  0.2051
24390W        W44670   1.538  16.858   2.474  0.1206 -0.1218 -0.0557
24391W        W44671   6.580  15.832  13.569 -0.1578  0.0108  0.1171
24392W        W44672   5.175   2.296   0.993  0.4489  0.1347  0.1407
24393W        W44673   4.599   0.079   2.564 -0.1189  0.0377  0.0694
24394W        W44674   1.247  10.516   3.207  0.1108 -0.0202 -0.2190
24395W        W44675  17.066   0.463  12.135 -0.2888 -0.0060  0.0699
24396W        W44676   7.198  18.019  12.697 -0.0449  0.4532  0.4231
24397W        W44677  10.014  13.398  11.657 -0.0210  0.0600 -0.0158
24398W        W44678   8.657  17.031  15.509  0.0489  0.0802 -0.0620
24399W        W44679  12.629   9.918  15.206 -0.1018  0.0979 -0.0075
24400W        W44680   2.536  16.547   3.446  0.0141  0.4393  0.0837
24401W        W44681   6.220   5.839  15.026  0.0547  0.3095 -0.0071
24402W        W44682  11.442   7.409  15.243 -0.2287 -0.2518 -0.1536
24403W        W44683   5.760  13.505   4.749  0.1603 -0.0856  0.3152
24404W        W44684  10.781   2.547  14.396  0.0481  0.3327  0.1691
24405W        W44685   6.671   7.086   5.122  0.1570 -0.1230  0.4624
24406W        W44686   9.840  10.722   0.813 -0.0545 -0.0860  0.1553
24407W        W44687  10.789  17.197   3.820  0.1217  0.0550  0.4494
24408W        W44688   3.884   1.331   1.783 -0.1049  0.1187 -0.2886
24409W        W44689  10.440  13.139   3.680 -0.3121  0.1342 -0.1138
24410W        W44690  11.350   9.118  14.306 -0.2203 -0.3331  0.0414
24411W        W44691   6.400   1.985   1.155 -0.0554 -0.0687 -0.1397
24412W        W44692   1.186   2.337  13.677  0.0679 -0.0058 -0.0824
24413W        W44693  11.644  10.096   2.550 -0.1921 -0.1384 -0.2996
24414W        W44694  17.574   7.101  15.056 -0.2725 -0.1706 -0.2161
24415W        W44695  13.733  12.647  12.178  0.0238  0.0257  0.5318
24416W        W44696  11.955  13.946   0.650 -0.0986 -0.0516 -0.1232
24417W        W44697  12.084   3.604   2.129  0.1337  0.1548  0.0866
24418W        W44698   7.888   0.271   1.485  0.3900  0.1010 -0.1404
24419W        W44699   2.401   8.459   5.635  0.2629  0.1169 -0.1431
24420W        W44700   6.604  16.228   0.460 -0.1984  0.0675 -0.1582
24421W        W44701   6.027   6.362  11.563  0.0452 -0.1557  0.0941
24422W        W44702  12.295  17.196   1.921  0.0660 -0.1709  0.0382
24423W        W44703   6.789   2.246  15.033 -0.0462  0.2932  0.2939
24424W        W44704   3.743   5.812  13.727 -0.0888 -0.1414 -0.0362
24425W        W44705  13.460   5.500  13.209 -0.4055 -0.1033 -0.2650
24426W        W44706  13.980   5.905  11.036 -0.0209 -0.2370  0.1280
24427W        W44707  12.826   7.058   1.769  0.2564 -0.1084 -0.3853
24428W        W44708   2.812  18.332  13.638 -0.3387  0.1586  0.0792
24429W        W44709   4.625  11.040  11.264 -0.0353 -0.2847  0.0368
24430W        W44710   3.558   2.088   3.051 -0.0550  0.1279 -0.0642
24431W        W44711  14.796   7.850  12.220  0.1112  0.2731  0.0130
24432W        W44712  16.277   9.945  14.793  0.0197 -0.2112 -0.0995
24433W        W44713   4.546   0.500   1.706  0.0292 -0.0378 -0.3550
24434W        W44714   0.209  14.151   2.932  0.2010 -0.0182 -0.2358
24435W        W44715   5.418   1.473  12.153 -0.0686  0.1389  0.2103
24436W        W44716   4.983   6.520  14.723  0.0914  0.0714 -0.2584
24437W        W44717  11.923   6.146  15.037  0.2447 -0.1120  0.0444
24438W        W44718  18.194  12.483  14.687  0.2582  0.2002  0.0054
24439W        W44719  16.403  11.785  13.984  0.1897 -0.0440  0.0022
24440W        W44720   9.186  13.366  12.335  0.1388  0.1295 -0.0725
24441W        W44721   3.951  14.093  13.546 -0.4793  0.2902 -0.0318
24442W        W44722   3.088   6.827   4.940  0.2701  0.1624  0.0039
24443W        W44723   2.829   0.659  13.080 -0.1842 -0.2473 -0.2707
24444W        W44724  12.471  15.311  14.213 -0.0097 -0.1750 -0.1413
24445W        W44725   3.519  13.063  12.244 -0.1171 -0.2027  0.2459
24446W        W44726  15.518  15.157   3.720 -0.2862  0.0510 -0.0134
24447W        W44727   1.410   5.266  11.501  0.0906 -0.1188 -0.0757
24448W        W44728   9.220  11.630   0.444 -0.0632 -0.1913 -0.0844
24449W        W44729   8.010   0.757   0.128 -0.3085  0.1809  0.1401
24450W        W44730  17.309   4.871  11.710  0.0557  0.4102  0.0091
24451W        W44731   0.017   0.343  14.559  0.0822 -0.0290  0.0149
24452W        W44732  14.703   8.260  13.430 -0.0336 -0.1329  0.1590
24453W        W44733  14.491  11.603   0.916  0.2041  0.1005 -0.0103
24454W        W44734  12.994  17.875   0.570 -0.0462 -0.0059  0.2629
24455W        W44735   5.214  16.682  15.042 -0.0657 -0.1687 -0.0170
24456W        W44736  10.050   3.233  10.712 -0.3419  0.1870  0.0653
24457W        W44737   4.672   2.342   3.788  0.1512  0.2428  0.0632
24458W        W44738  17.368  16.482   3.253 -0.1336 -0.1543  0.1998
24459W        W44739   2.678   8.240   4.659  0.1145 -0.0217 -0.1252
24460W        W44740   8.072  14.656   2.013 -0.2715  0.1196  0.1910
24461W        W44741   6.140   2.534   2.374  0.0781  0.2124 -0.1251
24462W        W44742   6.662   2.084   3.133 -0.3171 -0.0553  0.1365
24463W        W44743  13.576   1.837   2.675  0.1452 -0.1389 -0.4347
24464W        W44744   5.470   5.204  14.618  0.1160 -0.1586  0.3747
24465W        W44745   7.034   9.941   4.002 -0.0951  0.1785 -0.1735
24466W        W44746  15.216  14.083   5.366  0.0812  0.2289 -0.2746
24467W        W44747   4.844  13.751  11.320  0.1877  0.1399  0.3208
24468W        W44748   6.056   2.227  13.534  0.1522 -0.2618  0.1641
24469W        W44749   3.004  17.025   1.877 -0.2292  0.1099  0.2701
24470W        W44750   2.340   4.363  14.760  0.2570  0.1303  0.1764
24471W        W44751   8.963  16.856  13.680 -0.3000  0.1057  0.1111
24472W        W44752  13.669   3.009   4.009  0.0004 -0.0256 -0.1472
24473W        W44753  11.980  15.105   1.790 -0.0083 -0.2872  0.1684
24474W        W44754   9.897   4.694   1.060 -0.1534 -0.0106  0.0627
24475W        W44755  13.651  18.201   4.137  0.0887  0.1152  0.2127
24476W        W44756   9.917  12.933  13.294 -0.0638  0.6094  0.0032
24477W        W44757  16.214   1.690   1.937 -0.2224 -0.0158  0.1868
24478W        W44758   4.986   9.909  11.370 -0.0967 -0.1800 -0.1316
24479W        W44759   1.173  13.786  13.597 -0.3075 -0.0693  0.2978
24480W        W44760   0.956   6.779   1.727 -0.1166  0.1999 -0.0858
24481W        W44761  12.548  11.016   3.235  0.0128 -0.0815 -0.0165
24482W        W44762  12.129  15.877   3.317 -0.3500  0.0471  0.0184
24483W        W44763   5.695   6.718  15.797 -0.0584  0.2311  0.0388
24484W        W44764   9.626  12.699  13.668 -0.1655  0.2403  0.2686
24485W        W44765   1.275   6.543   1.025 -0.3430 -0.3865 -0.2238
24486W        W44766   5.982   6.522  14.761 -0.1982  0.0809 -0.1116
24487W        W44767  14.809   5.001   2.964 -0.1101  0.2896 -0.1509
24488W        W44768  16.689   8.587   1.993  0.1632 -0.0789 -0.2811
24489W        W44769  10.194   2.955  11.205  0.2095 -0.2906 -0.0839
24490W        W44770   7.685  14.294   4.353  0.1969  0.3216 -0.1824
24491W        W44771   9.426   3.903   2.186 -0.0039  0.0370  0.0794
24492W        W44772  13.801  10.250   2.843  0.0868  0.4284  0.1456
24493W        W44773  17.547  10.050  15.471 -0.2252 -0.1201 -0.0551
24494W        W44774  12.913  10.589   0.399 -0.0516  0.1701 -0.0552
24495W        W44775  12.635   3.564  14.587 -0.2298  0.0820  0.1899
24496W        W44776  11.946   4.676  12.209  0.1358  0.0310 -0.1471
24497W        W44777   4.109  14.328   0.230  0.0373  0.1720 -0.1328
24498W        W44778   6.759  17.041  15.407 -0.2799 -0.2076  0.0193
24499W        W44779  12.621   9.503  13.850 -0.3227 -0.1318  0.1978
24500W        W44780   4.607   1.281   1.144  0.0178  0.1970  0.1882
24501W        W44781   7.166   9.872   3.253  0.0136 -0.1937  0.3989
24502W        W44782  12.387  15.448  11.806 -0.1882 -0.1485  0.3232
24503W        W44783   7.304   5.085  12.077 -0.0380  0.2091 -0.0686
24504W        W44784   5.129   8.730   0.939 -0.2101 -0.1348  0.0284
24505W        W44785   6.827  14.949   0.896  0.1706  0.1072  0.0890
24506W        W44786   3.768   9.002   3.974 -0.1045  0.1737 -0.1595
24507W        W44787   9.007   4.903   1.275  0.1620  0.3160 -0.0387
24508W        W44788   8.104   1.725   1.473  0.0318  0.1487  0.0320
24509W        W44789   9.517  16.865   3.925 -0.1128 -0.2315 -0.0354
24510W        W44790  14.242  14.493   1.403 -0.1536  0.1170 -0.1116
24511W        W44791  10.980  11.884   0.305 -0.0694  0.0697  0.1709
24512W        W44792   4.676  11.029   4.273  0.2972  0.1703 -0.1068
24513W        W44793  14.685   8.824   1.443 -0.1163  0.0990 -0.1360
24514W        W44794   5.815   0.048  14.257 -0.0571 -0.2290  0.2096
24515W        W44795  11.480  17.201  11.273 -0.3178 -0.0901 -0.0358
24516W        W44796  11.910   2.044   5.507 -0.1778 -0.3384 -0.0868
24517W        W44797  16.229   3.488  11.771 -0.1353 -0.0757 -0.1741
24518W        W44798  13.549  14.816  11.759  0.1105  0.1188 -0.0753
24519W        W44799  13.819   1.220  12.550 -0.1464 -0.1851 -0.1562
24520W        W44800   3.456   2.793   1.787 -0.1319 -0.0550 -0.0297
24521W        W44801   5.450  13.827  15.829 -0.1774  0.1922  0.1919
24522W        W44802   7.951   5.410  13.448 -0.0528  0.0892  0.1101
24523W        W44803  13.061  11.803   0.698 -0.0889 -0.0660 -0.1862
24524W        W44804  17.999   4.337   2.443 -0.0458  0.0088  0.2026
24525W        W44805  10.295   0.411  13.918 -0.0010  0.2980 -0.0564
24526W        W44806   8.383  13.989   2.404 -0.0174 -0.0250 -0.2204
24527W        W44807  11.348   6.206  15.134 -0.1446  0.0782 -0.1025
24528W        W44808  10.527   9.622  14.262  0.0642 -0.1493  0.2755
24529W        W44809  13.717   2.851  15.356 -0.1352 -0.0080 -0.1585
24530W        W44810   1.536   1.624   3.100 -0.1911 -0.1427 -0.2108
24531W        W44811  11.467   9.692  14.387  0.1128  0.2156  0.1678
24532W        W44812  16.581   5.626   3.866 -0.0782 -0.2363 -0.0345
24533W        W44813  17.027  10.300   4.351 -0.0662 -0.3046  0.1048
24534W        W44814  16.120   1.644   2.984  0.3179  0.1305  0.0130
24535W        W44815  13.188   4.270   1.583 -0.2832  0.1382 -0.2377
24536W        W44816   4.478   9.042  15.480  0.0251 -0.0184 -0.1095
24537W        W44817   4.883   6.985   1.928  0.1888 -0.0763  0.1607
24538W        W44818   3.459   6.246  11.773 -0.2103 -0.1113 -0.0812
24539W        W44819  13.708   6.315   5.414 -0.3912  0.1816  0.0839
24540W        W44820  14.149  16.434  12.762  0.2954  0.0587  0.1661
24541W        W44821   4.885   0.629  15.063 -0.0835  0.0398  0.0760
24542W        W44822   7.466   7.782  14.128  0.0187  0.0748  0.0986
24543W        W44823  15.564   9.748   0.245 -0.1955 -0.1044  0.0138
24544W        W44824  11.183   8.164   2.118  0.0944 -0.0981 -0.0794
24545W        W44825  14.978   4.575  14.813 -0.2772 -0.1208  0.0257
24546W        W44826  18.059   1.170  11.319  0.1370  0.0761  0.1781
24547W        W44827   1.629   8.923  14.162 -0.0921  0.2172 -0.1401
24548W        W44828  16.448   3.863  14.020  0.0616  0.0197  0.0621
24549W        W44829  15.290   1.668   3.176 -0.2773  0.1287  0.0869
24550W        W44830  18.284   4.247  11.892 -0.3267  0.1147 -0.1738
24551W        W44831   3.231   0.242   1.527  0.0178  0.0907  0.0918
24552W        W44832   5.485   5.149  12.378 -0.1376  0.1073  0.1705
24553W        W44833  17.941   8.843  12.405  0.4961  0.1574  0.0877
24554W        W44834  12.005   2.806   0.728 -0.2849  0.1596  0.0961
24555W        W44835   4.554   4.677  13.871  0.0210  0.3608  0.2797
24556W        W44836   0.160   9.390   3.002 -0.2331 -0.0854  0.0040
24557W        W44837  14.361  13.396   3.153  0.0663  0.0996  0.1058
24558W        W44838  15.267   3.782  15.849 -0.1506 -0.0647 -0.2864
24559W        W44839  13.590  12.228  13.860 -0.1173  0.1119 -0.1791
24560W        W44840   6.991   0.778   1.974  0.1720  0.0458 -0.0259
24561W        W44841  16.994   2.540  12.229  0.1443 -0.1506  0.5139
24562W        W44842  16.165   3.794   3.800 -0.1917 -0.0692 -0.3578
24563W        W44843  18.034  11.353   1.486 -0.2346  0.0831  0.2531
24564W        W44844  17.587   4.960  12.199 -0.4498  0.0951 -0.0745
24565W        W44845  13.778  16.128  14.516  0.1107  0.1782 -0.0526
24566W        W44846   9.700   3.257   1.584 -0.2124  0.0723  0.2575
24567W        W44847   4.195  14.338  13.170  0.0270  0.3726 -0.1505
24568W        W44848   7.876  11.482   1.034 -0.2767 -0.0790 -0.2286
24569W        W44849   4.986   2.822   0.989 -0.0025  0.2379 -0.2792
24570W        W44850   1.031  16.804  12.746 -0.3161  0.2012 -0.1111
24571W        W44851  10.518   2.985   1.717 -0.1887 -0.0524  0.0080
24572W        W44852   9.188  17.607  13.963 -0.0677 -0.0184  0.1471
24573W        W44853  10.099  15.394  14.282  0.0117 -0.0163 -0.0550
24574W        W44854   0.185   5.024   4.156 -0.2171  0.0612  0.0662
24575W        W44855  17.052  15.909  14.872 -0.1290 -0.1096 -0.4832
24576W        W44856   7.636   5.624   2.926 -0.1591  0.3533  0.0456
24577W        W44857   1.426   1.135  15.911 -0.0804 -0.0779 -0.2732
24578W        W44858  10.739   4.483  13.508  0.0867 -0.0122  0.1164
24579W        W44859  10.485   0.184   2.175 -0.2353 -0.1625  0.2030
24580W        W44860  10.183   4.877  12.692  0.1070  0.1667 -0.0671
24581W        W44861   5.189  11.580  11.755 -0.1037  0.0355  0.0467
24582W        W44862  14.757  16.375  14.373  0.1639  0.4224  0.0351
24583W        W44863  10.952   1.879  12.019 -0.0599  0.3152 -0.3244
24584W        W44864  18.024   1.784  12.506 -0.0719 -0.0999  0.1591
24585W        W44865  15.575   1.254   1.045 -0.1696 -0.2233  0.0717
24586W        W44866  12.014   4.210  15.633 -0.2405 -0.2087  0.2295
24587W        W44867  18.140  17.088   0.450 -0.0716  0.1820  0.0691
24588W        W44868   8.985   9.168   0.351  0.0924  0.0715  0.2843
24589W        W44869   6.212   1.502   4.164  0.2163  0.0787  0.1276
24590W        W44870   2.899   1.184  13.003 -0.2418  0.0429 -0.2101
24591W        W44871  17.750  14.157  11.632  0.1601  0.1522  0.0066
24592W        W44872  13.288  13.835  15.499 -0.0156  0.0637  0.2208
24593W        W44873   7.269   2.099  14.872  0.0677 -0.4769 -0.2536
24594W        W44874   0.507   1.631  12.273 -0.1394  0.0445 -0.1582
24595W        W44875  16.443   2.637  11.396 -0.0174  0.1026  0.1438
24596W        W44876  12.189  14.678  15.645 -0.1763 -0.2711  0.4044
24597W        W44877   6.397  12.680   3.296  0.1353 -0.0207 -0.1864
24598W        W44878  14.014   0.391   3.487 -0.1486  0.2174  0.0015
24599W        W44879  18.007   8.252   1.606  0.2233  0.2812 -0.1262
24600W        W44880   8.891   9.911   4.065 -0.1338  0.0998 -0.1618
24601W        W44881   3.459  12.542  12.371  0.2577  0.0597  0.1659
24602W        W44882  11.145   0.663  13.222 -0.2384  0.0027  0.2510
24603W        W44883  17.991   9.147   2.745  0.1020 -0.0915 -0.1711
24604W        W44884  13.149   5.414  14.654 -0.0040  0.1137 -0.0073
24605W        W44885  17.960   2.234   1.556 -0.2329 -0.2676 -0.2085
24606W        W44886  16.703  14.997  11.841  0.0511  0.2124 -0.0647
24607W        W44887  17.243   5.328  15.544  0.2397 -0.0498  0.0546
24608W        W44888  12.787   7.916   3.829  0.0621  0.2100  0.0618
24609W        W44889  13.995   7.327  14.449  0.0314  0.2720 -0.3295
24610W        W44890   8.488  17.481   1.441 -0.2343  0.1754 -0.0093
24611W        W44891  18.223  18.305  13.048  0.1067 -0.1180 -0.0645
24612W        W44892   7.091   9.219  13.451 -0.1179  0.2075 -0.0684
24613W        W44893   6.072   9.376  15.045 -0.1179 -0.0272  0.1441
24614W        W44894  13.704  16.168  15.042 -0.2031 -0.2625  0.1059
24615W        W44895   0.212   6.279  14.059 -0.0334 -0.2794  0.1571
24616W        W44896   3.269   2.529   5.174 -0.1269 -0.2832 -0.0057
24617W        W44897   5.279   2.537  15.295 -0.2674 -0.0454  0.1487
24618W        W44898  11.641   3.173   4.296  0.1233 -0.0752 -0.1097
24619W        W44899  11.837   3.256  13.359  0.0125 -0.2957  0.0508
24620W        W44900   7.666  17.828  11.775  0.0775 -0.1136 -0.1223
24621W        W44901   1.646  17.566   0.255 -0.0644  0.0015  0.1737
24622W        W44902   5.505  10.806  11.695 -0.2060  0.3785  0.1629
24623W        W44903   1.669  16.360   0.417  0.0868 -0.2713  0.2580
24624W        W44904   1.359   0.969   4.198  0.0903  0.2227 -0.1235
24625W        W44905  17.389  10.751  13.826 -0.0513 -0.0120  0.1007
24626W        W44906   8.200   3.638  11.477  0.1499 -0.2918  0.0342
24627W        W44907   3.813   5.439  11.666  0.2095 -0.2308 -0.0351
24628W        W44908   5.511   0.750   3.574  0.0134 -0.0605  0.2773
24629W        W44909   9.225  15.968  11.723 -0.1693  0.0490 -0.1454
24630W        W44910  16.510  15.227   3.435 -0.3449 -0.0427 -0.1846
24631W        W44911   3.865  13.989  11.715 -0.3798  0.2214 -0.2351
24632W        W44912  10.794  13.208  11.987  0.0704 -0.0266 -0.2982
24633W        W44913   2.761  16.590  13.722  0.0611  0.1761  0.2207
24634W        W44914   9.190   0.611   0.466 -0.2583 -0.2244  0.2831
24635W        W44915   0.194   6.123  14.934  0.0412  0.0450 -0.3948
24636W        W44916  17.289   6.212   0.948 -0.0794  0.1089 -0.1708
24637W        W44917   5.031   1.949   1.916  0.2617  0.0048  0.1711
24638W        W44918  11.276  14.022  14.859 -0.0136  0.0086 -0.1504
24639W        W44919   9.278  16.557  12.919 -0.2361  0.4711 -0.4533
24640W        W44920  13.080  16.237  12.572  0.2126  0.0511  0.1017
24641W        W44921  13.652  13.263   2.617  0.1026 -0.0620 -0.1162
24642W        W44922  13.928   3.290  15.574  0.2132  0.0688 -0.2411
24643W        W44923   4.256   2.241  12.766  0.0748  0.1363 -0.3988
24644W        W44924  14.284   7.784   1.736  0.1432 -0.1633  0.2415
24645W        W44925  10.949  16.198   2.638 -0.0243 -0.1076 -0.0001
24646W        W44926  14.062  11.858  12.448 -0.0169  0.1042 -0.1423
24647W        W44927   1.742   7.882   0.469  0.0372 -0.3388  0.2684
24648W        W44928  13.669  11.532  12.058 -0.0730  0.1982  0.0743
24649W        W44929   7.454   3.554  14.865  0.0511  0.3222  0.0490
24650W        W44930   7.109  17.130   3.781 -0.0514 -0.0698  0.1499
24651W        W44931   8.177   0.338  13.765  0.0956  0.1030 -0.1072
24652W        W44932  17.365   1.679  14.039 -0.2001  0.3162 -0.0062
24653W        W44933   4.760   9.102  13.039 -0.2139 -0.0032  0.1345
24654W        W44934   0.605   7.761  13.168 -0.1317  0.0650  0.0825
24655W        W44935   1.148   7.551  14.457  0.3427 -0.0065  0.0974
24656W        W44936  17.011   0.049  12.398  0.1960 -0.1928 -0.0320
24657W        W44937   3.019  18.046  12.788  0.0039  0.2072 -0.0640
24658W        W44938  15.729   6.920  13.287 -0.0127 -0.6268  0.2946
24659W        W44939  15.694  13.917  14.864  0.1152 -0.0005 -0.1957
24660W        W44940  16.731   3.153   1.555  0.0988 -0.0381  0.5707
24661W        W44941   1.210  17.573   2.975  0.0519  0.2286 -0.0235
24662W        W44942   4.863  10.528   0.907 -0.2971 -0.0726  0.2529
24663W        W44943  12.464   7.833   1.713 -0.1409  0.1943  0.1855
24664W        W44944   7.102  15.820  14.302 -0.0075  0.1279 -0.1400
24665W        W44945   2.186  16.336   0.464  0.0782  0.1038 -0.2291
24666W        W44946  12.767   9.168  11.826  0.3836  0.1262  0.2709
24667W        W44947   3.194  16.204   1.281 -0.0451 -0.0470 -0.0092
24668W        W44948   7.362  18.251   3.993  0.0232 -0.1351 -0.2184
24669W        W44949   3.286   2.085  15.827  0.2539 -0.0227  0.2110
24670W        W44950   8.295  15.421   3.201  0.1051 -0.1485  0.0473
24671W        W44951   1.727   0.619  15.008 -0.0245 -0.0565 -0.2006
24672W        W44952  12.833  15.137  12.507 -0.0034  0.1201  0.0159
24673W        W44953   1.497   5.184  12.615  0.1821  0.0923  0.0734
24674W        W44954   2.601   5.646   1.935 -0.0203 -0.1519  0.1897
24675W        W44955  10.979   7.676  13.325 -0.1317  0.1089 -0.3317
24676W        W44956  10.775   6.425   3.453 -0.0240  0.0329 -0.1427
24677W        W44957  10.483  11.353   1.549 -0.1861  0.0226 -0.0134
24678W        W44958   8.024  10.223   1.174  0.0752 -0.0930 -0.1564
24679W        W44959  11.065  11.160  12.079 -0.1365  0.0788  0.3680
24680W        W44960  17.175   5.599  11.749 -0.3226 -0.0282  0.2783
24681W        W44961   6.941   0.139   0.397  0.0361  0.1026 -0.1655
24682W        W44962   1.938   2.869  12.692  0.1592  0.0872 -0.1552
24683W        W44963   7.985  12.277   3.389  0.0747  0.0810 -0.1490
24684W        W44964  12.761  17.295   1.686 -0.1214  0.1152  0.1624
24685W        W44965   6.003  14.543  10.923 -0.5134  0.0139 -0.1682
24686W        W44966   2.741   8.699  11.089 -0.3216  0.3017  0.1355
24687W        W44967   7.913  16.376  11.923 -0.2046 -0.1275 -0.2027
24688W        W44968   2.443  15.845   1.765  0.0270  0.1999  0.2924
24689W        W44969  13.247   4.030   3.306 -0.0876 -0.1645  0.0965
24690W        W44970   6.818   7.827  15.029 -0.1501  0.2184  0.1834
24691W        W44971  17.399   8.456  14.194  0.1205 -0.0659  0.0245
24692W        W44972   0.406  12.282  14.696  0.1546 -0.1908 -0.0791
24693W        W44973  14.329  11.225   4.169  0.1721 -0.1513  0.2244
24694W        W44974   4.254  12.756  13.456 -0.1981  0.2303  0.1711
24695W        W44975   5.310  13.872   1.713  0.0236  0.3999 -0.3093
24696W        W44976   0.742  17.171  12.916 -0.2507 -0.1459  0.3784
24697W        W44977   0.085  17.297  13.866 -0.1023 -0.1380 -0.2278
24698W        W44978   4.059   3.214  12.977 -0.0267  0.1181 -0.1692
24699W        W44979  13.312  12.657  12.988  0.0052 -0.1033  0.1160
24700W        W44980  10.220   7.800  13.590  0.0801 -0.1078  0.0154
24701W        W44981  13.313  14.814  12.629  0.1639 -0.0503  0.4171
24702W        W44982   9.904   2.804  15.120  0.0263  0.2313  0.0952
24703W        W44983  15.507  11.485  13.238  0.1029  0.4310  0.0414
24704W        W44984   4.692  15.717   0.358  0.1059  0.0089 -0.0814
24705W        W44985  17.406   1.597   3.688  0.0559 -0.0811  0.3107
24706W        W44986   6.344  12.358  12.353  0.0544  0.1807  0.0750
24707W        W44987   2.726   3.885   3.350  0.1475 -0.0567  0.1019
24708W        W44988   6.513  16.168  11.815  0.1465 -0.1875  0.4692
24709W        W44989   6.616   4.879  12.561 -0.0446  0.0431 -0.1609
24710W        W44990  17.043   9.839   4.667 -0.0388 -0.0869  0.1162
24711W        W44991   7.029  15.677  15.760  0.0845  0.1363 -0.3208
24712W        W44992   9.341   0.098  14.082  0.0278  0.0913  0.2030
24713W        W44993   0.085   4.258   4.631  0.0525 -0.0421 -0.0696
24714W        W44994  18.278   7.667   4.221  0.1832 -0.1601 -0.1910
24715W        W44995   6.980   0.838  15.864  0.3882  0.2335 -0.1143
24716W        W44996   5.729  13.681  14.746  0.0977 -0.0071 -0.0162
24717W        W44997  12.154   8.216  13.097 -0.1202  0.2001 -0.2201
24718W        W44998   7.263   3.628  15.544  0.1715  0.1251 -0.0351
24719W        W44999   4.811   4.997   1.824 -0.1003  0.0360  0.2850
24720W        W45000   8.901  12.773  14.378 -0.0266 -0.1499  0.1702
24721W        W45001  17.531  11.951   3.737 -0.0454  0.2324 -0.4588
24722W        W45002  16.477   8.383   2.945 -0.0525 -0.0910 -0.0060
24723W        W45003  17.039  15.427   3.390 -0.1095  0.1160 -0.1019
24724W        W45004   9.586  14.554  15.611  0.0349  0.2887  0.1748
24725W        W45005   5.532   4.979  13.642 -0.0381  0.0807 -0.0708
24726W        W45006   2.829  11.520   0.814 -0.2297 -0.0117 -0.0364
24727W        W45007  17.033  16.956   1.476  0.2039  0.0834 -0.3227
24728W        W45008  10.399   2.134   1.700 -0.0170  0.0702 -0.1517
24729W        W45009  14.068   2.769   1.648  0.0667 -0.1085 -0.1725
24730W        W45010  13.931  10.744  11.825 -0.1525  0.0742  0.2361
24731W        W45011   7.455   3.923   0.520  0.0759  0.2976  0.0620
24732W        W45012   3.620   5.003   2.524  0.2422  0.1385  0.2305
24733W        W45013  15.859   3.772  11.946  0.2428 -0.0336  0.0123
24734W        W45014  16.979   7.546  13.079 -0.3851 -0.0145  0.0497
24735W        W45015   3.840   6.373   2.233 -0.2097 -0.1161  0.1801
24736W        W45016   9.458  16.809  13.790 -0.2588  0.1865 -0.0601
24737W        W45017  13.220  16.350   2.644  0.0109  0.1306  0.2760
24738W        W45018  14.648   4.104  13.604 -0.1719 -0.1394 -0.0780
24739W        W45019  13.453   5.574   2.217  0.2465  0.0720 -0.0032
24740W        W45020   2.529  17.608   4.357 -0.1130 -0.0359 -0.0151
24741W        W45021  15.378  15.499   2.840  0.0138 -0.2480 -0.0142
24742W        W45022   2.538   1.326  12.552  0.3879 -0.0438  0.0147
24743W        W45023  12.630   3.304   0.310 -0.0144  0.2537  0.0476
24744W        W45024  18.154  16.837   1.705  0.2243 -0.1093  0.3526
24745W        W45025   8.281  11.559  10.819  0.1468 -0.2234 -0.0165
24746W        W45026  18.181   5.132  15.544 -0.2640 -0.1917  0.3379
24747W        W45027   8.766   9.095  14.273  0.3845 -0.1157 -0.0134
24748W        W45028   2.861   1.429   0.457  0.1317 -0.2204 -0.0125
24749W        W45029  12.325   3.846  15.376 -0.0366  0.1025  0.3546
24750W        W45030   7.780  18.101  15.585  0.3145  0.2153 -0.1747
24751W        W45031   3.185   4.447  12.381 -0.0377  0.1866  0.0965
24752W        W45032   8.701  11.305   2.998  0.0436  0.1624  0.2002
24753W        W45033  11.386   4.301   1.560 -0.1468  0.0880  0.0137
24754W        W45034  14.009  14.429   2.928 -0.1466  0.0551 -0.1858
24755W        W45035  12.588   3.146   3.271 -0.3489  0.2506 -0.1360
24756W        W45036   1.758  12.285  12.569  0.0066 -0.3694  0.1833
24757W        W45037  16.960   1.539  10.612 -0.0836  0.3160 -0.1525
24758W        W45038   4.949  14.269   3.059 -0.2080 -0.0601 -0.1080
24759W        W45039   9.431  12.974  14.531 -0.0664 -0.0758  0.1940
24760W        W45040   7.027   3.052   2.300  0.1173 -0.0818 -0.3433
24761W        W45041  10.486  16.039  15.884 -0.0322 -0.0895 -0.3270
24762W        W45042   6.401   4.819   1.766  0.0068  0.0431  0.0649
24763W        W45043  17.443   3.986  15.444 -0.1012 -0.2643 -0.0136
24764W        W45044   6.466   7.042   0.193  0.0823  0.0572 -0.2225
24765W        W45045  12.518  13.206  13.846 -0.2197 -0.3087 -0.0639
24766W        W45046  12.350  13.666  13.527  0.0010 -0.0969 -0.2275
24767W        W45047   9.826  14.512  14.560 -0.1494  0.0210  0.1848
24768W        W45048   8.558   8.151   0.011  0.1310  0.2272  0.0350
24769W        W45049  16.318   5.224  12.544 -0.0952 -0.1654 -0.1531
24770W        W45050  13.985  15.658   4.802 -0.2042 -0.2701  0.0633
24771W        W45051  10.688   6.297  11.774  0.1319  0.0321  0.1835
24772W        W45052   5.862  10.562  15.265 -0.0852 -0.1608  0.1845
24773W        W45053   0.055   4.515   2.151  0.2005 -0.0073 -0.0090
24774W        W45054   8.334   9.332  14.176  0.1067  0.2354 -0.0987
24775W        W45055  16.145   8.093   0.043  0.2265  0.0889  0.1268
24776W        W45056  18.072   7.004  15.082 -0.1384 -0.1919 -0.4041
24777W        W45057   9.918   6.449  12.227 -0.0737 -0.1212 -0.0005
24778W        W45058   5.901  14.090   4.105  0.2218 -0.1448 -0.1628
24779W        W45059   9.281   1.053   3.351 -0.5528 -0.2761  0.0404
24780W        W45060  11.460  14.896   0.918  0.0523  0.0348 -0.0543
24781W        W45061   5.992  18.180   0.870  0.3622 -0.3251 -0.0212
24782W        W45062  15.553   0.310  11.782 -0.0665  0.2431  0.0710
24783W        W45063   6.750   9.597  13.530 -0.2743 -0.0884  0.2375
24784W        W45064  12.760  13.001  14.260  0.0560  0.0271 -0.0192
24785W        W45065   2.216   9.393  13.024  0.1895  0.2344  0.1900
24786W        W45066  17.708   8.484  12.175  0.1648 -0.1143 -0.3484
24787W        W45067  11.185   2.863   3.308 -0.0371 -0.2515  0.0079
24788W        W45068   8.442   7.115   1.377 -0.0251  0.2305 -0.1337
24789W        W45069   2.129  17.188  10.887 -0.0435  0.2272 -0.1510
24790W        W45070  17.483  17.342  15.748 -0.1197  0.1411  0.0985
24791W        W45071   4.594  11.729   1.319  0.0861  0.1907  0.0418
24792W        W45072   7.477   6.017   1.591 -0.0560 -0.0958  0.5022
24793W        W45073  10.038   9.449  14.376 -0.0468 -0.0262  0.1056
24794W        W45074  14.321   8.375   2.303 -0.0031  0.0512  0.1278
24795W        W45075  17.443  14.247  12.492  0.0668  0.0962 -0.0746
24796W        W45076  14.252   5.026  15.062 -0.1521 -0.1004 -0.3405
24797W        W45077  14.889  10.106   1.836  0.1880  0.0378  0.0254
24798W        W45078   8.212   8.437  13.357 -0.1553  0.0622 -0.3940
24799W        W45079   2.798   8.031   1.964  0.2405  0.1634  0.1810
24800W        W45080   9.951  11.994  14.033 -0.4760 -0.1169 -0.0886
24801W        W45081   3.326   1.159   0.569  0.0638  0.1561 -0.0589
24802W        W45082  13.732   2.606   1.230  0.0549  0.0405 -0.1308
24803W        W45083  10.844  15.073  12.949  0.0331 -0.1257  0.0839
24804W        W45084   0.283   1.582   3.246 -0.3302  0.1409  0.1281
24805W        W45085   3.125  13.171   4.360  0.1240 -0.0786  0.2237
24806W        W45086   9.178  12.337  15.187  0.2416 -0.0589 -0.0125
24807W        W45087   2.401   8.516  13.993 -0.0739  0.3861  0.0316
24808W        W45088   3.903  10.722  12.371 -0.1520  0.0591 -0.0128
24809W        W45089   1.517   2.635  14.950 -0.2388 -0.0173 -0.0012
24810W        W45090   0.015  11.081  15.162 -0.0244 -0.0216  0.0852
24811W        W45091   9.346   7.391   2.195 -0.0300 -0.0025  0.2298
24812W        W45092  16.916   4.726  13.814  0.2878 -0.1142  0.3517
24813W        W45093   7.245  16.193   3.275 -0.1765 -0.0233 -0.1152
24814W        W45094   4.050   0.723  15.509 -0.2279 -0.0985 -0.1303
24815W        W45095   9.605   9.359  13.651  0.0898 -0.0979 -0.1762
24816W        W45096   9.293   1.579   1.762  0.0372 -0.1783 -0.0425
24817W        W45097  12.499  12.480   3.332 -0.0956  0.2645  0.3585
24818W        W45098   0.679   2.892  13.899  0.1074 -0.3249  0.0952
24819W        W45099  10.061   4.127  10.898  0.1701 -0.2993 -0.0320
24820W        W45100   8.432  12.891   2.715  0.1585 -0.0594  0.0746
24821W        W45101   6.919  11.479  14.900  0.0644 -0.0020  0.1051
24822W        W45102  13.122   6.311  15.751  0.1237  0.0620 -0.0654
24823W        W45103  17.708  16.211  12.752  0.1990  0.1797  0.0328
24824W        W45104   7.411   4.449   2.729  0.1088  0.3284 -0.0397
24825W        W45105  16.993  15.465  14.692  0.1654  0.0497  0.1518
24826W        W45106   4.578  16.269  12.627 -0.2757 -0.0444 -0.0053
24827W        W45107  13.149   3.606   2.943  0.1386  0.1410  0.0959
24828W        W45108  13.465   1.553  15.544  0.1050  0.2799 -0.0680
24829W        W45109   6.902   9.236  13.919  0.1057 -0.1291  0.3715
24830W        W45110  16.626  16.316  11.925 -0.2998 -0.1484  0.3500
24831W        W45111   1.547  16.746   3.340  0.0719 -0.3372 -0.1966
24832W        W45112  15.486  12.906   0.178 -0.2760  0.1251 -0.5456
24833W        W45113  11.365   2.165  12.881 -0.2325  0.0618  0.2488
24834W        W45114  13.367   2.058  12.883 -0.0327 -0.1486  0.0298
24835W        W45115  10.063   3.416  13.694  0.0663  0.2004  0.2116
24836W        W45116   4.270   9.825  12.156  0.0014  0.3207  0.0499
24837W        W45117  16.396   0.344   0.110  0.0084 -0.1712  0.0194
24838W        W45118  16.913  15.406  13.654  0.0910 -0.2775 -0.0513
24839W        W45119  17.206   5.786   1.821 -0.3266 -0.1506  0.2405
24840W        W45120   7.538   1.105  12.376  0.0318  0.1822  0.1010
24841W        W45121   1.027   1.077   2.793 -0.2455 -0.1558 -0.0329
24842W        W45122  10.336   3.432  15.494 -0.0689  0.0650  0.2361
24843W        W45123   4.580   6.865  13.159  0.1917  0.0987 -0.0756
24844W        W45124   1.548   8.876   4.173  0.1747 -0.1018  0.0857
24845W        W45125   4.086   4.956   4.724 -0.0198  0.0620 -0.0681
24846W        W45126  13.380  11.740  15.276 -0.1873  0.1601  0.0074
24847W        W45127  17.399   1.283   3.123 -0.2173 -0.2221  0.5222
24848W        W45128   3.013   2.341  14.938 -0.0321 -0.1858  0.3486
24849W        W45129   8.858  11.712  11.636  0.0599  0.0124  0.0672
24850W        W45130  13.840   2.148   2.396  0.0223 -0.0773  0.2526
24851W        W45131   8.846   7.219   4.582 -0.2411  0.1134  0.1161
24852W        W45132   0.706   3.058   4.592  0.2459 -0.0062  0.1467
24853W        W45133   0.490  15.229   1.608 -0.1950  0.0665 -0.1543
24854W        W45134  16.062   8.993   4.536 -0.0645 -0.0309 -0.1029
24855W        W45135  15.746  12.812  13.841 -0.0404  0.2145  0.0845
24856W        W45136   7.166  11.130  13.241  0.1621 -0.2208 -0.3547
24857W        W45137   4.002   7.641   3.218 -0.1677 -0.1773  0.0638
24858W        W45138   7.323   2.166  13.152 -0.0512  0.0651 -0.3292
24859W        W45139   7.450   2.050   3.518 -0.0788  0.3247  0.0001
24860W        W45140  15.160  16.756  14.265 -0.0678  0.0351 -0.0256
24861W        W45141  13.249   8.842  14.242 -0.2683 -0.1249  0.0491
24862W        W45142   4.914  17.463  15.522  0.4847  0.0426 -0.1078
24863W        W45143   4.113  16.320   4.485  0.0523  0.0082 -0.2418
24864W        W45144  14.414  16.019  12.808 -0.0563 -0.2185 -0.0727
24865W        W45145  15.590  17.858  12.097  0.0140  0.2321  0.0139
24866W        W45146  10.280   7.388  14.418  0.1052  0.0236 -0.1651
24867W        W45147  14.815   2.131  12.113  0.1687  0.3728 -0.0907
24868W        W45148   6.266   4.603   2.255 -0.3116 -0.1577 -0.1611
24869W        W45149  13.992   2.256  12.142  0.2633 -0.1814  0.0245
24870W        W45150  15.008  14.615   3.060 -0.1136 -0.3062  0.0942
24871W        W45151   1.353  12.944   1.581 -0.0326  0.1591 -0.3397
24872W        W45152  16.681   5.285  12.970  0.3738 -0.1299 -0.1260
24873W        W45153  10.682  17.631   0.636 -0.0443  0.1792 -0.1755
24874W        W45154  16.082   7.663   3.852 -0.0739 -0.4875 -0.1703
24875W        W45155   2.846  17.467  13.483  0.1477 -0.2050  0.1359
24876W        W45156  14.503  15.073   0.805  0.0178 -0.2461 -0.0030
24877W        W45157   8.605  13.450   0.727 -0.1133 -0.0695  0.3242
24878W        W45158   7.944  18.144  11.481  0.1448 -0.0747 -0.1001
24879W        W45159  14.831   8.398   2.212 -0.0889 -0.0861 -0.0476
24880W        W45160  15.695  10.987  14.140 -0.0419  0.1517  0.0865
24881W        W45161  17.135  10.293  14.833  0.4132  0.0128 -0.1186
24882W        W45162   9.131  13.153  14.065 -0.3813 -0.1603 -0.1449
24883W        W45163  15.582  11.988  13.296  0.1156 -0.0629  0.0172
24884W        W45164   6.501   0.424  15.566 -0.0174 -0.0728 -0.0327
24885W        W45165  15.980   2.138   0.860  0.2210  0.0420  0.2522
24886W        W45166  16.568  11.350  11.846 -0.3477 -0.0269  0.1673
24887W        W45167  15.561  10.420   2.122  0.1964  0.3148 -0.3527
24888W        W45168  16.193  15.519   0.332  0.0511 -0.1272 -0.0232
24889W        W45169   7.814  10.571   4.635  0.0150  0.0198  0.2164
24890W        W45170   6.998   7.262  15.241  0.2017  0.0753  0.0104
24891W        W45171   0.718   7.042  13.721  0.1584  0.2116 -0.0202
24892W        W45172   5.696   1.449   1.292  0.2048 -0.1072  0.0782
24893W        W45173  12.517  12.192   2.784  0.1039  0.2592  0.0844
24894W        W45174   5.311   3.195  15.388  0.0350  0.1095  0.0334
24895W        W45175   5.334  17.986   4.316  0.0244 -0.0942  0.0206
24896W        W45176  15.591  15.912   2.563 -0.2178 -0.0356  0.0052
24897W        W45177  13.021   7.574  14.538 -0.0261 -0.0682 -0.1380
24898W        W45178   2.844  10.785  14.451 -0.1050  0.1425 -0.1195
24899W        W45179  16.570   9.752   0.393 -0.1422 -0.2791  0.0439
24900W        W45180   3.293   2.671  14.079  0.3031  0.1429 -0.0330
24901W        W45181   4.321  12.781   1.933 -0.0852  0.0673 -0.0596
24902W        W45182   1.013   3.115  14.380 -0.0719 -0.0341  0.1735
24903W        W45183  16.911  13.651  12.538  0.1455  0.0442  0.1386
24904W        W45184  13.422   1.074   0.771 -0.1136 -0.0091  0.1009
24905W        W45185   2.675  10.035   0.471  0.0624 -0.2961  0.0433
24906W        W45186  11.578  12.487   3.432  0.1384  0.0938  0.0369
24907W        W45187  17.665   4.426   1.538  0.1025 -0.2653 -0.0291
24908W        W45188   6.819  12.953   3.302  0.0883 -0.0666 -0.1040
24909W        W45189  15.247  14.705  15.824 -0.0414 -0.1533  0.2506
24910W        W45190   9.224  16.327  15.929 -0.1903  0.1183 -0.0637
24911W        W45191  10.762   4.048   2.878  0.2472 -0.2146 -0.2205
24912W        W45192  10.103  16.200   1.490  0.2491 -0.2658 -0.1251
24913W        W45193   2.162   3.377  14.884 -0.3087 -0.0315 -0.0417
24914W        W45194  11.726   6.677   4.692  0.0413 -0.1204  0.2555
24915W        W45195   7.218  14.518   3.714  0.0543 -0.0026  0.0728
24916W        W45196  10.388  13.928  11.722 -0.1345  0.5215 -0.0851
24917W        W45197   7.915   5.391   3.786 -0.0365  0.0844 -0.2362
24918W        W45198  10.858   7.039   4.667  0.0075  0.1932 -0.0320
24919W        W45199  18.314  13.448  14.733 -0.0143 -0.2252  0.1039
24920W        W45200  13.251  12.936   1.603 -0.1525  0.1542  0.1677
24921W        W45201  11.721   1.925   0.176  0.2922  0.0423 -0.0227
24922W        W45202   0.894   0.513   3.575 -0.0727 -0.2005 -0.2962
24923W        W45203   3.654   0.927  12.818  0.1931 -0.0952  0.0255
24924W        W45204   1.222   6.056  11.501 -0.2007  0.0423  0.0296
24925W        W45205  15.943  13.413  11.707  0.0218  0.1385  0.0032
24926W        W45206  17.131   8.605   3.987 -0.0149  0.0111 -0.2759
24927W        W45207  15.925   9.603  14.840 -0.1952  0.2546  0.2805
24928W        W45208   7.015   5.925   1.835  0.2533 -0.0969 -0.0283
24929W        W45209   0.876   5.463  13.915  0.2037  0.0416 -0.0966
24930W        W45210  12.728   2.726  12.120  0.0034 -0.2604 -0.0298
24931W        W45211  13.796   6.386  14.395 -0.1550  0.0218 -0.5210
24932W        W45212  16.824   4.367  13.453  0.0547 -0.1340  0.0395
24933W        W45213  13.423   7.169   0.886 -0.2693  0.2136 -0.0795
24934W        W45214  16.888   1.285   3.052 -0.2473 -0.0167  0.2357
24935W        W45215   8.100   5.578  15.302 -0.0488  0.0284  0.0622
24936W        W45216  14.637  17.693   4.353 -0.2194  0.3522  0.0317
24937W        W45217  13.030  14.292  13.445  0.0846 -0.1044 -0.2044
24938W        W45218   4.564   0.586  13.553 -0.2596  0.1691  0.1277
24939W        W45219   1.829  10.225   0.233  0.2172 -0.2704  0.0599
24940W        W45220   1.895  10.401   2.821  0.2904 -0.1045  0.1306
24941W        W45221  10.148  16.202  14.854 -0.1915 -0.0587  0.0994
24942W        W45222   9.914  13.297   1.748  0.0083 -0.3227  0.0633
24943W        W45223   9.197   8.486  15.934 -0.1787 -0.1067  0.2579
24944W        W45224   7.005   0.530  14.321 -0.1620  0.2878  0.0041
24945W        W45225  13.911   9.817   4.578 -0.0191 -0.0216 -0.0089
24946W        W45226   5.451  12.246   2.731 -0.0735  0.1905  0.0416
24947W        W45227   8.529  17.025   0.099  0.0276  0.1365 -0.0385
24948W        W45228  10.082   5.123   2.208  0.1028  0.3924  0.2172
24949W        W45229  14.084   0.079   4.302  0.1761 -0.0313  0.0758
24950W        W45230  17.683   1.790   1.818 -0.0134  0.1139 -0.1987
24951W        W45231  12.250   3.017   2.940  0.0982  0.1548 -0.0155
24952W        W45232  15.081   3.767  13.444  0.0047 -0.1391 -0.1716
24953W        W45233   1.905   6.819   3.038 -0.1693  0.1341  0.1711
24954W        W45234  14.357  16.817   1.411  0.0137 -0.0670 -0.0653
24955W        W45235   8.343   6.956  13.234 -0.3170  0.0393 -0.1427
24956W        W45236   5.870  13.097  11.598  0.1181  0.3077  0.1727
24957W        W45237  11.674   4.214  13.451 -0.1101 -0.0452 -0.3404
24958W        W45238   1.223   8.880   1.250  0.1294 -0.1273 -0.1019
24959W        W45239  15.377  16.411   2.078 -0.0496 -0.0483  0.0723
24960W        W45240   3.525   2.936   2.269 -0.1638  0.5512  0.0178
24961W        W45241  15.855   0.719  11.929  0.1274  0.0365  0.1836
24962W        W45242   5.683   9.719  14.923 -0.2176  0.1412 -0.1153
24963W        W45243  14.932  10.753  13.225  0.0332 -0.1673 -0.1177
24964W        W45244   1.021   7.769   0.290  0.1519 -0.0514 -0.0057
24965W        W45245   8.893  13.672   4.569 -0.2403  0.1204 -0.1404
24966W        W45246  15.165   3.367  13.797  0.0925 -0.3326 -0.0029
24967W        W45247   3.172  10.904   1.360  0.0430 -0.2774  0.1418
24968W        W45248   7.531   5.230   1.116 -0.0525 -0.2303 -0.1781
24969W        W45249   0.187   6.523  12.226  0.0158 -0.2699  0.0785
24970W        W45250   0.366   2.106  13.664  0.0913 -0.0874  0.1411
24971W        W45251  15.992  11.867  14.525  0.1905 -0.0203 -0.0557
24972W        W45252  12.053   1.725   1.709  0.0895  0.0617  0.1466
24973W        W45253  12.946   2.921   0.070  0.3448 -0.0348  0.2805
24974W        W45254   0.581  14.909  11.727 -0.3172 -0.0833 -0.1155
24975W        W45255  12.457  16.549  14.681  0.1895  0.0855 -0.0402
24976W        W45256  13.324  17.956  13.117 -0.0967 -0.1538  0.0242
24977W        W45257   0.019  16.758  11.896 -0.1984  0.0304 -0.1099
24978W        W45258  13.836   2.366  14.339  0.0625 -0.2998 -0.1990
24979W        W45259   2.422   4.754   3.767  0.0521  0.2839  0.2260
24980W        W45260   2.032   9.062  15.357 -0.4075 -0.3866 -0.0975
24981W        W45261  11.590  17.548  10.850 -0.0748  0.0771  0.1775
24982W        W45262   8.424   5.223   3.891 -0.2641  0.0242  0.1745
24983W        W45263  10.303   0.448  13.408  0.2136  0.1829 -0.1031
24984W        W45264   2.401  11.501   4.050 -0.0662  0.2418 -0.1055
24985W        W45265   9.870   9.802  15.332  0.2980  0.2745 -0.3615
24986W        W45266   3.956   4.092  10.926 -0.1039  0.2311  0.0344
24987W        W45267   8.080  15.373   2.676 -0.1409  0.0520 -0.0259
24988W        W45268  11.403  13.119   0.668  0.1083  0.0347 -0.0980
24989W        W45269   5.220   0.580  14.685 -0.3551 -0.0322  0.0177
24990W        W45270  18.233   9.910   2.065  0.2911  0.2525 -0.2112
24991W        W45271  13.194   3.943  11.762 -0.3730 -0.0074 -0.0713
24992W        W45272  12.681   5.454  12.517 -0.2423 -0.1445 -0.0082
24993W        W45273   0.705  12.413   0.050  0.0244  0.0777 -0.0981
24994W        W45274   3.502  15.214  14.470 -0.1435 -0.1440 -0.0948
24995W        W45275  17.885   7.535  15.781 -0.2141 -0.2388 -0.1737
24996W        W45276   1.412   6.112   3.208 -0.0101  0.0331 -0.0493
24997W        W45277   3.426  14.801  12.244 -0.1150  0.0192  0.0182
24998W        W45278  16.214  15.662  15.515  0.2002 -0.0284  0.0209
24999W        W45279  14.271  10.593   5.079 -0.1348  0.1383  0.0449
25000W        W45280   3.161  13.611  15.224  0.0183  0.0954 -0.1095
25001W        W45281  13.170  13.156   2.687  0.2467 -0.1732 -0.0507
25002W        W45282  16.623   0.379  14.739 -0.0660 -0.0468  0.3518
25003W        W45283   2.231   9.018   2.429  0.0378  0.1295  0.0631
25004W        W45284   5.510  10.324  13.659  0.1604 -0.5040  0.0943
25005W        W45285  12.660  13.597  14.467 -0.4735  0.3269  0.0661
25006W        W45286   0.012  12.302   2.629  0.1851  0.1243  0.0989
25007W        W45287   1.204  17.987   2.679  0.3570 -0.0356  0.2907
25008W        W45288   3.052  11.859   2.401 -0.1765  0.0115 -0.0514
25009W        W45289   4.230  16.127  12.277 -0.0513 -0.0019 -0.0688
25010W        W45290  15.728  14.858  14.998 -0.0922  0.0964  0.1011
25011W        W45291   7.174  15.585  11.348  0.0282  0.1445 -0.1067
25012W        W45292  17.877  12.592   4.320  0.0374 -0.0709  0.0170
25013W        W45293   5.522   6.299   3.813  0.0698  0.1579 -0.3437
25014W        W45294   8.652  12.198  12.231 -0.2451  0.0035 -0.2300
25015W        W45295  14.372   2.114  11.846 -0.1605  0.2557  0.0406
25016W        W45296  15.372  14.232   2.625  0.3642 -0.1259 -0.0132
25017W        W45297  10.949  11.519  12.479 -0.0527 -0.1292  0.0395
25018W        W45298  11.980   9.403  12.436 -0.0703  0.0614  0.2425
25019W        W45299   3.400  11.869  15.809 -0.3094 -0.2295 -0.0931
25020W        W45300   2.662  10.036   1.642  0.4240  0.1391  0.0084
25021W        W45301  17.554   2.073   4.463  0.2727 -0.3593 -0.2656
25022W        W45302  14.642   6.392  12.013 -0.1883 -0.0782  0.1812
25023W        W45303   1.572   3.221   1.849 -0.0085 -0.0482 -0.3944
25024W        W45304   4.732  13.064  12.756  0.0331 -0.0500 -0.0393
25025W        W45305  13.166   0.595   0.578  0.0426 -0.0415 -0.2470
25026W        W45306  14.875   4.044  12.763  0.0877  0.2464  0.0273
25027W        W45307   9.827  17.284   4.047 -0.2841  0.3064 -0.0171
25028W        W45308  14.339   6.982  14.550  0.1079 -0.0102 -0.3143
25029W        W45309  13.956   5.328  12.510  0.0552  0.0664 -0.0656
25030W        W45310   0.617   4.298   4.581  0.1402 -0.1857  0.1132
25031W        W45311   2.431   4.583   0.617 -0.2735 -0.0906 -0.0100
25032W        W45312  16.320   8.770   0.000 -0.3485  0.1992 -0.1411
25033W        W45313   9.465   8.831   3.538 -0.2866 -0.2094 -0.1959
25034W        W45314  15.216   6.760  12.708 -0.0206 -0.1762 -0.1737
25035W        W45315   4.990  16.312  11.707 -0.1560 -0.4106 -0.0130
25036W        W45316  16.350  16.847   2.391  0.1688  0.0879  0.0622
25037W        W45317   5.499  16.234   3.105  0.1729 -0.2937  0.0341
25038W        W45318   7.663   8.780   4.461  0.0643 -0.0720 -0.0910
25039W        W45319   2.017   0.400  13.418 -0.3038  0.0188  0.0177
25040W        W45320   4.981   1.216  13.358 -0.0883  0.0144  0.1130
25041W        W45321  14.163   5.486  13.339  0.0481 -0.1642  0.1029
25042W        W45322   4.123   9.466  11.313 -0.1085 -0.2653 -0.0057
25043W        W45323  10.078  16.825  13.205 -0.1499 -0.1240 -0.2149
25044W        W45324   8.094   2.061   2.528  0.1313  0.1209  0.2557
25045W        W45325  12.458   8.846  14.913 -0.0858  0.2353  0.0538
25046W        W45326   4.234   2.728   2.619  0.0178  0.0054 -0.1641
25047W        W45327   4.398   9.360   4.692 -0.2342  0.0220  0.0884
25048W        W45328   6.362  10.915  13.988 -0.1285  0.1270 -0.0214
25049W        W45329   0.688   5.376   3.228  0.1987  0.3732  0.1103
25050W        W45330  17.716   4.807   3.763 -0.0474  0.0640 -0.1994
25051W        W45331  10.946  16.080  14.057  0.2356 -0.4620 -0.0576
25052W        W45332   5.770  12.052  12.829  0.1252 -0.2227 -0.2594
25053W        W45333   8.882   0.596   0.096 -0.1133  0.0831  0.0820
25054W        W45334   7.304   1.056  15.504 -0.1085 -0.1366  0.0511
25055W        W45335  10.874  17.783  11.514 -0.3010  0.0733 -0.4551
25056W        W45336   9.464  13.174   2.798 -0.0319 -0.3373 -0.0444
25057W        W45337  13.785   3.653  12.256 -0.1171 -0.1041  0.0784
25058W        W45338  10.382   8.919   4.565 -0.1715  0.3749 -0.3219
25059W        W45339   6.628   1.665  15.723  0.1928 -0.1594  0.0447
25060W        W45340   8.410   1.119  13.454 -0.0392 -0.2030 -0.2177
25061W        W45341  18.165   3.435   2.703 -0.2433 -0.1768 -0.1234
25062W        W45342  13.907   7.299   3.761  0.2840 -0.0453  0.1477
25063W        W45343   2.308  16.505   0.912 -0.0177  0.2352 -0.2989
25064W        W45344   8.681   1.457   3.990  0.0898 -0.2826 -0.2764
25065W        W45345  12.705  14.532   2.168  0.0577 -0.0275  0.3894
25066W        W45346  12.763   3.866   0.821 -0.1355 -0.2265 -0.1810
25067W        W45347   9.015   6.457  11.790  0.2100 -0.2099  0.0890
25068W        W45348   5.666  13.019   0.972  0.0483 -0.0925 -0.0502
25069W        W45349  16.641   3.543  12.842  0.1692  0.1826  0.0624
25070W        W45350   0.723  17.617   0.545  0.1203 -0.1108  0.0645
25071W        W45351   6.358  17.768  11.452 -0.0175  0.1428 -0.1433
25072W        W45352  14.660  16.289   2.748 -0.0802 -0.1493 -0.2408
25073W        W45353   3.471  14.287   1.184 -0.0653 -0.2082  0.0560
25074W        W45354   2.062  13.535   3.142  0.2399 -0.0049 -0.0229
25075W        W45355   3.893  12.498   0.525  0.1803 -0.0860 -0.2691
25076W        W45356   9.103  10.445  15.174 -0.0335 -0.0877  0.1872
25077W        W45357   8.658  10.356   5.976 -0.0067 -0.0157  0.1404
25078W        W45358  11.366   4.925   0.782  0.4334  0.0240  0.0958
25079W        W45359   2.981   0.533   1.234  0.1393 -0.0268  0.0348
25080W        W45360   3.904   8.278  11.808  0.2137 -0.0945  0.1063
25081W        W45361   6.973   1.580  14.235 -0.1718 -0.0797 -0.0894
25082W        W45362  13.648   4.860   3.163 -0.0347 -0.1007 -0.2388
25083W        W45363   0.311   9.935   0.340  0.1390 -0.0692  0.1090
25084W        W45364   9.558   1.649  13.999 -0.2143 -0.1971  0.2583
25085W        W45365  16.843   8.358  12.465 -0.1532  0.0236 -0.0034
25086W        W45366   3.693  16.584   2.544 -0.1116 -0.0227 -0.1905
25087W        W45367  10.927   2.399  14.869  0.1453 -0.0235  0.2430
25088W        W45368   5.798  12.325   2.437  0.0350 -0.0734 -0.4822
25089W        W45369  13.493   7.994   2.483  0.1153  0.1841 -0.0787
25090W        W45370  12.047  11.164   0.647  0.1090 -0.0624 -0.1530
25091W        W45371  14.218   0.086  13.618 -0.0759  0.0509 -0.0996
25092W        W45372   1.923  12.646   0.637  0.0316  0.3865 -0.1956
25093W        W45373  13.173   6.035   0.242  0.0665  0.3168  0.1142
25094W        W45374   8.214   8.032   3.434  0.1525  0.0474 -0.2743
25095W        W45375   1.714   1.167  14.301  0.0856 -0.1782 -0.0509
25096W        W45376  16.438   3.025  14.059 -0.1231  0.0856  0.0478
25097W        W45377   0.894   2.388  12.182  0.0671  0.1554 -0.3195
25098W        W45378   8.337  13.099   0.460  0.0260  0.0078 -0.2912
25099W        W45379   0.319  17.713   2.438 -0.0809 -0.1407 -0.1786
25100W        W45380  15.554  11.304   3.892  0.1525 -0.0005  0.1649
25101W        W45381   5.816   7.447  14.539  0.1676 -0.0022 -0.0172
25102W        W45382   4.637   0.187   1.252 -0.2927  0.0844 -0.2984
25103W        W45383  16.002  10.630   1.316  0.0175 -0.0872  0.0304
25104W        W45384  10.856   0.181   3.411  0.1393  0.1323 -0.2287
25105W        W45385   3.634   3.219  12.113  0.1913  0.4481 -0.0132
25106W        W45386  14.913   9.914  11.950  0.1827  0.2376 -0.2585
25107W        W45387   3.051  10.208   4.066 -0.4435 -0.0013 -0.0402
25108W        W45388   8.538   8.240  14.561 -0.0646 -0.4094 -0.0227
25109W        W45389   4.571  10.094   0.196 -0.2816  0.1991 -0.1178
25110W        W45390   8.678   9.890  14.844  0.1864 -0.2510 -0.1234
25111W        W45391   5.115   7.607  12.143 -0.0015  0.0415 -0.2258
25112W        W45392  12.376  10.815  14.512  0.0350 -0.1348 -0.1840
25113W        W45393  15.199  12.907   3.650  0.3612  0.0243 -0.2769
25114W        W45394  17.517   6.162   3.361  0.0536  0.1954  0.0904
25115W        W45395   7.156   6.930   1.001  0.3009  0.0062  0.1110
25116W        W45396   6.969  16.487   0.763  0.0325 -0.1542 -0.0616
25117W        W45397   2.373  18.137  15.026  0.1741 -0.1690 -0.0035
25118W        W45398   9.266  11.307  15.545 -0.2568  0.0089 -0.0611
25119W        W45399  15.129  12.377   4.897 -0.1450  0.1306 -0.0377
25120W        W45400   1.749   2.167  11.588  0.3005 -0.1621 -0.2021
25121W        W45401   3.599   3.259  14.956 -0.1522 -0.0831 -0.0496
25122W        W45402   5.814   7.168   5.733  0.1561 -0.1413 -0.0279
25123W        W45403  12.733  16.608  14.122 -0.0417 -0.4079  0.2270
25124W        W45404   5.619   9.740  12.561  0.0295  0.0889  0.2501
25125W        W45405  12.040  15.415   4.555  0.0893  0.0743  0.0992
25126W        W45406   8.044  10.364  15.731  0.1351 -0.1030  0.0550
25127W        W45407   1.438   9.643   2.488  0.0201  0.0384 -0.3392
25128W        W45408  15.049   9.981   3.424  0.4189 -0.2503 -0.0202
25129W        W45409   0.151   5.734   2.088 -0.2266  0.4200 -0.0018
25130W        W45410  14.116   8.987  14.168  0.0071 -0.1989 -0.3842
25131W        W45411  11.787  15.457  13.477 -0.1698 -0.0577 -0.2647
25132W        W45412  12.150  16.117   1.166 -0.0637  0.2426  0.2323
25133W        W45413   6.980  16.512  12.958 -0.3001  0.2791 -0.1772
25134W        W45414   0.856  15.253   3.639  0.0452  0.2361  0.1416
25135W        W45415   9.060   0.516  11.380  0.1705  0.0117  0.3416
25136W        W45416   1.212   7.992  14.196  0.0601 -0.1185  0.0998
25137W        W45417   8.315   8.006   4.131 -0.0616  0.0824 -0.2045
25138W        W45418   2.469   7.118  11.994 -0.0053  0.2596 -0.0037
25139W        W45419   1.280   7.827   0.731  0.3120 -0.0498  0.1812
25140W        W45420   4.939   7.733  12.896  0.1780 -0.0565  0.1932
25141W        W45421   1.251  15.538   0.550  0.2854 -0.0692 -0.1764
25142W        W45422  10.718   6.383   0.142 -0.3342 -0.0390 -0.1579
25143W        W45423  15.311  11.048   2.862  0.0025 -0.1367  0.1194
25144W        W45424   5.986  13.342  14.292  0.0562  0.1183  0.1399
25145W        W45425  11.399  14.436  11.912 -0.0301  0.0325  0.0763
25146W        W45426  13.304  14.752   1.661 -0.2984  0.0185 -0.0720
25147W        W45427   7.540  12.726  12.965 -0.2404 -0.3813 -0.0679
25148W        W45428  13.164   9.054   0.120 -0.0693  0.3857  0.0040
25149W        W45429  13.282  16.104   4.475  0.0363  0.2048  0.0621
25150W        W45430  15.823   0.815   3.377  0.0681 -0.1781  0.2553
25151W        W45431  15.765  10.199   3.831 -0.1214 -0.1716  0.1042
25152W        W45432  16.117  13.619  12.168  0.0830  0.1505  0.0176
25153W        W45433   7.159  14.732  14.821  0.0721  0.0813  0.0205
25154W        W45434  10.682   4.817   2.769  0.1645  0.0485  0.2786
25155W        W45435   0.231   8.552  15.827 -0.0336 -0.4830  0.2550
25156W        W45436   4.523   3.310   0.945  0.2758 -0.0807  0.1723
25157W        W45437  13.002   5.636   2.793  0.0130 -0.0953  0.1813
25158W        W45438  10.030  13.477  14.482 -0.1723 -0.0020  0.1372
25159W        W45439   0.403  16.268  12.191 -0.2873  0.0354  0.1057
25160W        W45440  14.691   5.104   2.209  0.2450 -0.4111  0.1452
25161W        W45441   1.337  17.457  15.374 -0.1127  0.1874 -0.3176
25162W        W45442  12.514  16.614   3.090  0.1705  0.1508  0.2127
25163W        W45443   9.513   6.306   0.277 -0.0108 -0.3637 -0.1161
25164W        W45444   6.620   4.790   3.885 -0.0711  0.0006  0.2410
25165W        W45445  17.860   5.802   3.160 -0.0086  0.0937 -0.1257
25166W        W45446   6.409  14.620   4.690 -0.1817 -0.2074 -0.1126
25167W        W45447   2.608   1.070  15.032 -0.1939 -0.0802  0.0875
25168W        W45448  14.808  15.915   4.839 -0.2179  0.1359 -0.2332
25169W        W45449   9.749  17.645  11.588 -0.3555 -0.1940 -0.0416
25170W        W45450   4.032   2.178  14.601  0.0406  0.2346  0.1088
25171W        W45451  14.080  13.431   5.982 -0.0785  0.0666 -0.0029
25172W        W45452   0.364  16.157  13.118 -0.1688 -0.2212 -0.0397
25173W        W45453  10.833  13.717   0.975  0.1478  0.4157 -0.1404
25174W        W45454   6.933  10.499   4.194 -0.1290  0.2934 -0.0080
25175W        W45455   3.503  15.511  12.413 -0.1721 -0.1163 -0.1026
25176W        W45456   9.937   8.822  11.258  0.0243 -0.1242 -0.1072
25177W        W45457  10.037   8.216  13.718  0.0002 -0.4247  0.2952
25178W        W45458   1.792   4.621   2.524  0.1061  0.1742 -0.2250
25179W        W45459  15.180   3.678   1.736 -0.0370 -0.4132  0.1061
25180W        W45460   6.778   4.623   1.516 -0.1174  0.0372 -0.2349
25181W        W45461  12.748  14.113   0.731  0.3639 -0.1733  0.0659
25182W        W45462  18.113  12.495   0.421  0.4470  0.0770  0.1298
25183W        W45463   7.712   0.583   1.786  0.1830  0.1228 -0.0067
25184W        W45464   7.555   0.065  11.590  0.4545  0.2653  0.1884
25185W        W45465  17.923  17.407  13.198 -0.2229  0.3191 -0.1553
25186W        W45466  10.347   2.561   1.921 -0.2476  0.0084  0.1208
25187W        W45467  12.279   2.079  14.754 -0.1021 -0.2071 -0.0052
25188W        W45468   7.962  13.696  13.667  0.1302  0.0637 -0.2714
25189W        W45469  14.498  13.042  15.016  0.1436  0.0158  0.1792
25190W        W45470   3.479   8.413   3.239 -0.0729  0.1394 -0.0917
25191W        W45471  11.617   0.385  13.163 -0.2029 -0.1190 -0.0489
25192W        W45472  15.733  13.912  15.505 -0.0371  0.1928  0.0346
25193W        W45473   0.007   9.420  15.515 -0.1193 -0.1431  0.1388
25194W        W45474   7.726  14.958  11.601 -0.0030  0.3853 -0.1399
25195W        W45475  10.689  15.868   4.765 -0.0830 -0.0712  0.2188
25196W        W45476   4.278   2.030  13.285  0.0684  0.1424 -0.1056
25197W        W45477   3.278  10.502  15.752  0.3121 -0.0742 -0.2768
25198W        W45478   4.743  10.277  12.302 -0.1030 -0.2045  0.0995
25199W        W45479   5.949   8.463   1.912  0.0649 -0.1735 -0.1952
25200W        W45480  11.678  14.593  15.685  0.3432 -0.2154  0.4212
25201W        W45481  17.267   9.795  15.815 -0.0809 -0.1269 -0.2237
25202W        W45482  15.517   4.815   1.770 -0.1800  0.0592  0.0241
25203W        W45483   1.355  11.641  11.892  0.3644 -0.0606 -0.0349
25204W        W45484   4.190   7.883  11.554  0.1031 -0.1331 -0.0335
25205W        W45485  14.907  18.272   3.989  0.0704 -0.0916  0.1525
25206W        W45486   0.993   3.723  14.068  0.0407 -0.1374 -0.0712
25207W        W45487  15.847  12.348   2.108 -0.3532  0.1000  0.2071
25208W        W45488  14.858   2.016  14.388  0.0509  0.0734  0.2863
25209W        W45489   4.367   2.899   2.091 -0.0627 -0.3173 -0.0182
25210W        W45490   9.914  16.795   4.956  0.1763 -0.2005  0.0784
25211W        W45491   0.028  13.225  13.640  0.0873 -0.1693 -0.2962
25212W        W45492  15.570  14.122   3.189  0.0148 -0.1905  0.3304
25213W        W45493  11.647   5.057  11.815 -0.3227  0.3699  0.2364
25214W        W45494  18.268  14.331  15.280 -0.3188 -0.3393  0.1115
25215W        W45495  18.057  15.660  12.742 -0.3372 -0.0331 -0.0894
25216W        W45496   1.916   2.692  15.273 -0.0988  0.1416 -0.0095
25217W        W45497  14.830   7.958  15.455 -0.0639 -0.2071  0.2828
25218W        W45498   5.368   9.637   3.105 -0.2341 -0.0297 -0.1007
25219W        W45499  11.985   0.722  14.285  0.0584  0.3002  0.1165
25220W        W45500   8.059   0.353  14.656 -0.0170  0.4463 -0.2338
25221W        W45501  11.862  11.138  13.785 -0.0366 -0.1926  0.0833
25222W        W45502   0.924   4.675  12.042 -0.0616 -0.0693  0.0853
25223W        W45503  10.818   7.455  14.124  0.1794  0.2037  0.0780
25224W        W45504  11.556  11.112   3.475 -0.0218  0.2324 -0.0128
25225W        W45505  12.158  10.367  12.449 -0.0992  0.1058 -0.0305
25226W        W45506   2.250   9.197  12.519 -0.0263 -0.2447  0.1255
25227W        W45507  12.345  11.746  14.439  0.1624  0.1048  0.1225
25228W        W45508   7.892   3.458   0.579  0.0622  0.0396 -0.0782
25229W        W45509   9.231   7.833   0.666 -0.1354 -0.0753 -0.1689
25230W        W45510  13.751  16.504   1.523 -0.0110 -0.1940  0.0406
25231W        W45511   9.241  10.561  13.800  0.0905  0.0120  0.1398
25232W        W45512  10.285  13.216  12.995 -0.2953  0.0063  0.0393
25233W        W45513  17.180  10.851  15.813  0.1257 -0.0104 -0.2369
25234W        W45514  17.176  14.836   0.116 -0.0409 -0.2582  0.0278
25235W        W45515  11.662  13.038  12.427  0.0538 -0.0458 -0.2314
25236W        W45516   8.013   0.751  15.559 -0.1156 -0.0570 -0.3024
25237W        W45517   4.682  16.009   3.319 -0.0490 -0.1237 -0.0378
25238W        W45518  14.199   9.670  13.371  0.3885  0.1456  0.2187
25239W        W45519   0.611   5.249   3.903 -0.1538 -0.1647 -0.4243
25240W        W45520   5.775   3.707   3.161  0.0567  0.0612  0.0660
25241W        W45521   3.482   4.888   2.027 -0.1431  0.1670  0.0463
25242W        W45522   5.113   4.639   1.866 -0.0479 -0.0236 -0.1202
25243W        W45523   0.279   2.821   3.365 -0.1325  0.1436  0.1758
25244W        W45524   7.527  15.987  11.464  0.0541 -0.0469 -0.2076
25245W        W45525  11.169   3.624   0.245  0.2591  0.0153 -0.1613
25246W        W45526  10.455   2.828  14.157  0.1081  0.2340 -0.0418
25247W        W45527  16.843  11.911   0.892  0.0534 -0.2991  0.0595
25248W        W45528   7.366  12.904   3.078 -0.0907  0.0649 -0.2273
25249W        W45529  14.008  14.155  12.007 -0.1260  0.1515  0.0728
25250W        W45530  17.734   8.713   0.511  0.2313  0.0544 -0.1822
25251W        W45531   9.854  17.349   1.948  0.1019  0.1387  0.3161
25252W        W45532  12.177  18.115  14.349 -0.0571  0.0013  0.0786
25253W        W45533   0.839   5.920  12.471  0.0703 -0.0791 -0.0296
25254W        W45534   2.446   3.872  12.374 -0.0375 -0.0967  0.1423
25255W        W45535   7.358   1.561  12.314 -0.2052  0.0517 -0.1365
25256W        W45536  13.971  10.407   2.053  0.1016 -0.0155 -0.0571
25257W        W45537  17.781   2.101  15.324 -0.0628  0.0413  0.1844
25258W        W45538  16.621  12.559  12.718 -0.3944 -0.0219 -0.2349
25259W        W45539   7.301   2.802  12.407 -0.1332 -0.0568  0.0219
25260W        W45540  14.936   3.847   1.056 -0.0396 -0.1826  0.0664
25261W        W45541   2.652   2.465   3.260 -0.1850 -0.0810 -0.0430
25262W        W45542  12.549  17.103   2.828 -0.1540 -0.0533 -0.1980
25263W        W45543   4.930  18.186   0.840 -0.3695 -0.3371 -0.2639
25264W        W45544  12.223   6.274   3.829 -0.1226 -0.1079 -0.1967
25265W        W45545   6.244  15.952  12.881  0.0344 -0.2335 -0.0541
25266W        W45546  13.198   5.865   1.822 -0.0277  0.2113 -0.1243
25267W        W45547   0.623   9.211  15.123 -0.0414 -0.3287  0.3215
25268W        W45548  12.658   5.900  14.068 -0.0142 -0.1687  0.0870
25269W        W45549   5.310  15.359  14.848 -0.0611 -0.2740  0.0644
25270W        W45550  13.096  10.178   0.827 -0.5952  0.1772  0.0087
25271W        W45551   8.493  16.253   0.211 -0.4108  0.2256 -0.1163
25272W        W45552   6.390  18.144   1.469  0.2535  0.0801 -0.0928
25273W        W45553   5.694  12.888  14.378  0.0027  0.0714 -0.2334
25274W        W45554   9.964  17.650   3.776  0.2190  0.0528 -0.0649
25275W        W45555  13.354  12.958   3.441  0.1440 -0.2476 -0.1293
25276W        W45556   7.191  13.074  14.543  0.1232  0.1810 -0.2610
25277W        W45557   8.136   8.543  15.805  0.1122  0.1215  0.0656
25278W        W45558   4.996   5.056   4.807  0.0439 -0.0074 -0.1594
25279W        W45559   4.420   2.626  12.410 -0.1363 -0.1018 -0.1685
25280W        W45560   0.434  18.235  13.881  0.1961  0.0378 -0.0322
25281W        W45561   0.470  14.547  14.652 -0.3878 -0.0899 -0.0463
25282W        W45562  13.146  11.991  14.919 -0.0023 -0.0788 -0.0973
25283W        W45563   1.454  12.752   0.011 -0.0698  0.1741 -0.0240
25284W        W45564   7.251   5.006  15.674 -0.1963  0.1962  0.0548
25285W        W45565   1.223  15.718   3.574 -0.0383 -0.0477 -0.0075
25286W        W45566  10.114   0.532   2.972 -0.3693  0.0651  0.1281
25287W        W45567   2.566   2.052   1.633 -0.2347  0.2601 -0.0892
25288W        W45568   8.371   1.258   4.348 -0.0739  0.0292 -0.1232
25289W        W45569   6.772   2.946  14.467  0.1982 -0.1410 -0.0813
25290W        W45570   7.175   8.226  14.770 -0.1328  0.0101  0.0358
25291W        W45571  13.837   9.826  12.841 -0.5277 -0.1231  0.0583
25292W        W45572   7.924   2.352  14.246  0.1267  0.1873 -0.2109
25293W        W45573  10.785   0.746  10.441  0.0681 -0.1763 -0.0076
25294W        W45574  12.607   7.627   2.394 -0.0363 -0.3368 -0.1049
25295W        W45575   9.226  11.236   0.145 -0.0623  0.1777 -0.2004
25296W        W45576   7.887   1.560   2.642 -0.2342 -0.0554  0.0524
25297W        W45577   4.440   9.207   0.005 -0.0022  0.0780  0.1275
25298W        W45578   4.127   7.080  13.483  0.1103 -0.2092 -0.0515
25299W        W45579   0.053   7.994  14.381 -0.3121  0.6764  0.1864
25300W        W45580  13.311   2.637   3.773 -0.0605 -0.1521 -0.2911
25301W        W45581   0.969  12.129   1.419  0.1771  0.0035 -0.4153
25302W        W45582  14.884  14.562  14.029 -0.1791 -0.0752 -0.0658
25303W        W45583   5.063  13.366  12.487 -0.2568 -0.1583  0.2519
25304W        W45584  14.192  13.089   4.211  0.3384 -0.2800 -0.0056
25305W        W45585  18.030   5.617  15.566 -0.1210 -0.0590 -0.4940
25306W        W45586   2.676   9.459   1.688  0.1909  0.2607  0.3145
25307W        W45587  17.522   1.240  13.779  0.1253 -0.0536 -0.0803
25308W        W45588  12.253  18.095   1.546  0.0415 -0.1863 -0.0535
25309W        W45589  17.647  17.060  12.182  0.0049  0.0572  0.1635
25310W        W45590   7.816  10.682   1.438 -0.2234 -0.3334  0.0132
25311W        W45591   3.981  13.245   4.536 -0.1623 -0.0346  0.1768
25312W        W45592  11.632   6.425  14.631  0.0189  0.3427 -0.1103
25313W        W45593   0.938   7.508   4.378 -0.0099 -0.0935 -0.1126
25314W        W45594   0.154   2.491  14.494 -0.0435 -0.1951 -0.2485
25315W        W45595   8.946   6.647  12.234 -0.2434  0.0313 -0.1832
25316W        W45596   8.203  13.371  14.655  0.1292  0.5717 -0.0340
25317W        W45597  10.202   7.256  12.608 -0.1423 -0.1820 -0.3409
25318W        W45598   2.496   5.779  15.219 -0.0192 -0.1838  0.1009
25319W        W45599   5.708  11.058   3.393 -0.0777  0.0115 -0.0280
25320W        W45600  13.075   8.528  15.538 -0.1055 -0.1486 -0.0541
25321W        W45601  11.282   3.591  15.656  0.1998 -0.1879  0.0604
25322W        W45602   1.977   3.756  12.475  0.3158  0.1383  0.1805
25323W        W45603   2.568   8.178   4.131 -0.0698  0.0166  0.2057
25324W        W45604   0.314  14.910   1.214  0.0712 -0.0474  0.1310
25325W        W45605   1.181   3.008   2.166  0.1287  0.1947 -0.3955
25326W        W45606   5.147   5.842   0.829 -0.0569  0.1467  0.0168
25327W        W45607   1.024   9.110  11.773  0.1711 -0.3203  0.2529
25328W        W45608  10.567  14.912  11.693 -0.1751 -0.0937  0.2328
25329W        W45609   1.413   0.974  11.794 -0.2459  0.0368  0.0002
25330W        W45610  10.614   3.409   2.134  0.1382  0.1102 -0.1219
25331W        W45611   2.021  17.186  13.629 -0.0375  0.2482  0.2131
25332W        W45612  15.269  18.139   0.586 -0.1182 -0.0340 -0.0156
25333W        W45613   3.829  16.134   0.032 -0.1236  0.1741 -0.3386
25334W        W45614  16.484  16.120   0.309  0.0157  0.2183  0.1071
25335W        W45615   1.231   1.416  13.575 -0.0348 -0.0471  0.0988
25336W        W45616  17.099   8.727  13.408 -0.2088 -0.1227  0.4332
25337W        W45617  13.737   6.842  12.208 -0.1578  0.0209 -0.0503
25338W        W45618   9.677  16.499  15.802 -0.0364 -0.1779 -0.1091
25339W        W45619   3.416   6.341   1.282  0.0473  0.4141  0.0148
25340W        W45620   6.465  15.803   3.155 -0.1661 -0.2168 -0.3991
25341W        W45621   2.736   7.649   1.440 -0.0524  0.2558 -0.0745
25342W        W45622   6.071   5.647  12.186 -0.2943 -0.0002 -0.0895
25343W        W45623  17.316   7.581   2.532 -0.0261 -0.0837  0.3280
25344W        W45624   7.686   2.163  12.768  0.0322 -0.1680  0.1018
25345W        W45625  14.282  13.516  15.690 -0.0035 -0.0789  0.1047
25346W        W45626  16.051   1.158  11.842  0.4287  0.3445 -0.2333
25347W        W45627   4.948  12.100   1.796  0.0773  0.1528  0.0492
25348W        W45628   0.033   3.906  14.757  0.0085 -0.0981 -0.2104
25349W        W45629  13.422  16.049   1.553  0.0522 -0.1220  0.0564
25350W        W45630   9.064   4.667   2.447 -0.0914  0.0619  0.0416
25351W        W45631  12.747   7.386   4.441  0.0042  0.0754 -0.0588
25352W        W45632   5.754  15.831   2.990 -0.0127  0.0225 -0.1124
25353W        W45633   5.544  17.356  13.445 -0.1014  0.2565  0.2267
25354W        W45634  15.461   5.674   1.142  0.1019 -0.1107 -0.3587
25355W        W45635  10.042   5.418   2.684  0.2249 -0.1440 -0.3141
25356W        W45636  15.684   2.971  14.588 -0.0440  0.0208  0.4614
25357W        W45637  12.326   4.941  14.255 -0.2080 -0.1424 -0.0616
25358W        W45638   6.510   2.472   2.865  0.0650  0.1175  0.1181
25359W        W45639  10.890  10.558  13.680  0.1665  0.3285 -0.1074
25360W        W45640   6.071  13.471  13.800 -0.0546  0.2815 -0.2119
25361W        W45641   2.764   9.787   3.464  0.0108 -0.0253  0.3216
25362W        W45642  12.210   1.986   2.977  0.0194  0.0551 -0.0525
25363W        W45643  15.924   6.094   1.099 -0.1666  0.1172 -0.2225
25364W        W45644   8.062   5.533  13.952  0.1754  0.2225  0.1390
25365W        W45645   2.051   8.301  12.430 -0.0128  0.0623  0.1174
25366W        W45646   2.700  15.229  13.871 -0.2478 -0.0228  0.1929
25367W        W45647   2.031  13.694   1.745 -0.0610 -0.1285 -0.2278
25368W        W45648  16.772  11.735   2.073  0.0299 -0.0723  0.1828
25369W        W45649   8.345   7.969   1.612  0.1452  0.3170 -0.0367
25370W        W45650  10.715   8.613   4.134 -0.0162  0.0021 -0.2554
25371W        W45651  16.438   5.520   2.372 -0.1570 -0.0849 -0.1452
25372W        W45652   1.901   9.822  13.804 -0.2498 -0.2259  0.3931
25373W        W45653  10.894  10.650  12.254 -0.0483  0.2007  0.0673
25374W        W45654  15.687  13.821  11.957 -0.0979  0.3416  0.0598
25375W        W45655   7.168  13.243   0.083 -0.0065  0.0744  0.2466
25376W        W45656   1.385   7.141  14.339  0.0376 -0.1041 -0.0133
25377W        W45657   7.643  16.275   1.498 -0.1700  0.0470 -0.2016
25378W        W45658   2.919   7.757  13.430 -0.1290 -0.3289  0.0645
25379W        W45659   1.043   6.473   2.393  0.0926 -0.0833  0.0455
25380W        W45660   8.105   2.782  13.990 -0.0386  0.0320 -0.2045
25381W        W45661   2.134  16.465   1.752  0.1265 -0.3695 -0.1959
25382W        W45662   5.895   4.930  14.907  0.3083 -0.0859  0.0239
25383W        W45663   3.068  10.051  14.732 -0.2890 -0.2085  0.0342
25384W        W45664  14.215  17.528   4.123  0.0051 -0.0467  0.0139
25385W        W45665   5.597   8.487   4.747  0.1766 -0.1504 -0.0025
25386W        W45666  15.557  11.048   1.472  0.1712  0.1411 -0.1790
25387W        W45667  12.845  16.649   0.664 -0.0654  0.1910  0.0173
25388W        W45668   5.560  15.563   0.161  0.0452  0.0124 -0.4204
25389W        W45669   6.919  11.696   1.253  0.0113 -0.2026  0.1194
25390W        W45670   5.163  15.911   0.248 -0.1738 -0.1570 -0.0202
25391W        W45671   2.319   8.365  10.804  0.1696 -0.4001  0.0406
25392W        W45672  14.656  11.543  12.860  0.1352 -0.0910  0.0309
25393W        W45673  17.598  15.177   1.650 -0.2920 -0.1260 -0.0576
25394W        W45674  12.970   7.600  15.910  0.1690 -0.0748 -0.3084
25395W        W45675  12.645   3.046  13.820 -0.2117 -0.0622  0.0825
25396W        W45676  12.800  14.982  11.367 -0.0875  0.1513  0.1425
25397W        W45677   0.987   8.046   1.196  0.1990  0.1052  0.4606
25398W        W45678  11.660   1.421  14.775 -0.1006  0.1296 -0.1341
25399W        W45679   5.795  12.196  14.627  0.1611  0.0025  0.1004
25400W        W45680   7.501  14.587   1.288  0.0129 -0.2640  0.2359
25401W        W45681   7.267  13.752  14.777 -0.1702  0.2641  0.1339
25402W        W45682   7.622   0.384   0.282  0.0765 -0.0060  0.1987
25403W        W45683  10.125  10.826   2.230  0.0769 -0.0012 -0.2639
25404W        W45684  13.299  11.271   3.876 -0.0971  0.1267  0.1882
25405W        W45685   1.333  12.579  12.526  0.1661 -0.0691 -0.0425
25406W        W45686   8.834   7.370   2.159 -0.1076  0.1577  0.1530
25407W        W45687   5.945   8.823  14.782  0.2388  0.2307  0.0612
25408W        W45688  11.984   5.475  13.714 -0.1935 -0.0535 -0.1030
25409W        W45689   5.325   1.846   4.123  0.1821 -0.1412  0.1633
25410W        W45690  11.613   4.293  10.351 -0.1283  0.3494  0.2399
25411W        W45691  15.585  11.077   4.710  0.1403  0.0838 -0.0821
25412W        W45692  10.345  16.409  12.428  0.1464  0.1393  0.2665
25413W        W45693   2.835  12.675   1.465  0.0487  0.0269  0.1733
25414W        W45694  12.228   7.859   0.354  0.2744 -0.0023 -0.0999
25415W        W45695   7.476  10.246   2.272  0.1581  0.0875 -0.1630
25416W        W45696   0.599   2.696   0.678 -0.1374 -0.0759  0.1793
25417W        W45697   3.515   1.267   2.125 -0.1902 -0.0566  0.0328
25418W        W45698  14.241   6.675  12.103 -0.1571 -0.2744 -0.1086
25419W        W45699   0.724  16.321   3.222 -0.0940 -0.0115  0.0712
25420W        W45700  14.693  17.224   4.206 -0.4500 -0.0588  0.2357
25421W        W45701   6.777   6.301  14.492  0.2740  0.2174 -0.1207
25422W        W45702   6.278  11.683  11.446  0.0965 -0.0153  0.1794
25423W        W45703   9.392  17.327  14.472 -0.1851  0.1583 -0.1975
25424W        W45704   2.902   8.328  14.032 -0.1086 -0.2127 -0.1204
25425W        W45705   7.566   0.999   3.903  0.1922  0.0357 -0.6524
25426W        W45706   2.822   7.516   1.982 -0.0621 -0.3401  0.0016
25427W        W45707  12.016   8.549  11.908  0.0520 -0.1416 -0.1905
25428W        W45708   4.598   9.987   2.664 -0.0615  0.0365  0.1258
25429W        W45709  18.203   7.684  12.045 -0.0872 -0.0803  0.2896
25430W        W45710   2.943   2.562   2.400  0.2545  0.0860 -0.1931
25431W        W45711  10.159  13.981  13.123 -0.2045  0.0141  0.0322
25432W        W45712   3.313   1.956  13.560  0.1499 -0.3158  0.1174
25433W        W45713   4.446  11.793   2.661 -0.1577 -0.2149  0.1216
25434W        W45714  13.480  13.472  12.293  0.0785  0.1135 -0.1650
25435W        W45715   7.774   5.743   3.411  0.1279  0.0589  0.0907
25436W        W45716  10.710  10.136   2.876  0.1869 -0.0679  0.1518
25437W        W45717   9.326   2.172  14.524 -0.4739  0.1600  0.0586
25438W        W45718   2.900  12.980  11.923 -0.2553 -0.1569 -0.0479
25439W        W45719   7.666   3.773  13.731  0.0965  0.1873 -0.0661
25440W        W45720   7.587   3.688   0.949  0.0331  0.1311  0.2229
25441W        W45721   3.571   3.600  15.398 -0.0532  0.2844  0.1930
25442W        W45722  15.095  12.163   2.050 -0.1753 -0.0428  0.2752
25443W        W45723   3.169  17.441  12.180  0.0783  0.1364  0.1534
25444W        W45724  12.527   6.975  15.244 -0.1060 -0.0558  0.0887
25445W        W45725   2.768   4.433  14.206  0.1104  0.0539  0.1509
25446W        W45726   8.543   3.742   4.293 -0.1005 -0.0402  0.1561
25447W        W45727   2.236   2.900   1.057 -0.0525 -0.0807 -0.0327
25448W        W45728  11.748   7.134  15.028 -0.2332 -0.2421  0.0250
25449W        W45729   0.769   6.548  13.680  0.2162  0.1177  0.0549
25450W        W45730  17.870   5.083   2.635  0.1205 -0.0007  0.1646
25451W        W45731  16.041   0.886  13.742 -0.1490 -0.2005  0.0907
25452W        W45732  12.763   9.125   0.491 -0.2827  0.4550  0.0638
25453W        W45733   8.102   4.813   4.186 -0.0800 -0.3394  0.0801
25454W        W45734   9.494  10.989  11.890 -0.0667  0.0287 -0.3057
25455W        W45735   0.593  11.881  11.741 -0.2713  0.0409 -0.0402
25456W        W45736  17.520  13.717  14.711 -0.0827  0.1534 -0.1564
25457W        W45737  14.513  15.059   1.929 -0.1679  0.0488 -0.0821
25458W        W45738  10.849   2.325   1.142  0.1154 -0.1041 -0.0831
25459W        W45739  12.570   0.317   2.723 -0.1123  0.0065 -0.0557
25460W        W45740   9.297   1.561   0.359 -0.1188 -0.1875  0.1872
25461W        W45741  11.989  14.962  13.547  0.0589  0.1836  0.0528
25462W        W45742   6.899  11.613   0.162  0.1157  0.0049  0.0322
25463W        W45743   6.344   5.700  11.432 -0.1511  0.0791  0.2681
25464W        W45744   9.521   8.153  14.560  0.0969  0.0843  0.2145
25465W        W45745   2.998  16.968  12.210 -0.0304 -0.2979 -0.0026
25466W        W45746   0.463   6.323   1.505 -0.0543  0.2783 -0.1176
25467W        W45747  10.608   6.158  15.204 -0.0137 -0.1350 -0.3444
25468W        W45748  12.079  10.963   1.507  0.1905  0.2431 -0.1280
25469W        W45749   4.774   2.931   0.517 -0.3692  0.1819  0.1047
25470W        W45750   3.489   9.076  12.722  0.1808  0.1479  0.3823
25471W        W45751  15.700  10.629  13.803  0.0244  0.2989  0.0002
25472W        W45752   0.577  16.113  12.637  0.2150  0.0556  0.1238
25473W        W45753   7.444  15.061   3.550 -0.2409 -0.0735 -0.1106
25474W        W45754  13.124   8.017  14.295 -0.0315 -0.0426 -0.0755
25475W        W45755   9.772   4.131   1.141  0.0073  0.2089  0.2880
25476W        W45756   9.375  16.378   1.920 -0.0446  0.3680 -0.1061
25477W        W45757  14.321   1.201   3.686  0.0813  0.1530 -0.1098
25478W        W45758   2.472   5.751  13.266  0.1325  0.2314 -0.0214
25479W        W45759   1.669  18.072  13.849  0.0917  0.1689 -0.0187
25480W        W45760  13.655   3.824   3.053  0.3260 -0.0462 -0.0948
25481W        W45761  17.873   5.367   0.002  0.0051 -0.1980 -0.0457
25482W        W45762   7.264  15.965  14.999 -0.1866  0.0661  0.1890
25483W        W45763   6.593   1.237   1.731 -0.2399  0.0712  0.0297
25484W        W45764  16.531  10.207   1.056 -0.0125  0.0476 -0.1618
25485W        W45765   0.966   3.590  14.560 -0.1212  0.0512 -0.1688
25486W        W45766   6.728  10.624  13.194  0.1549  0.2042 -0.0507
25487W        W45767   0.304   4.670  12.769 -0.3085 -0.0390 -0.1499
25488W        W45768  17.678   0.635   1.259  0.2228 -0.3929  0.1143
25489W        W45769   0.096   8.420  14.643 -0.3541 -0.0072 -0.3746
25490W        W45770   2.112   0.775   1.052 -0.0931  0.0093 -0.0824
25491W        W45771  13.932   3.487   4.304 -0.0625 -0.0365  0.3321
25492W        W45772  16.391   5.545   3.392  0.0133  0.1865  0.1723
25493W        W45773  12.110  13.461   2.014  0.0807 -0.4169 -0.1473
25494W        W45774   4.268   6.954  12.542 -0.0404  0.1059  0.2020
25495W        W45775  11.101  14.435   2.745  0.1337  0.2327  0.2286
25496W        W45776   9.299  11.676  11.855 -0.2422 -0.2606  0.0363
25497W        W45777   8.231   9.111   1.601 -0.1006 -0.1989 -0.0907
25498W        W45778   3.698  17.397  13.089 -0.2194 -0.3599  0.1290
25499W        W45779  11.013   9.766  15.667  0.1947  0.0166 -0.0546
25500W        W45780   0.504  18.094   3.623  0.1976 -0.0566  0.0405
25501W        W45781   7.891   1.095   3.565  0.1641  0.0767 -0.0222
25502W        W45782  17.774   4.252  13.901  0.3432 -0.2483  0.1216
25503W        W45783  14.906   7.953   2.340 -0.0470 -0.5031  0.0613
25504W        W45784  15.424  12.596   3.103 -0.0038 -0.0275  0.0659
25505W        W45785  14.720  12.195   0.041 -0.1471  0.3048 -0.0687
25506W        W45786  10.767   9.972   3.691  0.0631 -0.0749  0.0414
25507W        W45787   2.456   9.941  11.576 -0.0821  0.0910 -0.2035
25508W        W45788   7.046   3.766   2.818  0.1606 -0.0797  0.1063
25509W        W45789  13.587   2.957  13.176 -0.4267  0.0603  0.0073
25510W        W45790   9.729   8.003  12.979 -0.0391 -0.0207 -0.2856
25511W        W45791  11.312  14.443   4.656 -0.0804 -0.1898  0.1873
25512W        W45792   9.973  11.732  13.595  0.0314 -0.0995  0.0170
25513W        W45793  10.012  15.710   0.413 -0.3007  0.0787 -0.0556
25514W        W45794  11.472  10.421   4.137  0.1876 -0.1956  0.0643
25515W        W45795  11.340  14.899  11.566 -0.1174  0.1038  0.3568
25516W        W45796  13.485  16.858  11.956 -0.0431  0.0408  0.1418
25517W        W45797  12.510  12.638   4.428 -0.2660  0.0700  0.2455
25518W        W45798  17.921   4.475   1.058  0.0771 -0.1827  0.0216
25519W        W45799   5.909  11.439   4.208  0.0621  0.2018 -0.0757
25520W        W45800   5.488  13.394  14.381  0.1040 -0.2832 -0.3169
25521W        W45801  12.614   5.003  14.712 -0.0548 -0.0054  0.2032
25522W        W45802  15.440  18.168   2.229  0.1277 -0.1100  0.1801
25523W        W45803   6.183   9.414  13.227  0.0870 -0.0105  0.1908
25524W        W45804  12.970   5.576   2.233  0.3238 -0.0672  0.0863
25525W        W45805   8.827   2.662   4.180  0.0936  0.1518  0.1410
25526W        W45806   6.928  11.726  13.111 -0.1968  0.1027 -0.1989
25527W        W45807  11.342   0.310  15.417  0.0440 -0.2279 -0.1449
25528W        W45808  15.637   3.077   3.499 -0.0236  0.0011 -0.1165
25529W        W45809   7.154  17.792  11.190  0.2055 -0.1302  0.1265
25530W        W45810   8.871   5.225  13.968  0.0143  0.3243 -0.0506
25531W        W45811  11.918   5.526   2.271  0.1878  0.1206 -0.1117
25532W        W45812   5.925  15.887  13.720  0.1232 -0.1120  0.1304
25533W        W45813   6.848   9.629   1.524 -0.1694 -0.0368 -0.1071
25534W        W45814   2.063   1.320   3.649  0.2923 -0.1060 -0.4364
25535W        W45815  12.954  16.805   3.652 -0.1053  0.2584 -0.2705
25536W        W45816  15.856   1.182  12.943  0.2835  0.0123 -0.0650
25537W        W45817   3.462  11.769  14.312 -0.0949  0.1462  0.1922
25538W        W45818  16.414   5.768   1.555 -0.0077 -0.3785  0.0012
25539W        W45819   4.967   4.269   1.464 -0.0427  0.0549 -0.0864
25540W        W45820  12.832  13.741   4.959  0.0678  0.0918 -0.2090
25541W        W45821  15.083  15.167   3.521 -0.0134 -0.1291  0.2086
25542W        W45822   6.406  14.118   2.312  0.0537 -0.2161 -0.3555
25543W        W45823   6.669   9.725   4.782 -0.0316 -0.2162 -0.0174
25544W        W45824  10.608  17.726   3.225  0.0550 -0.2510 -0.0107
25545W        W45825  15.798  11.457   0.682  0.0191 -0.0871  0.0951
25546W        W45826   6.721   0.540  11.995 -0.1672 -0.0538  0.0549
25547W        W45827   7.808   5.942  11.238 -0.0999  0.1942 -0.4984
25548W        W45828   0.412   3.816   0.315  0.0151  0.2563  0.1215
25549W        W45829   6.395  11.791   1.347 -0.1976 -0.0859 -0.2233
25550W        W45830  18.233   1.165  15.521  0.1788  0.0711  0.0157
25551W        W45831  11.679  11.861   0.318 -0.0122 -0.3405  0.1873
25552W        W45832   8.139  18.314  10.995 -0.0656 -0.0600  0.2347
25553W        W45833   3.875   7.234  11.555 -0.1887 -0.2028 -0.0411
25554W        W45834  11.746   7.852  12.275  0.1205  0.1229  0.2447
25555W        W45835   1.732   5.559  15.379  0.1591 -0.0636 -0.0439
25556W        W45836   8.394  10.002  15.840  0.1427  0.1042 -0.1678
25557W        W45837  17.305  12.856   2.652 -0.0630  0.3113 -0.0402
25558W        W45838   7.057   4.600   3.665 -0.2146 -0.1796  0.0330
25559W        W45839   5.716  15.246  15.153 -0.1399  0.3787 -0.0365
25560W        W45840  14.122  16.097  12.264  0.0451 -0.4578 -0.0352
25561W        W45841   3.964  15.526   3.962 -0.1590 -0.0875  0.3777
25562W        W45842  15.204   7.993  14.901 -0.0019 -0.0646 -0.0772
25563W        W45843  15.828  10.375   4.486 -0.0756  0.0703 -0.1109
25564W        W45844   4.675  14.847   1.264 -0.1661  0.1133  0.0451
25565W        W45845   3.168  16.491   1.745 -0.0915 -0.2119 -0.0254
25566W        W45846   5.871  13.133   2.556 -0.0089  0.0561 -0.0681
25567W        W45847   1.882   4.893   3.006  0.0011  0.2226 -0.0353
25568W        W45848  10.918   5.516  11.997 -0.2716 -0.0916  0.1542
25569W        W45849   6.996  17.473  15.079  0.2107  0.3120  0.1086
25570W        W45850   2.703  17.124  13.004 -0.1960  0.1290  0.0741
25571W        W45851   1.152   0.415   1.401  0.1799  0.1809 -0.4267
25572W        W45852   8.691  10.686  13.331  0.2704 -0.0399  0.1243
25573W        W45853  10.450  11.808   1.294  0.1876  0.0581 -0.1037
25574W        W45854  17.558   3.466   4.401 -0.1965  0.1526  0.0379
25575W        W45855  10.882   0.011   2.520 -0.1433 -0.1380  0.0416
25576W        W45856  15.676  12.453  13.238  0.1642  0.0147  0.1213
25577W        W45857   6.162   1.553   1.440 -0.0909 -0.3174 -0.1831
25578W        W45858  15.008   0.001  12.736  0.2693 -0.0066  0.0400
25579W        W45859  10.796  17.264  12.690 -0.1159  0.2688 -0.1105
25580W        W45860   1.205  11.107   0.696 -0.2917 -0.2918  0.1262
25581W        W45861  17.708  15.651   0.517 -0.1152  0.0070 -0.1479
25582W        W45862   2.319   1.953   0.642 -0.0684 -0.1144 -0.3752
25583W        W45863   7.687   0.573   3.743 -0.1021  0.0617  0.1095
25584W        W45864   6.223  14.187  12.187  0.0691 -0.0301 -0.1991
25585W        W45865  17.770  12.943  15.718 -0.3024  0.0161 -0.0833
25586W        W45866   1.260   2.329  15.892  0.2331  0.0254  0.0920
25587W        W45867  15.938  14.266   2.852 -0.0528  0.0114 -0.1988
25588W        W45868   3.468   9.972   4.257 -0.0638  0.1663  0.0280
25589W        W45869   4.785  15.878  15.323 -0.3281 -0.0891 -0.2740
25590W        W45870   8.226   7.567  15.846 -0.0097 -0.4297  0.0662
25591W        W45871  13.734  17.434   0.144 -0.2194  0.0993 -0.1586
25592W        W45872  14.390  12.041  12.783  0.1224  0.1783 -0.1567
25593W        W45873   9.848   0.699  12.226  0.1077 -0.0645 -0.0680
25594W        W45874   7.330   3.228  15.235 -0.1126 -0.0611 -0.0293
25595W        W45875   1.175  17.507   0.444 -0.1873 -0.1179  0.0382
25596W        W45876   0.940   7.435   3.883 -0.2012 -0.1299  0.1716
25597W        W45877   5.605  17.049   1.171 -0.1250 -0.0206 -0.0170
25598W        W45878  17.440  10.195   3.487  0.0570  0.0871 -0.1700
25599W        W45879  11.886   7.147   4.628 -0.3214 -0.2597  0.1672
25600W        W45880  15.680   5.157   3.160  0.0041 -0.2012  0.1113
25601W        W45881  17.875  18.010   0.994 -0.0102  0.0381  0.3408
25602W        W45882   9.987  10.891  13.325 -0.0617 -0.0053  0.4970
25603W        W45883  11.725  10.808   1.191 -0.2507 -0.0147  0.1236
25604W        W45884   3.279   7.998   1.940 -0.1186 -0.3535 -0.0716
25605W        W45885   5.538  15.085   1.625 -0.1789  0.4460  0.0082
25606W        W45886   4.249   6.421  15.871  0.0465 -0.2720 -0.1974
25607W        W45887   5.425   2.366   2.991 -0.2236 -0.1631  0.0546
25608W        W45888   0.090   6.333   0.558  0.0348 -0.1797 -0.0493
25609W        W45889  11.467  11.679   3.481  0.3371 -0.0369 -0.1563
25610W        W45890   7.482  13.362   4.311  0.0793  0.0815  0.0131
25611W        W45891  17.188   6.366   2.271  0.0953 -0.1121  0.1112
25612W        W45892  17.685   0.130   1.101 -0.0733  0.1987 -0.3159
25613W        W45893  10.453  13.828   4.728 -0.1955  0.0472  0.0111
25614W        W45894  11.010   5.813   2.030 -0.1527 -0.0880  0.1939
25615W        W45895   1.850   4.259  12.714  0.2456  0.1436  0.0666
25616W        W45896   8.283   1.099  15.271  0.0083 -0.1865  0.0936
25617W        W45897   2.597   2.634  11.415  0.0961  0.2854 -0.1047
25618W        W45898   6.012   6.447   2.609  0.0138  0.1025  0.0821
25619W        W45899   7.716  15.379   0.855 -0.4162 -0.0553  0.1594
25620W        W45900   2.986   9.436   3.836  0.0115 -0.0493 -0.3605
25621W        W45901   8.550   2.899   3.789 -0.1431 -0.1500  0.4075
25622W        W45902   4.500  17.163   0.599 -0.0147 -0.0359 -0.1086
25623W        W45903  15.585  13.789  14.333  0.0621 -0.1628 -0.4436
25624W        W45904   3.726  14.965   0.959 -0.1320  0.1779 -0.1091
25625W        W45905  17.084   2.975   3.634  0.3202 -0.1529  0.2154
25626W        W45906   9.285   8.064   4.274  0.5516 -0.0697  0.1202
25627W        W45907  17.423  16.270   1.920  0.1794 -0.0009  0.0560
25628W        W45908   5.584   1.175   3.074  0.0542 -0.1458  0.1732
25629W        W45909   5.976   7.998  12.417 -0.2626 -0.1290 -0.0484
25630W        W45910  14.067  11.164   2.645  0.4027  0.2468  0.1873
25631W        W45911   2.653   8.671   2.377  0.0469 -0.0435  0.0800
25632W        W45912   5.505   9.143   3.938 -0.1902 -0.2286 -0.3020
25633W        W45913  14.086  14.973  11.637  0.2182 -0.1178  0.1131
25634W        W45914  11.004   2.341   0.394  0.1415 -0.0337  0.0678
25635W        W45915  17.504  12.071  13.225  0.1853 -0.0992 -0.4723
25636W        W45916  11.762   8.319   0.546  0.1303  0.1977 -0.2092
25637W        W45917   6.035   8.827   3.215  0.1848 -0.0857 -0.0430
25638W        W45918   1.099  16.608   2.567 -0.2748  0.1697 -0.3107
25639W        W45919   0.747  14.796   0.936  0.0948 -0.0764  0.2408
25640W        W45920  12.932   0.562  15.159 -0.1113 -0.3318 -0.2273
25641W        W45921  13.691   2.650  12.146 -0.0695 -0.0771  0.0764
25642W        W45922  16.404   1.945  12.498  0.0519 -0.0048  0.4152
25643W        W45923   5.338   5.470   3.666  0.0347  0.1593 -0.2227
25644W        W45924   1.844  17.927   1.129 -0.1111  0.0111  0.1497
25645W        W45925   1.237  10.314  14.211  0.3885  0.4051  0.1054
25646W        W45926  12.504  10.827  12.212  0.1388 -0.1610 -0.0847
25647W        W45927   9.108   4.788  13.687  0.3435 -0.0141  0.1102
25648W        W45928  14.753   7.554  12.695 -0.0871 -0.1585  0.0624
25649W        W45929  17.354   9.133  15.760 -0.1969  0.2857  0.1620
25650W        W45930   3.402  12.398   0.008  0.0230  0.0356 -0.1209
25651W        W45931   8.017  16.563   0.021 -0.0652 -0.1666 -0.2155
25652W        W45932   9.252  12.741   1.543  0.1161 -0.0274 -0.2715
25653W        W45933   1.028  18.221   1.345 -0.1764 -0.0995 -0.3338
25654W        W45934   9.502   9.628  14.109 -0.0581  0.1526 -0.1456
25655W        W45935   3.554  12.391  15.052 -0.0031 -0.1370  0.0246
25656W        W45936   4.013   7.326   0.007 -0.3428  0.0518  0.0873
25657W        W45937   9.805   6.240  15.757 -0.0668  0.4479 -0.1600
25658W        W45938  15.029   7.642  13.973 -0.0587 -0.2660  0.0510
25659W        W45939   7.870  17.386  15.724  0.1415  0.1011 -0.1768
25660W        W45940   2.769  10.888  14.929  0.1025 -0.0251 -0.3157
25661W        W45941   0.410  12.012  12.242 -0.1314 -0.0282 -0.3638
25662W        W45942   0.580   4.591  13.237 -0.1551 -0.2260 -0.2553
25663W        W45943   8.771  15.119   0.656 -0.1068 -0.1456 -0.3851
25664W        W45944   4.645  11.402   1.851 -0.0045 -0.4339 -0.2428
25665W        W45945  11.445  17.930   3.919  0.3040  0.0076 -0.0193
25666W        W45946   7.960   0.875   4.200  0.2394 -0.1197 -0.1759
25667W        W45947   6.512  12.573  11.948  0.1148 -0.2688  0.1078
25668W        W45948  18.121   7.038   0.013  0.1344  0.2322 -0.1925
25669W        W45949  12.505   0.296   1.043  0.0207  0.0779 -0.3151
25670W        W45950  15.081   5.092  12.413 -0.0860 -0.3246  0.0159
25671W        W45951   5.757  18.130   3.208 -0.0086  0.1636 -0.2858
25672W        W45952  13.801   2.590   3.704  0.2086  0.3880  0.0062
25673W        W45953   2.444  12.879   2.715 -0.0028  0.1024  0.0668
25674W        W45954  10.523   2.310   0.763  0.0149 -0.3299  0.0761
25675W        W45955   3.957  12.665  12.555  0.2220 -0.0631 -0.1508
25676W        W45956   1.069   4.019  14.926  0.2137 -0.2215  0.0604
25677W        W45957  12.596   4.430   4.467 -0.1161 -0.1137  0.2307
25678W        W45958  15.748  16.141   3.050 -0.1929 -0.0301 -0.0073
25679W        W45959   0.366   3.869  13.270 -0.0832 -0.0382  0.0549
25680W        W45960   4.280   5.345  13.268 -0.1583 -0.2211  0.0234
25681W        W45961  17.994   0.427  15.365  0.1867  0.0862  0.1130
25682W        W45962   4.714   0.449  14.453  0.2693 -0.1594 -0.2307
25683W        W45963   0.057   5.638  11.957  0.0678 -0.0695  0.1767
25684W        W45964  11.153  17.481   0.756  0.0367  0.0418  0.1335
25685W        W45965  12.596  11.144  13.227  0.1375  0.1364 -0.3203
25686W        W45966   9.751   3.649  10.398 -0.3238 -0.3764 -0.1592
25687W        W45967   4.593   3.932  14.497 -0.0497 -0.0113  0.1359
25688W        W45968   9.796  14.228   2.488 -0.0044  0.1361 -0.0872
25689W        W45969  15.950  14.899   2.939 -0.3400  0.1097 -0.0997
25690W        W45970   6.321  17.622   3.489 -0.0033  0.1031  0.2682
25691W        W45971   0.601  14.039   0.073 -0.0602 -0.0047  0.1788
25692W        W45972  13.951   2.552   0.446  0.0963 -0.3263 -0.2242
25693W        W45973  12.350  15.670   1.224 -0.0439 -0.0720 -0.4064
25694W        W45974   8.712   3.369  15.226 -0.1784 -0.0357  0.3329
25695W        W45975  13.673   4.387   3.962 -0.0872 -0.2003  0.0142
25696W        W45976  18.185  16.893  12.394  0.0337 -0.1194 -0.0189
25697W        W45977   0.299   1.169   4.513  0.0410  0.1463  0.1865
25698W        W45978   0.079   6.868   4.785 -0.0433 -0.2584 -0.0779
25699W        W45979   8.276  14.256   0.174  0.0260 -0.0944 -0.1773
25700W        W45980   7.746   5.770  15.609 -0.1076 -0.0087 -0.3525
25701W        W45981  12.223  13.831   1.673  0.1128  0.0031 -0.3684
25702W        W45982   2.162  13.912   1.225  0.0575  0.1405  0.0330
25703W        W45983   3.578  13.838  11.345 -0.3289  0.1699  0.1970
25704W        W45984  14.705  16.009  13.994 -0.2705 -0.1858 -0.3054
25705W        W45985   7.723   6.460  11.211  0.3922 -0.0193  0.0142
25706W        W45986  13.177   3.288  12.796 -0.1681  0.0112  0.1197
25707W        W45987  11.614   4.968  15.031  0.0118  0.1607 -0.0902
25708W        W45988  17.516   2.180   3.981  0.1423  0.0885 -0.2478
25709W        W45989  14.288  13.786   4.246 -0.0148 -0.3254 -0.1519
25710W        W45990   1.001  11.507   4.435 -0.0219  0.0957  0.1059
25711W        W45991   4.971   2.249   0.188 -0.0149 -0.0378 -0.0052
25712W        W45992   4.198   2.535   4.243  0.1176  0.2827  0.1410
25713W        W45993  12.572   8.367  14.593 -0.0985  0.1154  0.0702
25714W        W45994  11.330  13.860  14.298 -0.1211  0.0732  0.3170
25715W        W45995   7.104   6.289   2.419 -0.2762  0.0212  0.1059
25716W        W45996  10.128  13.816  15.302 -0.0987 -0.2208  0.0910
25717W        W45997  17.255  13.975   2.301  0.1354  0.2531 -0.2429
25718W        W45998  15.996   5.870   0.407  0.1704  0.1829 -0.3519
25719W        W45999   3.283   4.578  13.552  0.0028 -0.1375  0.0045
25720W        W46000  14.371   2.358   0.762 -0.4229 -0.0073  0.0545
25721W        W46001   1.893  16.289  13.210  0.1240 -0.0650 -0.0110
25722W        W46002  12.245   1.236   1.512  0.1690 -0.3731  0.0433
25723W        W46003   2.366   6.790  14.261 -0.0411  0.2695  0.1864
25724W        W46004   1.016  14.689  11.421 -0.0317 -0.1200 -0.0534
25725W        W46005  11.592   6.440  12.565 -0.0795 -0.0678 -0.0774
25726W        W46006  17.032  11.170   2.089 -0.1106  0.1530  0.1280
25727W        W46007   7.482  18.276   1.095  0.2810  0.0299  0.3681
25728W        W46008  16.041   7.595   0.853  0.0639  0.2782  0.4270
25729W        W46009   4.515   6.291   0.436  0.0311  0.2896  0.0286
25730W        W46010   4.393   0.586  15.847 -0.0527  0.1997  0.0493
25731W        W46011  10.278   3.806  13.908  0.0904 -0.1332  0.0185
25732W        W46012   8.579   1.852  14.223  0.1190  0.0105  0.1605
25733W        W46013  15.656  12.864   3.466 -0.3491  0.1512  0.0906
25734W        W46014  12.205   1.799   3.876  0.1340  0.2518  0.2309
25735W        W46015  13.958  11.211   3.221 -0.3062  0.3503 -0.1540
25736W        W46016   5.627   9.212  12.440 -0.0215 -0.1517 -0.1091
25737W        W46017  11.685  17.276  13.862 -0.2271  0.3297  0.2714
25738W        W46018   6.317   8.146  11.287  0.0657 -0.2653 -0.1042
25739W        W46019  15.951  11.866   3.077 -0.0795  0.2702 -0.1254
25740W        W46020   7.717  13.632   3.948 -0.0647 -0.4445  0.2089
25741W        W46021   5.945   1.830  15.368  0.1134  0.3462  0.0158
25742W        W46022   7.147   4.752  15.229  0.4226 -0.1457  0.1919
25743W        W46023   9.066   1.306   2.124  0.0028  0.0696  0.1635
25744W        W46024  11.163  15.929   3.604  0.0764 -0.0005 -0.0488
25745W        W46025   7.345  15.986  12.345  0.0477  0.0925  0.2478
25746W        W46026   7.678  10.232  15.218  0.0639  0.0891 -0.2077
25747W        W46027   7.599  13.804   4.590 -0.1993 -0.0540 -0.0387
25748W        W46028   9.138   0.402   2.056  0.0409  0.2243  0.0344
25749W        W46029  12.085   5.131  15.006 -0.0033  0.2535 -0.1253
25750W        W46030  15.085  14.032  12.602  0.1242  0.3078 -0.0823
25751W        W46031  18.237  11.660   4.796 -0.2506 -0.3204 -0.0612
25752W        W46032   7.491   2.006  12.301  0.0729  0.0288  0.0484
25753W        W46033  10.091   8.905  12.852 -0.1180  0.3039 -0.0894
25754W        W46034   6.627  18.188  11.668  0.0082  0.0132 -0.1250
25755W        W46035  15.706   3.387   0.587 -0.0580  0.0469 -0.1502
25756W        W46036  14.793   9.377   1.324  0.0425  0.3709 -0.1547
25757W        W46037  16.307   8.136  13.209 -0.1235 -0.2468 -0.2112
25758W        W46038  17.472   9.685  12.989  0.0273 -0.0405 -0.1940
25759W        W46039  17.978  12.696   2.037  0.1940  0.1798 -0.0649
25760W        W46040   8.488   7.734   3.780 -0.3285 -0.0054 -0.0003
25761W        W46041  13.695  13.257   1.035  0.0229  0.1941  0.0720
25762W        W46042  14.323  11.426  12.470  0.2842  0.4693 -0.3128
25763W        W46043   6.289  16.965  12.546  0.1920 -0.1980 -0.0169
25764W        W46044   9.817  15.565   2.167  0.1784  0.1941 -0.1709
25765W        W46045  11.188  12.601  15.230  0.0086 -0.2495 -0.1480
25766W        W46046  13.005  17.746  11.788 -0.1458 -0.2198  0.0321
25767W        W46047   4.340   1.622  10.604 -0.0943  0.1705 -0.0694
25768W        W46048   2.902   9.183   4.499  0.0807  0.2851 -0.1371
25769W        W46049  10.580   4.778   0.005 -0.0440  0.1091 -0.0359
25770W        W46050  12.727  11.640  14.771  0.0687 -0.0227  0.3066
25771W        W46051  17.672  15.573  11.626  0.1697  0.2029 -0.2605
25772W        W46052   7.475   3.339   3.613 -0.0985 -0.2781 -0.1685
25773W        W46053  17.417  10.441  12.395 -0.0260 -0.0468  0.3252
25774W        W46054  12.837   0.504  14.196  0.0838  0.2232 -0.1022
25775W        W46055   0.720   8.135   1.628 -0.1344 -0.0994 -0.3262
25776W        W46056   9.090   8.400   3.683  0.0566  0.2018 -0.2707
25777W        W46057  15.109   8.117  15.901  0.1418  0.1706  0.3730
25778W        W46058   9.873  10.853   4.078 -0.0498  0.1816  0.0297
25779W        W46059  10.660   0.807  11.874 -0.0700  0.1901 -0.1737
25780W        W46060  14.815   3.346   2.288 -0.0942 -0.0139  0.2954
25781W        W46061   7.141   0.375  15.873  0.2096  0.1162  0.3167
25782W        W46062   4.868   2.950  11.297  0.1466 -0.1396 -0.1062
25783W        W46063   1.438  10.006   2.904 -0.0880  0.0734  0.0894
25784W        W46064   3.317   5.899   0.973  0.1618  0.0102 -0.1174
25785W        W46065  13.549   8.236  15.559  0.2888 -0.2346  0.1338
25786W        W46066   9.271  13.784  14.835  0.2019  0.0098 -0.0248
25787W        W46067  17.811  17.246  12.764  0.1138 -0.1095  0.1275
25788W        W46068   3.052  11.192  11.454  0.1066 -0.2675  0.1526
25789W        W46069  17.120   1.936  11.452 -0.0712 -0.1903 -0.0899
25790W        W46070  15.988   4.659   1.911  0.2419  0.0752  0.1092
25791W        W46071  12.427  12.687   1.470 -0.1021 -0.1573  0.0340
25792W        W46072   7.826  11.504  14.773 -0.0297 -0.1243  0.1108
25793W        W46073  11.693   7.574   1.215  0.1864 -0.0779 -0.0259
25794W        W46074   1.354   1.943   2.648 -0.0952  0.1884 -0.1420
25795W        W46075   2.793  13.470  14.229 -0.0821  0.0513  0.1583
25796W        W46076   0.990   9.364   3.592  0.2103 -0.0719 -0.3687
25797W        W46077   4.460  10.447   3.618 -0.0533 -0.1370  0.2478
25798W        W46078   9.527   6.532  13.583  0.1812 -0.1057 -0.3232
25799W        W46079  15.015   9.131  14.436  0.0729  0.0852  0.1379
25800W        W46080  17.802   6.622  15.215  0.0587 -0.1565  0.2304
25801W        W46081   2.035  14.800   1.910 -0.0931  0.0949  0.0860
25802W        W46082   2.236   7.373   1.499  0.4156  0.3136 -0.1321
25803W        W46083   1.551   2.912   1.051  0.2237 -0.2857 -0.0141
25804W        W46084   7.339  14.699  12.732  0.1447  0.0309 -0.1924
25805W        W46085   6.663  16.979  14.365  0.0191  0.0201  0.0365
25806W        W46086   3.890  14.006   2.389 -0.1037 -0.0677 -0.3486
25807W        W46087  15.365  11.180   0.608  0.1675  0.0775 -0.1337
25808W        W46088   6.773   3.492   2.468 -0.2432 -0.0736  0.1111
25809W        W46089   6.837   2.255  13.032 -0.1225  0.1148  0.0462
25810W        W46090   6.870   8.321   0.843  0.0709  0.3049  0.1830
25811W        W46091  10.674  17.579   2.221 -0.0443 -0.3717 -0.2220
25812W        W46092   3.660  13.065  15.293  0.0070 -0.0531  0.1307
25813W        W46093  16.053  13.348  13.082 -0.1243 -0.3275  0.0467
25814W        W46094  14.246  13.272  14.125  0.1498  0.0933 -0.2874
25815W        W46095   7.909   4.668   0.311 -0.0693 -0.0755  0.2047
25816W        W46096  13.525   3.355  11.498  0.0470  0.2261  0.2174
25817W        W46097  18.128  11.307  15.560 -0.2235 -0.1578 -0.1065
25818W        W46098  15.703  10.521  15.668 -0.0336 -0.2781  0.1332
25819W        W46099   1.009  11.950  15.162  0.0239 -0.0841 -0.2258
25820W        W46100  13.716   9.631   0.332  0.1532 -0.1531 -0.1105
25821W        W46101   1.101   8.173  12.434  0.1833  0.0056 -0.1939
25822W        W46102   4.520   8.131  15.665 -0.3659  0.2017 -0.1643
25823W        W46103   0.622   3.569   4.030 -0.0776  0.4394  0.0254
25824W        W46104   7.168   3.458   4.498 -0.0709  0.0852 -0.3852
25825W        W46105   0.991  13.985   4.201  0.2005 -0.2434  0.2174
25826W        W46106   3.495   9.337  15.543 -0.1015  0.2128 -0.1496
25827W        W46107   1.099  13.579   1.137 -0.0687 -0.0457  0.0204
25828W        W46108   0.457  12.498   2.518  0.0266  0.0900  0.0086
25829W        W46109   4.611   0.301  11.892  0.0260 -0.0015 -0.2030
25830W        W46110  10.088   9.207   1.863  0.0449 -0.1279  0.2788
25831W        W46111  13.230  13.535   0.790  0.0876 -0.2031 -0.0595
25832W        W46112  17.344  12.928  12.802 -0.1592 -0.2126  0.0181
25833W        W46113  11.983   7.209   1.502  0.2334 -0.1645  0.2010
25834W        W46114   4.046  13.685  12.507 -0.1948 -0.1248  0.1868
25835W        W46115  16.255  16.340  15.477 -0.0077 -0.0793  0.0974
25836W        W46116   1.187  14.828  14.020 -0.2640  0.1807  0.2475
25837W        W46117  14.394   6.538   3.752  0.0121 -0.0694  0.0972
25838W        W46118   2.139  11.228   0.324  0.0241 -0.1760  0.0385
25839W        W46119  12.661   3.870  11.368  0.0250 -0.2898  0.2145
25840W        W46120   5.199  16.512  13.775 -0.2205 -0.1098  0.0398
25841W        W46121   1.618  13.342   4.270 -0.0104 -0.3405  0.0112
25842W        W46122   6.918   6.988   4.068  0.1876  0.0098  0.0722
25843W        W46123   0.081   4.410   2.681 -0.0037 -0.0220 -0.0088
25844W        W46124   0.864   8.176   0.724 -0.0856 -0.2864 -0.0723
25845W        W46125   6.352  10.565  14.936  0.1331 -0.3408  0.1085
25846W        W46126   2.235   2.396   1.890 -0.2357 -0.2098  0.0138
25847W        W46127   8.354   1.852   3.992  0.0893 -0.2664  0.0184
25848W        W46128   7.107   1.254  14.625 -0.2236  0.2287  0.0484
25849W        W46129   5.466   7.315  12.907 -0.1621  0.0375  0.2775
25850W        W46130   9.148   3.752   3.642  0.2113 -0.2694 -0.3357
25851W        W46131   1.960   1.809  14.820 -0.1253  0.0804  0.2292
25852W        W46132   8.675  14.025  11.770 -0.3292 -0.1992 -0.1553
25853W        W46133   5.406  14.532  11.771 -0.0640 -0.0766 -0.2479
25854W        W46134   0.356  18.082  12.824 -0.1610 -0.1926 -0.1602
25855W        W46135   9.840  18.118   0.539  0.0302  0.3152 -0.2997
25856W        W46136   8.628   2.147   2.378  0.1210  0.0652  0.1913
25857W        W46137  17.184  13.170   3.053  0.0765  0.1346  0.0100
25858W        W46138   6.299  10.847  11.390 -0.1333 -0.1476 -0.3371
25859W        W46139  11.939   1.518   1.205 -0.2526  0.1749 -0.0045
25860W        W46140   9.763  14.757   2.636  0.0465  0.0457 -0.3218
25861W        W46141   0.839  13.807  14.970 -0.3138 -0.2175 -0.2802
25862W        W46142   7.862  16.996  14.363 -0.3785  0.1700  0.0060
25863W        W46143   5.776  10.580   1.411  0.1531  0.0822  0.0461
25864W        W46144  16.122   1.193   3.629 -0.1174  0.0588 -0.1369
25865W        W46145  18.311  16.133  11.976  0.2142 -0.1848 -0.2889
25866W        W46146  11.238   0.378   0.895  0.0733 -0.1685 -0.0960
25867W        W46147   7.118  15.178  15.783 -0.2673 -0.0005 -0.0531
25868W        W46148  16.110   0.638  10.439  0.0027  0.1947 -0.0813
25869W        W46149   1.642   8.464  12.184 -0.3284  0.0742  0.1210
25870W        W46150   6.296   5.220   2.861 -0.0413  0.2021 -0.0119
25871W        W46151  11.474   6.806  12.163  0.0887  0.0397 -0.3257
25872W        W46152  12.720   1.030   1.456 -0.0445  0.0430 -0.0225
25873W        W46153  10.631  13.991   0.458  0.4868 -0.1430 -0.2442
25874W        W46154   9.039  17.037  13.171  0.1703 -0.1077  0.1225
25875W        W46155   7.743   7.106  11.786  0.0380 -0.1252 -0.0273
25876W        W46156  11.894   3.331   3.191  0.0504 -0.0009  0.2365
25877W        W46157   6.539  14.747  12.155  0.1120 -0.1196 -0.3176
25878W        W46158  16.750  17.436   2.435 -0.0956 -0.1358  0.0865
25879W        W46159   7.069   0.576  12.737  0.4481 -0.2294 -0.3088
25880W        W46160   5.351   3.427  14.415  0.1642 -0.3135  0.3202
25881W        W46161  10.242   8.982  11.685  0.1367 -0.1172 -0.0599
25882W        W46162   1.037   9.532  13.703 -0.0955  0.2367  0.1199
25883W        W46163  14.410   3.302  13.270  0.1719 -0.0491  0.2401
25884W        W46164  11.368  13.632   0.741 -0.0382  0.2276 -0.2673
25885W        W46165   0.018   4.978  14.866 -0.0299  0.1602  0.2114
25886W        W46166   3.918  13.627  14.475 -0.0183 -0.0660  0.1928
25887W        W46167   3.095   7.412   1.111 -0.2044  0.0432  0.2288
25888W        W46168   2.425  11.697   1.678  0.1865  0.0289  0.2378
25889W        W46169  10.387   4.703  12.240 -0.0633 -0.0471  0.0548
25890W        W46170   6.977   0.099  14.984  0.2353  0.0105  0.1878
25891W        W46171  10.853   4.383   3.602  0.0489  0.2521  0.1732
25892W        W46172  14.061  17.077  15.318  0.6085 -0.0969  0.2493
25893W        W46173   3.651   7.852  13.504 -0.0446 -0.0601  0.1749
25894W        W46174  12.202   8.137   4.512  0.2955  0.2324 -0.1795
25895W        W46175   2.509   6.710  13.087  0.0971 -0.0022  0.0328
25896W        W46176  15.819   9.206   2.124 -0.0316  0.0335  0.1765
25897W        W46177  16.042  16.892   3.789  0.3899  0.1241 -0.0829
25898W        W46178   6.361  13.055  13.589 -0.0898 -0.3482 -0.1576
25899W        W46179  15.625  15.130   2.621  0.0978 -0.1448  0.1611
25900W        W46180  12.386  10.791  12.698  0.0457  0.4540  0.1071
25901W        W46181  13.535   6.645   3.374  0.0671 -0.1753  0.2806
25902W        W46182   9.097  16.850  11.857 -0.0745  0.0558  0.0096
25903W        W46183   5.656   0.989  11.720 -0.1506 -0.2736  0.3518
25904W        W46184  17.886  12.797  13.564  0.1432  0.0562 -0.0452
25905W        W46185  13.618   7.788   3.426 -0.0365  0.0385  0.0548
25906W        W46186   2.214  13.772   4.009 -0.2219  0.0445 -0.0822
25907W        W46187  14.385   4.145   1.879 -0.0628 -0.1200 -0.2344
25908W        W46188   2.099   6.429   2.531 -0.2601  0.0396 -0.0243
25909W        W46189  10.057   4.682  14.180  0.0179 -0.2675 -0.1633
25910W        W46190   8.170  17.117  13.153  0.0066  0.2507 -0.0559
25911W        W46191   3.496   9.949  14.463 -0.4129  0.0129  0.1440
25912W        W46192   7.652   2.892   3.122 -0.1224  0.1152 -0.0400
25913W        W46193  16.784  11.968   2.569 -0.0233 -0.0434 -0.2394
25914W        W46194   7.801  17.183   2.930  0.2825 -0.1028  0.1756
25915W        W46195   6.881  13.015  12.685 -0.1196  0.0208  0.3913
25916W        W46196   3.451   0.786  10.721 -0.2090 -0.2183 -0.0010
25917W        W46197  11.877  10.512  15.307 -0.2678 -0.2836 -0.4326
25918W        W46198   7.713   6.848  15.668  0.3052 -0.2179 -0.2070
25919W        W46199   3.844   9.714   1.092  0.0853  0.3068  0.3292
25920W        W46200  14.842  16.062  11.613 -0.0134 -0.2494 -0.0149
25921W        W46201   8.077  13.910  12.898 -0.1598  0.0355  0.1234
25922W        W46202  11.646   2.651  14.248 -0.1738 -0.2481 -0.0411
25923W        W46203   6.348   3.941   1.244  0.0534 -0.0730 -0.0889
25924W        W46204  13.230   8.199  13.388 -0.3552 -0.1657 -0.2913
25925W        W46205  12.134  11.122  13.087 -0.0140 -0.1306  0.2026
25926W        W46206  15.826   7.336   3.420 -0.1438  0.2473  0.1207
25927W        W46207   6.676  16.497   2.406 -0.3613  0.1779  0.4149
25928W        W46208   1.815  11.936  13.527  0.5001  0.2073 -0.2336
25929W        W46209  13.043   7.601  12.269  0.2483  0.0188  0.1431
25930W        W46210  16.017   1.246   4.156  0.2283 -0.0019 -0.2838
25931W        W46211  13.171   5.192   2.509  0.1494 -0.0113 -0.1191
25932W        W46212  17.795   6.767  12.917 -0.0016  0.3208 -0.0633
25933W        W46213   5.481  11.822  15.072 -0.0494  0.2518  0.0468
25934W        W46214  16.003  11.297  13.154 -0.1268 -0.2642  0.1106
25935W        W46215  18.010  17.429  14.236  0.1235 -0.1028  0.1285
25936W        W46216   1.406  12.590   0.513  0.1812  0.0485  0.3073
25937W        W46217  12.907   2.488   4.075  0.1910 -0.0023 -0.0907
25938W        W46218  13.231  13.219   4.385  0.3396 -0.0331 -0.1340
25939W        W46219   8.143  16.249   0.595 -0.1193  0.3440 -0.0253
25940W        W46220  10.729   2.222  10.794 -0.0580 -0.1443  0.0754
25941W        W46221  11.798   3.241   2.744 -0.0375 -0.2100  0.1037
25942W        W46222  12.988   6.178   1.517 -0.1475 -0.1807  0.2164
25943W        W46223  11.154   0.800  15.382  0.0714 -0.3456  0.0208
25944W        W46224  14.879   2.629  12.562 -0.0757 -0.0270 -0.1439
25945W        W46225   4.721   6.913  14.902  0.3762 -0.0001  0.0307
25946W        W46226  17.567   1.092  12.045 -0.0348 -0.2443  0.0485
25947W        W46227  17.188   4.489  14.409 -0.1449 -0.1264 -0.0189
25948W        W46228  10.367  10.134   1.840 -0.0053  0.1792 -0.0219
25949W        W46229   0.469   0.380   2.011  0.1541  0.0544  0.2308
25950W        W46230   1.061  17.457   0.927 -0.0694  0.1198  0.2542
25951W        W46231  17.803   0.893  15.595  0.0298 -0.2957 -0.1154
25952W        W46232  18.276   8.002  12.460 -0.0418 -0.0880 -0.1306
25953W        W46233  14.586   8.733   3.919  0.1715 -0.0410  0.1899
25954W        W46234   8.018  15.370   1.526 -0.3361  0.1295 -0.3364
25955W        W46235  15.984  15.110   3.470 -0.5798  0.0918  0.0454
25956W        W46236   5.501  16.325  11.645 -0.1088  0.1255 -0.0212
25957W        W46237   7.972  11.144  12.999  0.0186 -0.0960 -0.2665
25958W        W46238  15.578   2.802   0.564  0.0543  0.2681  0.2098
25959W        W46239  16.359   4.020   2.454 -0.2258 -0.1288  0.0368
25960W        W46240   8.778  10.205   1.725  0.0571 -0.1122 -0.1264
25961W        W46241  17.243  16.882   4.347  0.4023  0.0005 -0.1004
25962W        W46242  12.852   6.892   2.669 -0.3028 -0.1273 -0.0821
25963W        W46243   0.069   1.964  12.302 -0.4407 -0.2857  0.1065
25964W        W46244  13.033   7.084  15.215 -0.0753  0.2612  0.1865
25965W        W46245   5.445  12.325  13.203  0.0047 -0.0976 -0.0621
25966W        W46246  11.106   0.839  14.431 -0.1141 -0.0545 -0.1214
25967W        W46247   2.770  11.877   3.795  0.4485  0.1078 -0.2666
25968W        W46248   6.229  15.608   4.659 -0.3482 -0.3487  0.3011
25969W        W46249   6.289   7.070  11.380  0.2227  0.0632  0.1920
25970W        W46250  12.956   0.718  15.715 -0.0609  0.1401 -0.0663
25971W        W46251   7.478   9.218  14.139  0.0912 -0.2127 -0.2579
25972W        W46252   4.970  16.071   1.897 -0.1305  0.4505  0.2961
25973W        W46253   5.755   4.110   0.765 -0.0106  0.2266 -0.2886
25974W        W46254  17.262  10.906   1.706 -0.0774  0.2787 -0.2842
25975W        W46255  16.679   8.856  12.747 -0.1820  0.0500  0.0122
25976W        W46256   4.625   4.312  12.193 -0.2381  0.0362  0.0815
25977W        W46257  13.427   4.136  12.224 -0.2300  0.1316  0.1595
25978W        W46258   1.480   8.419  14.363  0.0136  0.1495 -0.1864
25979W        W46259   8.028   6.694  11.701 -0.0029 -0.2659 -0.1062
25980W        W46260   0.001  11.263  12.970 -0.1482  0.1923  0.2813
25981W        W46261   6.915  11.994   2.077  0.1728 -0.1385  0.0345
25982W        W46262  10.892   6.348  13.986  0.0366  0.1173 -0.0432
25983W        W46263   0.539   5.642  14.613  0.0341  0.0475  0.0203
25984W        W46264   6.924   5.661   4.681  0.2576 -0.2223 -0.1975
25985W        W46265  10.181   6.245   2.352 -0.2683  0.1320 -0.0452
25986W        W46266  17.807   5.304   4.397 -0.2513 -0.4161  0.0508
25987W        W46267  12.918   5.639  13.743  0.0727  0.0284 -0.1985
25988W        W46268   6.888  10.997  14.617 -0.0235 -0.2247 -0.2594
25989W        W46269   0.488  14.761  15.557 -0.0191 -0.0504  0.0768
25990W        W46270  16.689   7.598   2.364  0.1066 -0.1491 -0.3239
25991W        W46271  17.243   2.806  14.519 -0.0526 -0.1194 -0.0175
25992W        W46272   8.285   3.800  12.473 -0.1420  0.0556 -0.3248
25993W        W46273   0.235  11.356  11.115  0.3770 -0.0642  0.1176
25994W        W46274   8.996  13.630  14.050 -0.1382 -0.0241 -0.1641
25995W        W46275   4.794   4.564   5.058  0.2744  0.4234  0.1877
25996W        W46276  15.764  11.282   2.015 -0.2635 -0.0782  0.1783
25997W        W46277   7.540   6.950   2.951 -0.1896 -0.0086  0.1053
25998W        W46278   6.279   7.865  15.759  0.0268  0.0892  0.4188
25999W        W46279  11.614   3.158   3.621  0.1731 -0.3509 -0.3719
26000W        W46280   2.439  13.127   3.133  0.1427  0.0201  0.1510
26001W        W46281  15.038  17.449  13.333 -0.0133  0.0337  0.1552
26002W        W46282   4.838  10.282  12.886  0.1863  0.1030  0.2295
26003W        W46283   2.968   1.227   4.186  0.1177 -0.2785  0.1188
26004W        W46284   5.279   0.759   2.675 -0.0946  0.2197 -0.0094
26005W        W46285   0.566   1.975   4.927 -0.0091  0.0673 -0.1140
26006W        W46286  12.965   3.273   2.291  0.2983 -0.0555  0.3014
26007W        W46287   5.742  13.773  14.206 -0.1179  0.0158 -0.0598
26008W        W46288   3.766  18.141   2.650  0.0817  0.2266  0.2130
26009W        W46289   1.908   5.445   3.862 -0.3083 -0.2212 -0.4007
26010W        W46290   5.248   7.849   2.751 -0.0654 -0.1230  0.1612
26011W        W46291   5.305   4.523   2.390  0.0657 -0.0104 -0.2893
26012W        W46292   9.970   2.712   2.238 -0.0593  0.0753  0.0324
26013W        W46293   4.444  17.466   1.601 -0.0087 -0.0303 -0.1399
26014W        W46294   7.989  15.787  13.940  0.3784  0.0951  0.0396
26015W        W46295  11.558   9.277   5.633  0.0935 -0.0319 -0.2322
26016W        W46296   8.435   9.076   0.211 -0.0108  0.2811 -0.0906
26017W        W46297   8.507   8.591   4.040 -0.2601  0.1203 -0.0119
26018W        W46298  13.997   1.278   0.400 -0.1562 -0.0401 -0.2444
26019W        W46299   2.203  11.197  11.676  0.2659 -0.0804 -0.0587
26020W        W46300   3.692   9.747  15.379  0.2823  0.1303  0.0064
26021W        W46301   1.328   1.785   3.525  0.3525 -0.2910  0.1240
26022W        W46302   5.278   7.085   2.225 -0.0408  0.1272 -0.0214
26023W        W46303   4.412   9.369   5.576  0.2289  0.1183  0.5448
26024W        W46304   1.258  17.159  11.825 -0.0752  0.0020 -0.3147
26025W        W46305   7.012   4.938   2.637 -0.0806  0.0728 -0.2450
26026W        W46306   7.937   6.988  15.101 -0.1266 -0.2476  0.0850
26027W        W46307   1.598  18.285   2.547 -0.1875  0.1117 -0.1098
26028W        W46308   4.408   1.372   1.796  0.0806  0.1308  0.0378
26029W        W46309   7.024  10.466   3.168  0.2156 -0.0214  0.2829
26030W        W46310   4.869   0.497   2.332 -0.2156 -0.1426  0.0518
26031W        W46311   6.009   8.826   2.408  0.1935 -0.1757 -0.0780
26032W        W46312   4.507   2.190  13.836  0.0740 -0.3083 -0.0110
26033W        W46313   6.287   8.544  14.549  0.2180 -0.0421 -0.1098
26034W        W46314  17.178   3.615   1.261 -0.1349 -0.2983 -0.0373
26035W        W46315   8.645   4.179  12.321 -0.2927 -0.0168  0.2082
26036W        W46316  14.944  11.642   1.225 -0.1561 -0.0329  0.1347
26037W        W46317  11.571  12.557  13.926 -0.1776 -0.2309 -0.2541
26038W        W46318  13.327  13.053  14.266  0.1285 -0.0672  0.1412
26039W        W46319   8.247  15.101   0.614  0.0296  0.1039  0.1776
26040W        W46320  16.362  14.093   1.356 -0.1068  0.1867  0.1727
26041W        W46321   3.105  14.996   0.974  0.1649 -0.2052 -0.2217
26042W        W46322   6.385  12.397   4.950 -0.0796  0.2046 -0.2718
26043W        W46323  13.009   2.577   0.508  0.0848 -0.0790 -0.2397
26044W        W46324   8.660   4.759   3.343  0.1160 -0.1092 -0.1133
26045W        W46325  11.000   7.728  12.759  0.1310 -0.0421  0.0361
26046W        W46326  12.423   3.867   1.709  0.2718 -0.0948  0.0001
26047W        W46327   0.738   0.142  13.482  0.0756  0.2061 -0.1074
26048W        W46328   7.377   8.916  12.407 -0.1796 -0.0292  0.1003
26049W        W46329   4.181   3.200   2.849  0.2119  0.1295 -0.1155
26050W        W46330   4.103   6.449   1.815  0.0118 -0.0166 -0.1314
26051W        W46331  18.237   1.064   2.049  0.1811  0.2061  0.2179
26052W        W46332  13.149  16.138  15.673  0.1575 -0.2107  0.1026
26053W        W46333   3.970   4.230   2.960  0.1342  0.1973  0.2781
26054W        W46334  10.943  12.782   0.507  0.2644  0.2515  0.1613
26055W        W46335   2.902   3.825  11.891 -0.1074  0.2286  0.3133
26056W        W46336  12.710  18.293  12.687  0.1305  0.0779  0.3014
26057W        W46337   7.076   3.074   3.287 -0.1597 -0.1290 -0.1119
26058W        W46338   6.681  11.352   2.660 -0.0610 -0.0665  0.0845
26059W        W46339  12.797   6.028  15.373  0.1489  0.1780 -0.0972
26060W        W46340   6.437  16.248   1.927 -0.0408  0.1474  0.2590
26061W        W46341   2.804  16.106   3.594  0.0514  0.3294  0.0786
26062W        W46342   2.671   9.654  15.552  0.0366 -0.0997  0.0184
26063W        W46343   0.632   6.731  14.643 -0.2569  0.0068 -0.4999
26064W        W46344   0.774   3.574  12.006 -0.0850  0.0112  0.1623
26065W        W46345  12.652  12.213   0.263 -0.2814 -0.0310 -0.0365
26066W        W46346   2.610   3.444  13.140  0.4108 -0.0443  0.1687
26067W        W46347   1.386  16.173  14.063  0.0451 -0.4917 -0.1630
26068W        W46348  11.677  12.101  14.185  0.4223  0.4282  0.1336
26069W        W46349  18.266  17.760  14.644 -0.0331 -0.1794 -0.1820
26070W        W46350   1.670  10.295  13.927  0.0345  0.0323 -0.0748
26071W        W46351   1.701   6.545   0.675  0.1461  0.3464  0.0004
26072W        W46352  11.876   6.065   1.504 -0.0039 -0.0077  0.0919
26073W        W46353   8.696   6.989  14.944 -0.0438 -0.2313 -0.1667
26074W        W46354  18.207   8.918  15.683 -0.1922 -0.2279  0.1222
26075W        W46355   1.818   4.115   2.774  0.0254  0.1054 -0.1355
26076W        W46356  15.156   7.811   4.621  0.0948  0.1126 -0.2065
26077W        W46357   6.292  10.736   2.625 -0.0803 -0.1128 -0.0421
26078W        W46358   1.791   3.357   1.015 -0.0926 -0.2534  0.0427
26079W        W46359   7.346  13.201   1.290 -0.0795  0.0981  0.3410
26080W        W46360  11.762   8.725  15.616 -0.1712  0.1628  0.1648
26081W        W46361  15.279  13.339  12.009 -0.1119  0.2692  0.2146
26082W        W46362   4.939   5.975  13.943  0.2911  0.0105  0.0878
26083W        W46363   4.827   7.441   3.743 -0.0875  0.0993  0.1427
26084W        W46364  11.452  12.601   2.546 -0.0266 -0.0799  0.0728
26085W        W46365   8.609   0.411  14.721 -0.1315  0.1227  0.0346
26086W        W46366   0.329   3.263  11.979 -0.0615 -0.4210  0.0904
26087W        W46367   9.563   9.244  11.213  0.0562  0.3562 -0.1446
26088W        W46368  14.053  11.290  11.846  0.2798 -0.1875 -0.4123
26089W        W46369  11.901   6.485  12.080  0.2030 -0.0422 -0.1091
26090W        W46370   5.737  13.506   1.114  0.4552  0.4106 -0.0212
26091W        W46371   9.837   5.909   0.293 -0.1019 -0.0684  0.1910
26092W        W46372   3.648  13.533  14.052  0.0673 -0.4968 -0.3175
26093W        W46373   4.606   7.176   4.588  0.0693 -0.1986  0.2263
26094W        W46374  13.849  17.434  14.140  0.1751 -0.2224  0.1511
26095W        W46375   4.861   5.980  13.200 -0.1118 -0.0866 -0.0992
26096W        W46376   5.601  12.538  11.375  0.0155 -0.1304 -0.0407
26097W        W46377   5.520  17.180  11.469  0.1263 -0.0057 -0.5206
26098W        W46378   6.921   4.296   4.574  0.0573  0.4011 -0.1420
26099W        W46379   2.016   2.522   2.295 -0.1027  0.2723  0.1470
26100W        W46380   9.206   8.896   0.747 -0.0217  0.0523  0.0504
26101W        W46381   8.893   3.799   2.312  0.2785  0.2309  0.0332
26102W        W46382  10.979  11.901   0.819 -0.4057 -0.2384 -0.2224
26103W        W46383   4.894  11.901  10.938 -0.1961 -0.0206  0.3551
26104W        W46384   0.488   2.684   3.769 -0.1346  0.2395  0.0340
26105W        W46385  14.815   2.529  11.570 -0.1235 -0.0342  0.1760
26106W        W46386  11.668   8.217   3.495 -0.0802 -0.2809  0.1023
26107W        W46387  13.062   2.328  13.850 -0.0189  0.0248  0.2707
26108W        W46388   4.513  13.816   1.287 -0.0073 -0.0962  0.1183
26109W        W46389   0.152   1.631   4.177  0.1325  0.1826 -0.0261
26110W        W46390  15.692   2.416  11.617  0.0484  0.0844  0.0463
26111W        W46391   5.429   2.680   4.042  0.0027  0.2034  0.0141
26112W        W46392   4.502   9.551   0.389 -0.4875 -0.0049  0.4733
26113W        W46393  14.465   5.995   1.976 -0.0282 -0.0793 -0.1157
26114W        W46394  13.733  17.056   2.646 -0.2155  0.4953  0.1396
26115W        W46395  10.830  13.437   1.428  0.2530  0.1349  0.3106
26116W        W46396  13.580  14.090   1.282  0.0759  0.0904 -0.0728
26117W        W46397   5.094   1.275  11.736  0.0559  0.1341  0.2647
26118W        W46398   2.551  15.466  10.601 -0.1985  0.3209 -0.0665
26119W        W46399   1.350  18.033   2.200 -0.0578  0.0149  0.0508
26120W        W46400  18.018  15.047   2.989  0.2200 -0.2423 -0.1262
26121W        W46401  12.796   6.124  12.982 -0.0042 -0.0788  0.3917
26122W        W46402  12.849  10.510   4.276 -0.2542  0.1434  0.1138
26123W        W46403  16.845  11.024  12.520 -0.0238  0.1451 -0.1610
26124W        W46404  15.891  17.333   2.107  0.1649  0.2317 -0.1464
26125W        W46405   1.860  16.014   0.078 -0.1974  0.2501 -0.0004
26126W        W46406  16.571  13.634  14.466 -0.0050  0.1212 -0.0409
26127W        W46407  12.776   2.854   2.030  0.0380  0.2673  0.0609
26128W        W46408  15.497   4.023  12.182 -0.0510 -0.1798 -0.0390
26129W        W46409  11.255  15.326  11.991 -0.0402  0.0349 -0.3154
26130W        W46410  18.221  14.972   0.409 -0.0431 -0.2579  0.0284
26131W        W46411   5.384   8.650   3.354 -0.2100  0.2195 -0.1971
26132W        W46412   2.315  10.303   1.394  0.5154  0.0280  0.0622
26133W        W46413  14.630  15.151   0.364 -0.2087 -0.0130 -0.2348
26134W        W46414  11.772  13.836   4.343  0.1181 -0.1383  0.2880
26135W        W46415  15.337  14.254  13.024 -0.2318  0.1523 -0.1743
26136W        W46416   2.888   4.086  15.123  0.2984 -0.0453 -0.2982
26137W        W46417  16.766  14.614  12.793  0.0644 -0.0319  0.1552
26138W        W46418   5.839  12.300  12.353 -0.0937  0.1222 -0.1941
26139W        W46419   6.750  12.593   2.834 -0.0734  0.0118  0.2207
26140W        W46420   8.371   8.525   3.214 -0.2461  0.1661  0.0469
26141W        W46421  11.416  10.694  15.484  0.0097  0.2904 -0.0010
26142W        W46422  14.964   8.526  12.990  0.0308  0.0373 -0.0797
26143W        W46423   5.534   7.433  11.819  0.1731 -0.0530  0.2638
26144W        W46424  18.201   8.521   2.043  0.0055 -0.0350 -0.0823
26145W        W46425   5.431  10.605   3.265  0.0585  0.0418 -0.0172
26146W        W46426   7.246  17.216   1.784 -0.1165  0.2599 -0.2740
26147W        W46427   2.641  11.463  13.105 -0.1883 -0.2188  0.2520
26148W        W46428   0.895   9.215  12.237  0.0167  0.2545  0.1846
26149W        W46429  16.465  12.282  15.332  0.2959 -0.1219  0.0710
26150W        W46430   6.098   3.233  10.649  0.0377  0.1708 -0.2002
26151W        W46431   3.808  12.472  11.900 -0.0236  0.0494 -0.2514
26152W        W46432  11.032  11.720   4.459 -0.0349 -0.1364 -0.2224
26153W        W46433  18.236  10.466  13.106  0.1213 -0.1371  0.0306
26154W        W46434   1.597   0.918  15.418  0.1847 -0.5306 -0.4826
26155W        W46435   1.165   7.633   3.391 -0.0448 -0.1931 -0.2002
26156W        W46436  11.259   9.860   4.333  0.2481  0.2320  0.0541
26157W        W46437   5.204  15.139   2.491 -0.1129 -0.0176  0.2019
26158W        W46438  16.342  17.201   1.157 -0.0995  0.1903  0.0963
26159W        W46439   4.035  12.862   1.471  0.0070  0.2942  0.0079
26160W        W46440   1.062  16.577   0.281 -0.0698  0.0193 -0.2849
26161W        W46441   2.679   6.530   2.406 -0.1337 -0.0786 -0.0090
26162W        W46442  13.426  13.432   2.196 -0.0673  0.1782 -0.0632
26163W        W46443  16.060  16.282  15.928 -0.0171  0.1800  0.2007
26164W        W46444  11.706  14.077   3.051 -0.2975 -0.1485 -0.1035
26165W        W46445   3.256   7.715   0.717  0.2456 -0.3578  0.4192
26166W        W46446  16.957   8.004   1.223  0.1575  0.0427  0.1141
26167W        W46447  14.176   4.485  15.795 -0.0917  0.0934  0.3969
26168W        W46448   7.924   5.335  12.885 -0.0460  0.0646  0.0023
26169W        W46449  14.313  17.018   3.940 -0.0449  0.3230 -0.1279
26170W        W46450  12.125  12.400   1.830 -0.0032 -0.1979 -0.1495
26171W        W46451   3.800  14.489  12.411  0.0458 -0.3813 -0.1050
26172W        W46452  11.205  11.938  14.799 -0.0315  0.0485  0.1637
26173W        W46453   3.289   1.662  15.543  0.1172  0.0678 -0.0588
26174W        W46454   8.303   3.740  15.320  0.1887 -0.1368 -0.0230
26175W        W46455   8.064   3.419   0.113  0.1013 -0.2522 -0.0314
26176W        W46456   9.303  11.821  15.350  0.2023  0.0170 -0.1216
26177W        W46457  13.858   5.324  15.327  0.0822 -0.1407  0.0815
26178W        W46458   0.492   3.903   3.143 -0.1330  0.4509 -0.1563
26179W        W46459   4.670  14.575   0.810 -0.3503 -0.1974  0.0734
26180W        W46460   9.174   6.800   1.421 -0.0926  0.5234 -0.0196
26181W        W46461  18.190  12.818   1.428  0.1928  0.1690  0.0240
26182W        W46462  17.751   2.063   5.822  0.2865  0.0419  0.1215
26183W        W46463   5.776   4.832  14.439  0.0131 -0.0779 -0.0191
26184W        W46464  13.667   0.278   4.479 -0.0308 -0.0840  0.0579
26185W        W46465  13.605   3.508   3.934 -0.1861 -0.2573  0.0560
26186W        W46466  13.644   8.344   2.930  0.2294 -0.4636 -0.2063
26187W        W46467  16.606   9.782  12.837 -0.2626 -0.3936 -0.0884
26188W        W46468   5.585  14.391   1.141  0.0681 -0.3627 -0.2548
26189W        W46469   1.958   4.437  15.537 -0.0999  0.0876  0.3189
26190W        W46470   2.551   7.569  14.930  0.1044  0.0904 -0.0317
26191W        W46471   4.458  11.277  13.471  0.0663  0.2707 -0.1500
26192W        W46472  16.929  17.088   2.000 -0.1110  0.3020  0.1142
26193W        W46473   5.501   5.249  15.184 -0.1921 -0.0286  0.1820
26194W        W46474  18.107   6.617  13.335  0.0023 -0.1080 -0.0159
26195W        W46475  17.449   0.970   0.903 -0.1701  0.1866  0.0703
26196W        W46476   3.720  16.499  12.189  0.0884  0.1840  0.0780
26197W        W46477   2.865   1.841  13.664 -0.2585 -0.2103 -0.0539
26198W        W46478   1.717   3.651   1.406  0.0148  0.0750 -0.1565
26199W        W46479  16.406   3.008   4.468 -0.1157  0.0613 -0.1971
26200W        W46480  11.624   7.141  11.847 -0.3425 -0.0493  0.0428
26201W        W46481   8.574   2.882  11.400  0.0233 -0.1442 -0.1811
26202W        W46482   9.903   4.150  14.118 -0.1490 -0.1735  0.2664
26203W        W46483  12.659  17.810  14.355 -0.0439 -0.2231  0.1675
26204W        W46484  10.890   2.021  13.739 -0.4019 -0.0129  0.2616
26205W        W46485  18.263   7.956  14.995  0.0595 -0.0682  0.0690
26206W        W46486   5.338  17.065  12.903  0.0714 -0.2796 -0.2363
26207W        W46487   0.276  18.328  11.487  0.1311 -0.1202  0.1061
26208W        W46488   4.402  14.932  14.500 -0.1105 -0.0531 -0.1511
26209W        W46489  10.347   1.487   1.286 -0.2126 -0.0074 -0.3675
26210W        W46490  14.871   9.159   1.830  0.2625  0.1941  0.2704
26211W        W46491  15.009  12.996  14.550  0.1092 -0.3273 -0.2669
26212W        W46492  12.634  14.548  12.011  0.1565  0.0700  0.2591
26213W        W46493  11.993   3.230  10.257  0.1029 -0.0633  0.2526
26214W        W46494  12.526  14.523   0.429  0.3866  0.0235  0.1170
26215W        W46495   3.188   4.601  14.483  0.1090 -0.1468  0.2431
26216W        W46496   0.321  14.864   3.409  0.1263 -0.0093 -0.0436
26217W        W46497  16.987   4.711  14.878  0.2098 -0.3591 -0.1191
26218W        W46498  16.877   9.486   2.771  0.2226 -0.0575 -0.1653
26219W        W46499  14.322  12.177   4.376  0.2005 -0.1571  0.1652
26220W        W46500   7.082   6.362  13.244 -0.1226 -0.1459  0.2767
26221W        W46501  11.593  13.550  15.523 -0.3496  0.2429  0.1200
26222W        W46502  16.291   8.874   3.442  0.2846 -0.1598  0.0719
26223W        W46503   1.687  13.195   3.735 -0.1697  0.0123 -0.0748
26224W        W46504  15.922  11.746  12.939  0.1536 -0.2175 -0.3362
26225W        W46505   6.148   3.476   1.317  0.1155  0.0398 -0.1601
26226W        W46506   3.752   2.548   3.112 -0.1272  0.2360 -0.0126
26227W        W46507  16.848  11.009  13.068 -0.0916  0.1387  0.2498
26228W        W46508  17.819   9.685  15.805  0.1808 -0.1943 -0.0322
26229W        W46509   4.067   4.117  10.412 -0.2778  0.2419  0.0863
26230W        W46510   5.728  15.121  15.907  0.0109  0.0906  0.2661
26231W        W46511   0.214  12.083   1.770  0.2597 -0.0736 -0.2847
26232W        W46512  10.373  12.705  13.222  0.3242 -0.2189 -0.1319
26233W        W46513   8.340   6.537  15.073 -0.4716  0.0416 -0.2425
26234W        W46514   4.132   7.539   4.571  0.2974 -0.1315 -0.2009
26235W        W46515   9.115  17.828   3.691 -0.0767 -0.0293  0.1484
26236W        W46516  14.503   1.723   2.867 -0.0276  0.3199  0.2514
26237W        W46517  15.121  14.543   3.898 -0.0027  0.2105 -0.3503
26238W        W46518   6.317  16.076  12.319 -0.0393  0.3421  0.0773
26239W        W46519   3.175  13.869   1.307  0.1915 -0.1276  0.4457
26240W        W46520   8.019   7.254  12.856  0.0113 -0.3582 -0.0435
26241W        W46521  14.243  14.625   0.944  0.1862  0.1375 -0.0297
26242W        W46522   4.400  13.461  15.751  0.2335  0.0867 -0.1252
26243W        W46523   0.938  16.113  12.162  0.2544  0.2344 -0.0065
26244W        W46524   3.685  13.945   0.880 -0.1897  0.0303  0.1223
26245W        W46525   3.728   0.623  15.909  0.0705 -0.1325 -0.1471
26246W        W46526   5.514   7.923   0.515  0.0319  0.1183  0.0989
26247W        W46527   7.469   8.556  12.761 -0.1586  0.1939  0.4824
26248W        W46528  10.199   9.153  13.605  0.0026 -0.1754 -0.2574
26249W        W46529  13.925   6.616  15.708  0.1121 -0.2408  0.2430
26250W        W46530  15.237   4.220   0.199 -0.1233 -0.0101  0.2373
26251W        W46531  13.075   3.001  13.504 -0.2729  0.1369  0.0496
26252W        W46532   0.067  15.334   1.294  0.1865 -0.2186 -0.0005
26253W        W46533   0.676  16.832   0.213 -0.1548 -0.0776  0.0020
26254W        W46534   2.632  17.603   3.503 -0.3567  0.2144  0.0400
26255W        W46535   0.212  15.775   0.545  0.1859 -0.1775  0.0999
26256W        W46536   6.842  17.635  11.541 -0.1082  0.2307  0.1725
26257W        W46537  14.636   8.426  14.431 -0.1879  0.2190 -0.0606
26258W        W46538   1.513   1.917  15.888 -0.0131  0.2254  0.0734
26259W        W46539   7.835   9.546  12.039  0.0257  0.1106  0.0082
26260W        W46540   8.982  18.268   2.155  0.1786 -0.1986  0.3086
26261W        W46541   4.883   6.589   3.024  0.1969  0.2402 -0.2132
26262W        W46542  13.909   1.256   0.905  0.1162  0.0775 -0.0254
26263W        W46543  11.461  14.963  13.431 -0.1189 -0.0052  0.1053
26264W        W46544  16.177   4.369  12.670  0.2104  0.0062 -0.0300
26265W        W46545   4.491   1.826   1.845  0.0405  0.2438 -0.1161
26266W        W46546   4.749   8.662  13.485  0.0980  0.1199 -0.1536
26267W        W46547   7.714  16.982  13.278 -0.0406 -0.3962 -0.2219
26268W        W46548   8.696  12.888   5.580  0.1445 -0.0816  0.2855
26269W        W46549   0.321  13.350  12.859  0.1681 -0.3656 -0.1833
26270W        W46550  14.438   1.277  11.390 -0.0025 -0.1710  0.2512
26271W        W46551  17.461  15.811   0.105 -0.1685 -0.0951 -0.3212
26272W        W46552  18.323  11.741  12.030  0.1581  0.0936 -0.0660
26273W        W46553   7.148   1.537   4.150  0.3309  0.1812 -0.2267
26274W        W46554  14.221  11.756  11.938 -0.0430  0.1340 -0.0860
26275W        W46555   3.911   9.317  15.175  0.1521 -0.0277  0.2232
26276W        W46556   0.347   8.586   0.371 -0.0525  0.0356  0.2309
26277W        W46557   2.042   2.952  11.395 -0.4026 -0.0046 -0.0435
26278W        W46558   6.924   1.257   1.261 -0.2198  0.0714 -0.1706
26279W        W46559  13.839   9.663   3.100  0.0955  0.0341 -0.0691
26280W        W46560  10.354  13.508   2.890  0.0434  0.0541 -0.0667
26281W        W46561   1.779  11.929   4.524 -0.0381 -0.4017  0.3013
26282W        W46562   5.921  14.309  12.612  0.1030 -0.2893  0.2547
26283W        W46563  10.315   2.477  13.830  0.0910  0.3803 -0.1832
26284W        W46564   0.548  15.665  12.377 -0.0673  0.0496  0.0951
26285W        W46565   2.662  16.729  14.202  0.2405 -0.1546  0.1181
26286W        W46566   5.559   9.234  11.966 -0.0789 -0.1263 -0.0766
26287W        W46567   5.650   3.171  14.023  0.1093  0.0361  0.0655
26288W        W46568  17.133   2.248   1.085 -0.0475 -0.2223 -0.0578
26289W        W46569   9.246   4.168  11.492  0.0383  0.3041  0.0392
26290W        W46570  14.071   9.569   1.770 -0.3155  0.3250 -0.3400
26291W        W46571  15.175   6.145  15.311  0.0343  0.2701  0.0832
26292W        W46572   2.522   6.534  12.449  0.2551 -0.3735 -0.0128
26293W        W46573   3.530  12.918  11.194 -0.3851 -0.0251 -0.2257
26294W        W46574   5.689   0.714  10.363  0.2624  0.0215  0.1958
26295W        W46575   5.221   6.063  13.549  0.0521 -0.1148  0.0937
26296W        W46576   0.789   8.901  14.532 -0.2357  0.0837 -0.1403
26297W        W46577   0.743  12.790  14.764 -0.0945  0.1378  0.0631
26298W        W46578  14.661   9.302  14.918  0.1035 -0.2864  0.1530
26299W        W46579   2.506   4.075   0.798 -0.1418  0.2824  0.1369
26300W        W46580  10.438   5.169  15.615  0.0636 -0.2538  0.1753
26301W        W46581   3.793   0.839   1.980 -0.0362 -0.2382 -0.2344
26302W        W46582   4.290  14.594  12.351 -0.0294  0.1728 -0.1170
26303W        W46583  16.558  16.898   4.001  0.0419 -0.0035  0.2122
26304W        W46584  13.479  12.045   1.623 -0.1747  0.1821 -0.0374
26305W        W46585  13.419   2.886  12.649  0.1279  0.4461  0.1105
26306W        W46586  10.954  11.542  13.807  0.1139 -0.0004 -0.0833
26307W        W46587   2.637  11.470  11.415  0.0520  0.0100 -0.2271
26308W        W46588  16.193   5.364  15.598 -0.0558  0.0470  0.1266
26309W        W46589   4.416  17.122  11.950  0.2341 -0.0203 -0.2163
26310W        W46590   2.963  13.303  12.799 -0.0977 -0.2478  0.1158
26311W        W46591   6.271   3.201   0.951 -0.1210 -0.1547  0.1058
26312W        W46592  14.291  10.403   1.288 -0.1401  0.1516 -0.2192
26313W        W46593   2.005  10.843   2.553 -0.1236 -0.0691 -0.0158
26314W        W46594   7.164   5.746  12.985  0.0590 -0.0049 -0.2324
26315W        W46595   5.205  11.512  14.761  0.2433  0.1181  0.0112
26316W        W46596   7.540   0.684   4.423 -0.0471  0.0371  0.1691
26317W        W46597   1.065   3.185   1.742 -0.1699  0.3071  0.1544
26318W        W46598   8.265   2.644  15.516  0.2567  0.1396 -0.0320
26319W        W46599   0.638  13.732  13.552  0.1422  0.3138  0.0090
26320W        W46600   4.487  16.668  12.354 -0.1306 -0.0446 -0.1403
26321W        W46601   8.855   2.440  15.431  0.1767  0.3086 -0.2210
26322W        W46602  15.980   4.281  14.792  0.0887  0.2001 -0.0529
26323W        W46603   7.980   7.516   3.558  0.0163 -0.1184  0.1255
26324W        W46604  14.791   2.314   3.889  0.0832 -0.1586 -0.1146
26325W        W46605   4.360   7.527  14.315  0.0429  0.0304  0.2147
26326W        W46606   4.938   4.677  13.004 -0.1522 -0.0014 -0.2203
26327W        W46607  16.295  14.541  11.722 -0.0746  0.1350 -0.1128
26328W        W46608   5.573   5.586   0.920 -0.2911  0.1636  0.1553
26329W        W46609  13.977   9.176   3.282  0.0255  0.1341  0.0323
26330W        W46610   0.502  17.509  13.344  0.0199  0.0260 -0.1748
26331W        W46611  17.871  15.891  13.412 -0.1760  0.1540 -0.0219
26332W        W46612  13.509   0.310  15.209 -0.0221 -0.1797  0.1599
26333W        W46613   6.362   3.016   0.489 -0.3574 -0.3697  0.0536
26334W        W46614  15.398   0.154   4.000  0.2405 -0.2259  0.2207
26335W        W46615   6.162   2.919   4.139 -0.2737  0.1558  0.1160
26336W        W46616  16.556  16.043   1.671  0.0855 -0.0189  0.0033
26337W        W46617   5.173  13.399  11.167  0.2390 -0.3914 -0.4009
26338W        W46618   6.155   4.073   2.347  0.1801  0.1244  0.0489
26339W        W46619   1.798   7.377  15.199 -0.2950  0.1360  0.0219
26340W        W46620  14.191  12.314  12.316 -0.0460  0.0419 -0.0475
26341W        W46621  13.020   6.574   3.049 -0.2390  0.2309 -0.2715
26342W        W46622   6.947   1.819  13.228  0.0915 -0.1327 -0.0228
26343W        W46623   4.544  10.619   3.171 -0.1584 -0.2336  0.1085
26344W        W46624  14.408   9.470  13.793  0.0724  0.1892  0.0437
26345W        W46625  13.678   4.882   3.701 -0.1740  0.0692 -0.1916
26346W        W46626   3.069  13.166  15.459 -0.0662  0.1814  0.1362
26347W        W46627   0.365  15.341  13.603  0.0965 -0.1757  0.1290
26348W        W46628  12.220   7.316   0.391  0.0134 -0.3042 -0.0442
26349W        W46629  10.845   1.996  14.493  0.0466  0.0155  0.0444
26350W        W46630   6.860   2.160  15.570 -0.1951  0.0706  0.0464
26351W        W46631   4.957  15.880  14.561  0.0619  0.1552  0.0117
26352W        W46632   1.777   3.720   3.123 -0.2618  0.0473 -0.3631
26353W        W46633  16.701   6.587   2.056 -0.1418 -0.0863 -0.0497
26354W        W46634  13.929   4.855  15.495 -0.0261  0.0993  0.0606
26355W        W46635   0.126  15.099  15.408 -0.4115 -0.3263 -0.1809
26356W        W46636   4.847  15.233   3.862 -0.0121  0.0078 -0.0253
26357W        W46637   5.570   2.208   3.861 -0.0212 -0.1563  0.0732
26358W        W46638   2.404   5.841  14.660  0.1992  0.3685  0.0610
26359W        W46639  14.733   4.075  11.367 -0.4321  0.0915 -0.1256
26360W        W46640  12.107  14.276   5.606  0.1053 -0.1902  0.1250
26361W        W46641  17.097   8.563  12.906 -0.0723 -0.0651  0.2076
26362W        W46642   6.381  14.052   1.814 -0.4466  0.0827 -0.1719
26363W        W46643  15.916   5.612   1.352 -0.0865  0.1535  0.1485
26364W        W46644  18.296  10.935  10.853 -0.2564 -0.0957  0.3514
26365W        W46645  16.728   9.454  12.262  0.0184 -0.1226 -0.2087
26366W        W46646  13.634  13.233   1.733 -0.2418  0.3304  0.0573
26367W        W46647  16.100   2.230  12.929  0.2092 -0.1151  0.1435
26368W        W46648   5.333  16.431   2.623  0.2545 -0.0865 -0.1390
26369W        W46649  12.892   2.182   2.319  0.1620  0.0881  0.0660
26370W        W46650  17.837  15.476  14.513 -0.0621 -0.0287 -0.1569
26371W        W46651  16.992   2.255  14.329  0.1657  0.1637  0.2628
26372W        W46652   0.276   0.491  11.118 -0.0758  0.0738  0.2109
26373W        W46653   9.815   0.181  11.841  0.0260 -0.1638 -0.0732
26374W        W46654   7.476  16.038   2.332  0.0685 -0.1499  0.1694
26375W        W46655   8.900   3.930   0.230  0.0629  0.1603 -0.0916
26376W        W46656   1.272   0.027  13.151  0.0007 -0.2455  0.0249
26377W        W46657   2.985  15.977   2.716 -0.0536  0.0893  0.3530
26378W        W46658  16.564  15.786   4.535  0.0096 -0.0369  0.0387
26379W        W46659   8.158   7.121  15.554  0.1904 -0.1810 -0.3505
26380W        W46660  16.982  17.540  11.127 -0.1449  0.1480 -0.0120
26381W        W46661  10.878  18.007   4.747 -0.2920 -0.1558 -0.2084
26382W        W46662   3.324  12.786   2.894  0.1398  0.3148 -0.1445
26383W        W46663  11.212   3.474   4.182  0.0990 -0.0625  0.0199
26384W        W46664   8.698  11.720  14.324 -0.1162  0.0784  0.2693
26385W        W46665  11.002  14.270  12.712  0.1702 -0.4086  0.1218
26386W        W46666  13.850   9.508   3.730  0.0391  0.2013 -0.0532
26387W        W46667   3.378   8.509  15.012  0.0797 -0.0984 -0.0268
26388W        W46668   5.843   2.695  15.856 -0.1620 -0.1354  0.0979
26389W        W46669  14.637   5.477   1.385  0.0022  0.0700 -0.0687
26390W        W46670   9.190  15.213   1.429 -0.0009 -0.0480 -0.0024
26391W        W46671   7.805   8.261  14.071 -0.1162  0.0200  0.0506
26392W        W46672  12.475  16.047   4.063 -0.1771  0.1228 -0.0097
26393W        W46673   5.698  11.103   2.013 -0.1516 -0.2802  0.2267
26394W        W46674  12.014  17.554   0.736 -0.0005 -0.0688 -0.0949
26395W        W46675   1.990   0.489   1.509 -0.1687  0.1204  0.0720
26396W        W46676   0.857  10.091   2.929  0.3407  0.3896  0.0981
26397W        W46677   4.354   5.953   2.628  0.0772  0.2700  0.1971
26398W        W46678   9.931  11.918   3.263  0.0108 -0.0535  0.2420
26399W        W46679   7.026  14.710  12.039  0.2304 -0.3465  0.0584
26400W        W46680  18.268   6.931  14.610  0.1805 -0.1032  0.1952
26401W        W46681   3.321   9.985  12.046 -0.3564  0.0297  0.1764
26402W        W46682  15.108  12.447  14.423  0.2966 -0.2047  0.0303
26403W        W46683   5.686   0.742  15.930 -0.0270 -0.2334 -0.2037
26404W        W46684   1.423   9.900  13.842 -0.1574  0.0406  0.0690
26405W        W46685   3.483   9.547   1.419  0.1636 -0.4629  0.1188
26406W        W46686   1.914   8.629  15.102 -0.0338 -0.1105  0.0335
26407W        W46687   4.027   2.530  13.173  0.1736 -0.2334 -0.0661
26408W        W46688   6.345  12.278   4.431  0.2466  0.2213  0.0671
26409W        W46689   2.406  18.322   1.706 -0.1557 -0.3064  0.2132
26410W        W46690  15.390   3.014  13.455  0.0893 -0.0859 -0.1543
26411W        W46691   9.140  16.770   1.783 -0.0341  0.1824 -0.1798
26412W        W46692  18.215  15.110   3.554  0.0759 -0.0848 -0.1949
26413W        W46693   4.603  10.182  15.628 -0.3922  0.2354 -0.0781
26414W        W46694  12.907  13.580   2.459  0.0197 -0.0460  0.0731
26415W        W46695  13.987  13.023   3.090 -0.0127  0.0730  0.1507
26416W        W46696   9.221   0.130   4.390 -0.2716 -0.1777 -0.0668
26417W        W46697  14.948   2.023   3.549 -0.2572  0.3314  0.0208
26418W        W46698  13.103  11.464   3.462  0.1339  0.1142 -0.2934
26419W        W46699   6.093  15.343   1.393 -0.3298  0.0229 -0.2207
26420W        W46700  15.487   7.055  13.768 -0.1675  0.0132  0.0567
26421W        W46701   1.325   4.047   0.201 -0.1829 -0.1265 -0.0605
26422W        W46702   8.773  10.768   1.958 -0.0443  0.1690 -0.2529
26423W        W46703   1.092  14.251   0.165 -0.0295  0.1323  0.0376
26424W        W46704   5.302   8.046   1.347  0.1710  0.0913  0.0802
26425W        W46705   4.811   8.335  14.577  0.1924 -0.0663 -0.0200
26426W        W46706   4.347  12.620   4.450  0.2075  0.1562 -0.0001
26427W        W46707   0.040   2.562   3.028  0.0296 -0.0880 -0.0748
26428W        W46708  16.973   7.053   3.207  0.0423 -0.0241 -0.2457
26429W        W46709  16.057   1.357  12.407 -0.2493  0.1607  0.3162
26430W        W46710   3.141   4.145   2.588 -0.1060 -0.2687  0.0907
26431W        W46711   4.735   6.883  14.174  0.1624  0.0385  0.1501
26432W        W46712   2.933   7.538  14.494 -0.0377  0.2839  0.1727
26433W        W46713   3.243  12.716  14.220 -0.1199  0.0624  0.1368
26434W        W46714   0.325  15.359   3.589 -0.0759  0.1265 -0.1344
26435W        W46715   3.976  15.234  13.422  0.1674  0.0655  0.1216
26436W        W46716   7.748  12.397   2.952  0.1646 -0.1001  0.2947
26437W        W46717   8.313  10.989   2.175  0.2481  0.0685 -0.2432
26438W        W46718   7.416  17.052   1.359 -0.1259  0.0056 -0.0094
26439W        W46719   3.144  15.503   2.802 -0.5231  0.0154  0.2089
26440W        W46720   9.310   9.357  12.107 -0.0361 -0.0377 -0.2342
26441W        W46721   5.984  14.856   1.673 -0.1127 -0.1230 -0.1685
26442W        W46722  16.021   8.330   1.312  0.2044  0.2555 -0.0119
26443W        W46723  10.805  14.431   0.367  0.1942  0.0425  0.0902
26444W        W46724   7.810  15.816  14.409 -0.1010  0.0545 -0.0200
26445W        W46725  13.275  15.377   1.092  0.3655  0.4609 -0.3472
26446W        W46726   7.130  13.201   4.726  0.3016  0.1204  0.2456
26447W        W46727  15.358  15.663   1.400 -0.0773 -0.0913  0.1080
26448W        W46728  10.766   1.380   1.528 -0.4185 -0.1264 -0.0791
26449W        W46729   4.693   2.518  15.202  0.2761  0.1192 -0.0848
26450W        W46730   8.695  18.089  13.461 -0.1389  0.1503 -0.0901
26451W        W46731  10.164  12.959  15.860 -0.2378  0.2523  0.2132
26452W        W46732   0.330  16.378  11.706 -0.3989  0.0916 -0.4094
26453W        W46733   4.209   9.961   0.756  0.2034  0.0892 -0.2215
26454W        W46734   8.128   6.612  15.504  0.0441  0.0175  0.3195
26455W        W46735   0.192   6.520  14.501  0.1139  0.1488  0.3347
26456W        W46736   2.640  16.330  11.245 -0.0577  0.1233 -0.0759
26457W        W46737   3.843   5.654   4.264  0.3562 -0.0351 -0.2998
26458W        W46738  10.561  10.899   3.271  0.0957 -0.0420  0.0092
26459W        W46739   7.559  13.560   0.153 -0.0669  0.0874 -0.0387
26460W        W46740   2.835   0.717   2.393  0.2086 -0.1495 -0.0259
26461W        W46741  11.397   8.476   0.857  0.0234 -0.1847  0.1825
26462W        W46742  14.607  11.695   3.909 -0.2081  0.0909 -0.1933
26463W        W46743  17.945  16.706  11.530 -0.0145  0.2194 -0.1059
26464W        W46744   3.246  11.937  13.820 -0.1270  0.1468  0.1377
26465W        W46745  17.182   0.991  11.434  0.0357 -0.0863  0.3404
26466W        W46746   4.648  14.581  13.227  0.0719  0.1450 -0.0192
26467W        W46747   7.993  17.898  12.957 -0.1206  0.0482 -0.0392
26468W        W46748  14.281  12.550  15.402  0.0501 -0.2151  0.1624
26469W        W46749   2.180   0.717   3.716 -0.0090  0.1002  0.2559
26470W        W46750   9.389  16.617   2.487  0.1190  0.1660  0.0222
26471W        W46751   0.751  18.233   2.683  0.0900  0.3387 -0.2199
26472W        W46752   5.446   1.864  15.077 -0.0642 -0.0693  0.0519
26473W        W46753   2.417  11.761  13.509  0.0274  0.1982 -0.1198
26474W        W46754   8.787   0.199   3.642 -0.0301 -0.1968 -0.0281
26475W        W46755  11.030  10.856   2.503  0.0595 -0.3240 -0.0489
26476W        W46756  13.927   2.900   3.215  0.2885 -0.0803  0.0695
26477W        W46757  10.747  10.104   4.479 -0.2130 -0.2888 -0.2745
26478W        W46758   5.735  11.885   3.856 -0.0115  0.2520  0.3193
26479W        W46759   9.843  17.191   0.246 -0.5766  0.0322 -0.1080
26480W        W46760  10.536  15.783   3.264  0.0531 -0.2354  0.1786
26481W        W46761   8.349   7.546   2.084 -0.0494  0.0281 -0.1364
26482W        W46762   1.545  12.649   2.453 -0.1268 -0.1475 -0.2133
26483W        W46763  11.111  14.328  14.522 -0.1151  0.2804 -0.2637
26484W        W46764  15.112   1.935  14.896 -0.1579 -0.0547  0.2603
26485W        W46765  12.479   1.489  11.007 -0.1143  0.1582 -0.2597
26486W        W46766   3.639   7.823   1.654 -0.2030  0.2429  0.0306
26487W        W46767   5.576  14.520   1.693  0.0036 -0.2271 -0.1094
26488W        W46768  18.039   5.524  11.617  0.3136  0.2106  0.3259
26489W        W46769   6.593  17.240   4.026 -0.1023 -0.2146 -0.2072
26490W        W46770  14.474   5.005  14.161 -0.0937  0.1075 -0.0098
26491W        W46771  13.817   0.974  13.888  0.0951 -0.2275 -0.2125
26492W        W46772  13.962  13.302   2.126 -0.0973  0.0931  0.2023
26493W        W46773  13.163   7.004   3.466  0.1564 -0.1208 -0.2072
26494W        W46774   3.224   2.942  15.915 -0.2978 -0.2769  0.0990
26495W        W46775   0.374  10.304  12.161 -0.0001 -0.2491 -0.1381
26496W        W46776  15.426  17.599  13.065  0.1327  0.0638 -0.0655
26497W        W46777   8.521  13.861   0.970  0.1804 -0.2781 -0.3440
26498W        W46778  18.003  17.049  14.668  0.0447  0.0423  0.1350
26499W        W46779  10.144   2.808   3.423  0.2492 -0.3307 -0.0593
26500W        W46780   2.353  15.943  14.202 -0.2294 -0.2121 -0.2164
26501W        W46781   8.823   2.738   4.660  0.0872 -0.0747  0.1335
26502W        W46782   2.535   7.507   3.243 -0.0504  0.0739 -0.2490
26503W        W46783   8.979   9.757   2.213  0.1724 -0.1497  0.2438
26504W        W46784  17.811   0.121  13.258  0.2173  0.2273  0.0314
26505W        W46785   8.131  16.778  12.172 -0.3209 -0.0830 -0.0187
26506W        W46786   3.836  11.243   3.656  0.1683  0.1383 -0.1258
26507W        W46787   7.120   9.173   1.287 -0.5226  0.0748  0.2212
26508W        W46788   9.417   6.287   1.270 -0.1272  0.1457 -0.2373
26509W        W46789  18.316   4.267  15.709 -0.0771  0.0070 -0.0538
26510W        W46790  13.618  10.990  12.747 -0.0855  0.0292  0.0600
26511W        W46791   5.548   4.273  15.269  0.0469 -0.1361 -0.3262
26512W        W46792   8.768  10.373   0.004  0.4350 -0.0725 -0.0331
26513W        W46793  12.927   7.016  14.256 -0.1263  0.3744 -0.0048
26514W        W46794   9.297  13.279  14.922  0.0952  0.1515 -0.1899
26515W        W46795   7.544   0.462  14.269 -0.1005 -0.1102  0.1679
26516W        W46796  14.004   7.974   4.417 -0.2649 -0.0728 -0.0181
26517W        W46797  17.167   1.918   1.889 -0.0440 -0.1688 -0.0354
26518W        W46798  15.408   3.525   3.471  0.2131 -0.2293  0.2124
26519W        W46799  17.792  14.866   2.556 -0.1229 -0.0318 -0.1932
26520W        W46800   2.675  11.721  11.831  0.3194 -0.1945  0.0377
26521W        W46801  15.203  13.837  12.120 -0.0243 -0.0339  0.0243
26522W        W46802   8.482   1.470   1.202  0.1141  0.1378 -0.0691
26523W        W46803   8.110   7.609  14.447 -0.2017 -0.1956 -0.0722
26524W        W46804  15.363  13.651   1.275 -0.0700 -0.3614  0.0315
26525W        W46805  15.677   5.152   0.351 -0.2140  0.1213 -0.1022
26526W        W46806  13.689  10.814   2.362  0.2680 -0.0898  0.1680
26527W        W46807   1.379   0.255  14.065  0.0773  0.0767  0.0550
26528W        W46808  16.355  16.334   1.309 -0.2185 -0.0400 -0.0027
26529W        W46809   0.144   4.633   1.010 -0.1186 -0.2440 -0.1082
26530W        W46810   1.378   5.562   2.004  0.3413  0.1075  0.3101
26531W        W46811  14.733   6.844  12.241  0.1599  0.1817 -0.2747
26532W        W46812   0.859  10.723  11.217 -0.1084  0.0156  0.1537
26533W        W46813   5.667  12.556  13.962  0.2192  0.1619  0.1387
26534W        W46814  14.649  10.418   4.680 -0.0036 -0.1985 -0.3761
26535W        W46815   2.373   3.918   4.258 -0.0358  0.0874 -0.0644
26536W        W46816   9.320   0.436   3.610 -0.0656 -0.1134 -0.0216
26537W        W46817   6.422  13.607  10.685 -0.3510 -0.3906 -0.2511
26538W        W46818  14.654  13.529   4.635  0.0441  0.0430  0.1245
26539W        W46819  18.048   5.946  13.884 -0.1647 -0.2074  0.2030
26540W        W46820  15.600  16.849   4.050  0.1043 -0.0848  0.0655
26541W        W46821   8.171   1.486   0.830 -0.0315  0.1836 -0.1747
26542W        W46822  14.610   4.961   1.643 -0.1003 -0.3379  0.0136
26543W        W46823   6.773   7.998  11.540 -0.2374  0.1716 -0.0869
26544W        W46824  12.600   4.659   1.408  0.0471 -0.1441 -0.3511
26545W        W46825   0.112   3.479  14.365 -0.0749 -0.0390  0.0513
26546W        W46826  15.422   1.152   3.156 -0.3445 -0.0645  0.3999
26547W        W46827   2.895  10.237   3.631  0.1005 -0.1547  0.1170
26548W        W46828   9.853   7.766   0.516 -0.0419 -0.3255 -0.2377
26549W        W46829  15.670  16.598  11.529  0.1463 -0.0063 -0.1548
26550W        W46830  13.638  15.045  13.409 -0.1568  0.2278 -0.1466
26551W        W46831   9.753   0.252   3.145 -0.1795 -0.2346 -0.0885
26552W        W46832   0.590  10.934  15.212 -0.1733  0.2512 -0.2191
26553W        W46833  15.191  10.335   4.934  0.4026 -0.0763  0.1707
26554W        W46834  12.246   7.568   1.378 -0.2473 -0.0562 -0.0312
26555W        W46835  12.170   7.638   2.077 -0.1605 -0.1165 -0.0542
26556W        W46836   5.496   8.744   0.568 -0.0350  0.1441 -0.0550
26557W        W46837   0.862  16.749   1.138 -0.1878  0.2345  0.0640
26558W        W46838   9.447  15.672   2.541  0.2489  0.0457  0.0102
26559W        W46839   0.955   6.880   0.821  0.1199 -0.0346  0.1356
26560W        W46840   4.642  16.493   4.275  0.1408 -0.0119  0.0304
26561W        W46841  14.758   4.978  15.060 -0.0607  0.0190 -0.1052
26562W        W46842   4.683  13.505   4.107 -0.1232 -0.1437 -0.1228
26563W        W46843   1.188  12.570  11.638  0.0511 -0.0651 -0.3797
26564W        W46844   7.283  18.323   2.361  0.1384 -0.1357  0.0766
26565W        W46845  14.797  13.942   3.688  0.0919 -0.0305 -0.2724
26566W        W46846  12.189  12.902  15.509  0.2375 -0.0820 -0.1939
26567W        W46847   8.720   9.014  13.791  0.1027 -0.1469 -0.1405
26568W        W46848  15.618  16.511  13.304  0.1348  0.2546 -0.2406
26569W        W46849  17.147  10.081   0.264  0.0582 -0.0730 -0.1174
26570W        W46850  11.619  12.387   1.742  0.0687  0.1042 -0.2018
26571W        W46851  13.244   4.860  15.259 -0.2009  0.0941 -0.0862
26572W        W46852  10.643  11.403  15.070  0.2747  0.0002 -0.1399
26573W        W46853  14.937  15.535  14.664  0.0330 -0.0052 -0.2047
26574W        W46854   2.692  16.022   2.243 -0.1215  0.2702  0.3364
26575W        W46855  11.903  12.985   2.017 -0.0479  0.1068 -0.1820
26576W        W46856  12.982   3.439  15.897  0.1312  0.0626 -0.0586
26577W        W46857   7.964   3.806   4.339  0.5223 -0.1202  0.3592
26578W        W46858   0.730  17.157  12.413 -0.0252  0.1398 -0.1143
26579W        W46859   4.871  17.745  11.291  0.0543 -0.0669  0.0098
26580W        W46860  14.025  10.780   1.097  0.0282 -0.0211 -0.1444
26581W        W46861   2.042   3.311   3.206  0.2201  0.2002 -0.0223
26582W        W46862  16.555  15.501   2.987 -0.0779  0.2454  0.0999
26583W        W46863  12.544  16.232  15.685  0.0528  0.0576  0.2614
26584W        W46864   8.197   2.893   2.981 -0.0731  0.1527 -0.1567
26585W        W46865  10.438  17.451  14.861 -0.1704 -0.3204 -0.2507
26586W        W46866  10.002  12.533  12.869 -0.0514  0.6264 -0.1155
26587W        W46867  15.017   3.620   0.374 -0.0091  0.1068 -0.0209
26588W        W46868   1.964   1.162   0.759 -0.1369  0.2782  0.0601
26589W        W46869   7.756  17.959  13.395 -0.1074  0.0684 -0.2886
26590W        W46870   0.939   3.908   3.411 -0.1597 -0.2381  0.1195
26591W        W46871   6.543   5.752  13.808  0.1006 -0.1648  0.0142
26592W        W46872   3.220   0.701   1.656  0.2773 -0.0650 -0.0053
26593W        W46873  17.510  17.767   0.741  0.1889  0.1516 -0.1327
26594W        W46874   3.173  13.710  10.969 -0.0970  0.3723  0.3041
26595W        W46875   1.412  17.047   2.985  0.1815  0.1789 -0.0453
26596W        W46876  16.253  12.533   1.798 -0.0509 -0.0874 -0.1218
26597W        W46877  15.594  15.707  11.440 -0.0153  0.1211 -0.2533
26598W        W46878   0.921  15.118   1.266  0.5187  0.0160 -0.0647
26599W        W46879  12.957  10.439   1.707  0.0252 -0.1395  0.1896
26600W        W46880   2.733  11.061  13.343  0.0003  0.0544 -0.1510
26601W        W46881   5.968  15.845   3.492 -0.0720  0.0833 -0.1285
26602W        W46882   9.738  17.924  12.363  0.0741  0.0013 -0.0481
26603W        W46883   2.628  16.332   1.811 -0.0267 -0.1858 -0.2089
26604W        W46884  14.089  15.502  11.617 -0.0595  0.2178 -0.1109
26605W        W46885   8.640   7.223   0.801 -0.1924 -0.0675 -0.0812
26606W        W46886   7.933  16.645  14.011 -0.0905 -0.1445  0.0049
26607W        W46887  18.100   4.020   2.036  0.0137 -0.1019  0.2933
26608W        W46888  16.127  15.283  15.825  0.0848  0.0187 -0.3361
26609W        W46889   4.585   8.737   2.530 -0.2522  0.1781 -0.1452
26610W        W46890   5.788  14.727  11.438  0.1929 -0.0419 -0.1136
26611W        W46891   7.870  13.954   0.192  0.3536  0.1453 -0.0870
26612W        W46892   1.608   8.576  13.815  0.0053  0.1682  0.0575
26613W        W46893  10.392   8.256   2.888  0.1033  0.1248  0.0152
26614W        W46894  13.292  15.604   5.633  0.0074  0.1959  0.2607
26615W        W46895   1.481  12.069   0.527 -0.0087 -0.4278 -0.2059
26616W        W46896  14.523  12.971  14.532  0.0327 -0.1026  0.0374
26617W        W46897   1.150  13.275   2.651  0.0482 -0.1635  0.2022
26618W        W46898   7.977  12.484  12.685 -0.1668  0.1168 -0.2321
26619W        W46899   5.744  11.580  13.906 -0.4498  0.0420  0.4344
26620W        W46900  13.364   5.567   0.033  0.0110 -0.0873 -0.0644
26621W        W46901   2.689   4.490  12.276  0.0491  0.3326 -0.0136
26622W        W46902   7.851   0.236  12.420 -0.0334  0.1463 -0.0579
26623W        W46903  14.791   9.426   0.783 -0.0755  0.0502 -0.4226
26624W        W46904  13.632   6.884   3.878 -0.0091  0.0853  0.0089
26625W        W46905  12.114  13.744  15.262  0.0261 -0.1141 -0.1631
26626W        W46906   2.206  16.526   4.351  0.1105 -0.1268  0.0046
26627W        W46907   3.967   4.203  13.134 -0.1902 -0.1313  0.0028
26628W        W46908  12.337  10.664  13.202 -0.0567 -0.1768  0.2246
26629W        W46909  16.938   2.464  13.684 -0.0336 -0.0248  0.0177
26630W        W46910  10.067   6.542  11.702  0.1463 -0.0982 -0.1721
26631W        W46911  17.076  13.621   2.021  0.2391  0.0345  0.5503
26632W        W46912  10.450  13.591  13.783  0.0578 -0.0116 -0.0548
26633W        W46913  11.252  10.849  13.871 -0.1121 -0.1416 -0.0756
26634W        W46914  17.939  15.992   2.253  0.0417 -0.2133 -0.0569
26635W        W46915   4.566  17.257  15.193  0.0408  0.2065 -0.0620
26636W        W46916  17.328  16.843  11.790 -0.1681  0.0334 -0.0853
26637W        W46917   6.969   2.162   3.562  0.0442  0.0134  0.2006
26638W        W46918   3.238   8.481   2.756 -0.0899 -0.0257  0.0608
26639W        W46919   6.732  11.221  11.096 -0.2416 -0.3299  0.1216
26640W        W46920   7.359   8.077  13.246 -0.1495 -0.2260 -0.2163
26641W        W46921  10.346   2.380   2.507  0.0222  0.1648 -0.0820
26642W        W46922   8.175   8.986   3.160  0.1533  0.1868  0.0734
26643W        W46923   9.661   9.435  12.891 -0.1443 -0.2540 -0.0454
26644W        W46924  14.964   7.178   3.216 -0.0235 -0.0713 -0.1684
26645W        W46925  16.583   0.410  11.932  0.3234 -0.1618 -0.1460
26646W        W46926  11.257  17.062  14.490  0.0185  0.2239  0.3910
26647W        W46927   0.757   7.933   4.034 -0.1820 -0.1120  0.0307
26648W        W46928  14.158  17.395   0.365 -0.0160 -0.1112 -0.1527
26649W        W46929   8.702   2.814   2.856 -0.3194 -0.1743  0.0290
26650W        W46930  11.089  17.655  12.474  0.5794  0.2535  0.3612
26651W        W46931  14.347  16.334   2.265 -0.0173  0.0623  0.0313
26652W        W46932   3.685   6.165  14.589 -0.0994 -0.2139  0.1392
26653W        W46933  11.225   4.265  14.770 -0.1200  0.2567 -0.2016
26654W        W46934  16.117   3.123   3.195 -0.1655  0.2743  0.4846
26655W        W46935  13.744   6.431   1.027 -0.1158 -0.0192  0.3647
26656W        W46936  15.261   0.732  14.161  0.1427  0.0699 -0.1261
26657W        W46937  11.970   1.345   0.762 -0.0512 -0.0398 -0.0553
26658W        W46938   6.134   7.264   1.758  0.3006 -0.0603  0.3432
26659W        W46939   2.064  12.130  15.637  0.1024  0.4866 -0.1595
26660W        W46940   9.861  10.655  15.421 -0.0019  0.1864  0.0616
26661W        W46941   9.513  11.945  13.402 -0.1380 -0.0967  0.0244
26662W        W46942  14.894   3.840   2.164  0.1997 -0.2162 -0.0000
26663W        W46943  11.334  11.626   0.063  0.1749  0.1766 -0.0100
26664W        W46944   6.476   2.629   0.932 -0.0329 -0.1355 -0.0806
26665W        W46945  13.054   8.277   4.170  0.2565 -0.0281 -0.1818
26666W        W46946  16.499   5.543  14.977 -0.0046  0.1796  0.1521
26667W        W46947   9.798   9.590   4.695  0.1047 -0.1442 -0.3913
26668W        W46948   8.553   1.431   2.799 -0.2086  0.2127 -0.0061
26669W        W46949   6.709   7.972   1.609  0.2996  0.1369  0.0641
26670W        W46950   6.878   8.324  13.521 -0.1226 -0.2726 -0.1529
26671W        W46951   2.463   1.891   3.667  0.1411 -0.2551 -0.1876
26672W        W46952  13.416   2.113   1.965  0.1166 -0.0239  0.1169
26673W        W46953  17.679  16.520  14.219 -0.3355 -0.0270  0.2334
26674W        W46954   7.372  13.860  14.318  0.0255 -0.3333  0.1180
26675W        W46955  16.306  16.562  13.834  0.0623  0.1454  0.0537
26676W        W46956   7.130  11.504   2.140  0.2006 -0.0270  0.3895
26677W        W46957  13.449   3.748  14.685 -0.3611  0.1819 -0.1130
26678W        W46958  11.810   9.628   2.197  0.2408 -0.0765 -0.1224
26679W        W46959  18.093  11.852   1.729 -0.0390 -0.1044 -0.2040
26680W        W46960   1.035   7.168   1.332  0.1335 -0.1507  0.1386
26681W        W46961  18.177  18.077   3.831  0.0961  0.0081  0.1511
26682W        W46962   5.163  12.182  15.403 -0.2286 -0.4488 -0.1557
26683W        W46963  14.927  10.058   4.213 -0.1070  0.1486 -0.1898
26684W        W46964   6.098  11.039   3.873 -0.1436 -0.2166 -0.1319
26685W        W46965  18.026   5.096   1.679  0.0020  0.0291  0.3859
26686W        W46966  12.529  17.495   3.637  0.0121  0.2859 -0.2172
26687W        W46967   0.711   5.053  12.814  0.0204  0.1347 -0.1687
26688W        W46968   8.030  12.376   3.877 -0.3290  0.2144  0.3855
26689W        W46969   2.642   4.825  13.514  0.0035  0.2080  0.0075
26690W        W46970  14.681   7.338  14.337  0.2928  0.1270  0.0169
26691W        W46971  15.845   2.212   1.344  0.1822 -0.0117  0.1030
26692W        W46972   2.095  17.304  12.186  0.0315  0.2704 -0.0691
26693W        W46973  14.835   6.064  15.918  0.3287 -0.1765  0.2613
26694W        W46974   2.819   2.867  15.052 -0.0408 -0.2384  0.0728
26695W        W46975  11.181  18.155   3.242 -0.0850 -0.3403  0.3094
26696W        W46976   0.789   8.885   3.546 -0.2686 -0.1090 -0.2813
26697W        W46977   9.201  12.201   3.155 -0.0064 -0.2085 -0.0108
26698W        W46978   5.392  14.104   0.795  0.0494 -0.2195  0.3280
26699W        W46979   3.655  18.005   1.771 -0.0723 -0.0408 -0.2740
26700W        W46980   0.011  11.554   0.990  0.0439 -0.0679  0.0526
26701W        W46981  15.233   2.056  10.696 -0.0973 -0.0771  0.3383
26702W        W46982  11.971   2.730  15.230 -0.0651 -0.2468 -0.2252
26703W        W46983   7.679  12.384  12.271  0.2170 -0.1541 -0.5479
26704W        W46984  15.526   5.638   1.722  0.2552  0.0674 -0.1464
26705W        W46985  17.669  17.473   4.269  0.2049  0.1984 -0.1170
26706W        W46986  13.629  16.075   4.086 -0.4105 -0.1114 -0.0366
26707W        W46987  15.259   9.456   1.093  0.0249 -0.0076 -0.2952
26708W        W46988   9.938   6.245  14.816  0.0589 -0.2440 -0.2451
26709W        W46989   7.770   2.374   3.830 -0.0396 -0.0031 -0.0748
26710W        W46990   0.435  13.782  14.279  0.1396  0.1204  0.0577
26711W        W46991  15.749  17.215  13.104 -0.4462 -0.1489 -0.4016
26712W        W46992  11.557   3.112  11.414 -0.3853  0.2216 -0.1366
26713W        W46993   6.277   6.328  15.075 -0.2442  0.0504 -0.1545
26714W        W46994  12.081   9.975   1.420  0.1581 -0.0910 -0.0887
26715W        W46995   2.806  14.861   0.590 -0.0460 -0.2416  0.0785
26716W        W46996  14.448  17.155  13.437 -0.2729  0.1884  0.5075
26717W        W46997   7.626   8.255  15.647 -0.2813  0.2146 -0.1230
26718W        W46998   0.750  12.209  14.227  0.1149 -0.4044 -0.0219
26719W        W46999   4.528  11.106   3.204 -0.1319 -0.1065 -0.0942
26720W        W47000   3.004  14.329   1.457 -0.1575 -0.1219  0.0782
26721W        W47001   5.747  12.387   3.693  0.2917  0.0713 -0.1628
26722W        W47002   0.906  15.712   1.539 -0.1542 -0.2252  0.2459
26723W        W47003  11.158   0.989  14.929  0.2038  0.0121 -0.2047
26724W        W47004  14.944  15.360   0.706 -0.0287 -0.2993 -0.0212
26725W        W47005   2.525   9.932  12.087 -0.0242 -0.1311 -0.1274
26726W        W47006   1.777   0.080   4.370  0.1441  0.0237 -0.0032
26727W        W47007  14.792   0.505  14.463 -0.2386 -0.3402 -0.3084
26728W        W47008   1.161  11.491  15.725  0.0307 -0.1775 -0.0739
26729W        W47009   8.347  14.715   1.375 -0.0719 -0.1800 -0.2798
26730W        W47010  10.579  16.670  12.080  0.0352 -0.4435  0.2253
26731W        W47011  17.324   6.206  13.282 -0.1407 -0.1752  0.0355
26732W        W47012   1.593  13.551  13.463 -0.2275 -0.1173 -0.0854
26733W        W47013  12.955   9.917   1.217 -0.3209 -0.0299  0.0123
26734W        W47014  14.270   6.646   2.552  0.1642  0.0658  0.0838
26735W        W47015  15.976   7.441   2.990 -0.1427  0.1004  0.2644
26736W        W47016   7.397   6.205  13.927 -0.0412 -0.1366  0.0919
26737W        W47017   3.820   5.609  15.858  0.1449 -0.0987  0.1128
26738W        W47018  14.571   7.051  15.007  0.1786  0.1289 -0.1937
26739W        W47019   4.564  15.009   2.586  0.3246 -0.0270 -0.2729
26740W        W47020   0.247   6.744  14.995  0.2119 -0.1830  0.0655
26741W        W47021  16.887  13.030  13.639  0.3434  0.3548 -0.0729
26742W        W47022   2.197   7.345   0.486  0.0127 -0.4241 -0.0771
26743W        W47023  14.690  13.026   4.465 -0.0081 -0.0060  0.1806
26744W        W47024   8.488  17.841  14.398 -0.0025 -0.2037  0.2602
26745W        W47025  17.505   8.802   3.660  0.1860 -0.1502  0.2765
26746W        W47026   6.925   2.559   3.191  0.3492 -0.2479  0.0083
26747W        W47027  14.907   9.533   4.078  0.0925  0.0253  0.0235
26748W        W47028   8.216  11.159   2.907 -0.1118  0.1402 -0.0091
26749W        W47029   5.006   8.700  14.900 -0.1927  0.0884  0.4884
26750W        W47030   0.799   8.109   2.165  0.0646  0.0643 -0.0856
26751W        W47031   7.624  15.918  15.381  0.0615  0.0620  0.0022
26752W        W47032  16.221   9.644  12.488  0.1373  0.0342 -0.3620
26753W        W47033   1.547   0.638   2.950 -0.1259 -0.1245  0.1628
26754W        W47034   0.424  11.001  11.970 -0.1347 -0.0834 -0.0129
26755W        W47035  16.222   0.781  13.258 -0.2778 -0.2699 -0.1459
26756W        W47036   9.528  14.620   1.370  0.1114  0.1299  0.0021
26757W        W47037  11.580   9.771   1.386 -0.1407 -0.3146  0.1275
26758W        W47038   0.758   2.527  13.556  0.1464 -0.1574 -0.1954
26759W        W47039   9.808   5.661   4.028  0.0426 -0.2122  0.2600
26760W        W47040   3.001  16.870  13.375 -0.2438  0.0729  0.0896
26761W        W47041   6.408  12.210   3.166 -0.0044 -0.1452  0.1087
26762W        W47042  11.025  16.921  11.345  0.1318  0.0588 -0.3513
26763W        W47043  10.469   3.680   2.744  0.1511 -0.0257  0.3211
26764W        W47044  10.108  12.810   3.988 -0.0820  0.0779 -0.2083
26765W        W47045   2.235   0.169   3.070 -0.2309 -0.1911 -0.0418
26766W        W47046   4.704   5.797   2.224 -0.0510  0.1242 -0.2108
26767W        W47047   9.520   0.408  14.517  0.0609  0.0447 -0.2806
26768W        W47048   3.292  14.307   2.211  0.1020 -0.2800 -0.2582
26769W        W47049   2.635   6.129  12.175  0.0726 -0.1294  0.1457
26770W        W47050  12.579  10.439   2.102 -0.0235 -0.2237  0.2467
26771W        W47051  13.733  10.841  13.779  0.0857  0.1188 -0.1492
26772W        W47052   8.415   3.280  11.002 -0.0111  0.3399 -0.0000
26773W        W47053   6.026   7.925   2.906 -0.0890  0.1690 -0.0762
26774W        W47054   7.171  11.898  14.820 -0.2222  0.0620 -0.2677
26775W        W47055  11.321  11.334  14.742  0.0001  0.0361 -0.0879
26776W        W47056   6.556   8.865   2.166  0.1942 -0.1228  0.0921
26777W        W47057   1.343   8.997   1.722  0.0893  0.0254  0.2569
26778W        W47058  16.464   1.648  13.834  0.1037  0.0245  0.0956
26779W        W47059   1.316  14.444   2.484 -0.0382 -0.0698  0.0626
26780W        W47060  11.183   0.954  11.990 -0.1338  0.1560  0.1667
26781W        W47061  18.330   0.721   3.793 -0.1602  0.5410  0.2904
26782W        W47062  14.591  13.132   0.534 -0.0774 -0.0407 -0.1560
26783W        W47063   5.700  11.086   0.092 -0.1982  0.2329  0.1638
26784W        W47064   4.997   4.869   0.734 -0.0665  0.3147 -0.4027
26785W        W47065  14.480   4.761  13.731 -0.1348 -0.3492 -0.3226
26786W        W47066   2.393  17.477  13.296 -0.0699  0.1975 -0.0432
26787W        W47067   0.257  10.522   0.363 -0.0707 -0.2591  0.3080
26788W        W47068  10.158  16.339  13.336 -0.0004 -0.1658 -0.3459
26789W        W47069   1.806  10.198   3.856  0.4058 -0.1185 -0.0011
26790W        W47070   1.321   8.944  12.175  0.0415  0.2734  0.1451
26791W        W47071  15.385   8.519  12.692 -0.1091  0.0832  0.0749
26792W        W47072  10.190  13.277  14.020 -0.2844  0.0112 -0.1596
26793W        W47073   1.141  10.440  11.606  0.0393  0.0205  0.0216
26794W        W47074  15.459   6.766   4.415 -0.2186 -0.2188  0.0319
26795W        W47075   2.449   9.718   1.240  0.0114 -0.3497  0.0162
26796W        W47076   9.134   2.389   1.988 -0.1477 -0.0511  0.1456
26797W        W47077  16.754   0.097  12.918 -0.0802 -0.0423 -0.0483
26798W        W47078   7.920  12.833   3.763 -0.1901 -0.1745 -0.3155
26799W        W47079   1.801  17.273   2.827 -0.0805  0.0787  0.1495
26800W        W47080   0.524   9.740   4.797  0.0083 -0.2035 -0.4378
26801W        W47081   1.253   7.593  14.978  0.0249  0.2070 -0.1167
26802W        W47082   7.189  14.035   4.476 -0.3054 -0.1180 -0.3220
26803W        W47083  11.288   4.213   5.351  0.0086 -0.0803  0.3664
26804W        W47084   4.192   4.764   1.232  0.1545 -0.1933 -0.3412
26805W        W47085  13.285  10.043  13.412  0.0313  0.2114  0.0536
26806W        W47086   0.293  10.273   1.202  0.1583 -0.0337 -0.2423
26807W        W47087   3.719   1.835  14.385  0.2060 -0.0659 -0.1481
26808W        W47088  16.896   0.977  11.934 -0.0486  0.0987 -0.3614
26809W        W47089   2.011   7.712   4.565 -0.0944 -0.0580  0.0678
26810W        W47090  16.955  17.438  14.287 -0.0178  0.2174 -0.1759
26811W        W47091  17.933   0.234  11.919 -0.3567 -0.1304 -0.3039
26812W        W47092   9.129  13.590  11.447 -0.0659 -0.1784  0.2880
26813W        W47093   5.910   7.123   0.127  0.0025  0.0401 -0.0974
26814W        W47094  13.598   1.780   0.672 -0.1617 -0.1872  0.0920
26815W        W47095  10.638   7.101   4.102 -0.0734 -0.0326 -0.3136
26816W        W47096  14.294   9.647   2.341 -0.1935  0.0622  0.1560
26817W        W47097   1.531  15.473  12.376 -0.3463  0.1534 -0.0627
26818W        W47098   9.625  12.083  11.822 -0.2102  0.2187  0.2202
26819W        W47099  16.730   0.063   0.319 -0.1413  0.0168 -0.0074
26820W        W47100  13.754   4.162   0.150  0.2419 -0.2390 -0.0683
26821W        W47101  17.258   4.541   1.882 -0.0857  0.1679  0.0472
26822W        W47102   0.223   5.203   3.372 -0.2619  0.1997  0.1432
26823W        W47103   6.739  13.014  15.212 -0.0999  0.0620  0.0513
26824W        W47104  17.410   4.390   4.082  0.1258  0.0782  0.0332
26825W        W47105   0.079   7.083   4.003 -0.0290  0.0629  0.0495
26826W        W47106  12.528   3.567  15.772  0.2311  0.0336 -0.0255
26827W        W47107   1.040  10.969  14.838 -0.0093  0.2315 -0.3218
26828W        W47108  17.023   5.816  13.650  0.0370 -0.2634 -0.1716
26829W        W47109  17.295  12.383  12.093 -0.0377 -0.0214 -0.1152
26830W        W47110   5.776   3.435   3.587 -0.1632 -0.2123 -0.0919
26831W        W47111  18.043  15.498   1.768  0.0884  0.1797 -0.0234
26832W        W47112  13.588   0.502  12.023 -0.1499 -0.1326  0.0846
26833W        W47113   2.376   5.118   4.467 -0.0790  0.0176  0.1422
26834W        W47114   8.871  16.547  13.255 -0.2493  0.0382 -0.2494
26835W        W47115   7.810   8.314  11.392 -0.3483 -0.3927 -0.1033
26836W        W47116   3.417   3.360  14.145 -0.1959  0.4243  0.3270
26837W        W47117   3.275   4.000  15.547  0.1797 -0.2352 -0.1674
26838W        W47118  10.055   4.825   1.767  0.0621  0.0163 -0.0200
26839W        W47119  15.679  17.949   0.143 -0.0613 -0.2356  0.0781
26840W        W47120   5.272   1.190   3.982 -0.0749 -0.0972  0.1535
26841W        W47121   7.016  14.761  11.127 -0.1137 -0.1953  0.1468
26842W        W47122  12.605  12.659  11.819 -0.1538  0.0889 -0.1405
26843W        W47123  13.337  13.460   3.501 -0.1408  0.0567  0.1664
26844W        W47124   7.083   1.365   1.730 -0.0040 -0.0306  0.0289
26845W        W47125  12.976   4.848  11.959 -0.1745  0.0280  0.2983
26846W        W47126   1.182   2.510  15.455  0.1156 -0.0059  0.2126
26847W        W47127   3.025  12.406  12.268 -0.1216  0.0201 -0.1856
26848W        W47128   8.422  11.444  11.628  0.0422 -0.1698 -0.1614
26849W        W47129   3.360   8.175   0.924 -0.1168 -0.0788 -0.1124
26850W        W47130   0.817   5.909   1.378  0.0623  0.0770  0.1702
26851W        W47131  14.085   2.329   1.952  0.1621  0.2209  0.1859
26852W        W47132  14.110   4.714   3.989  0.5204  0.1104  0.5093
26853W        W47133  13.457   6.267   2.918 -0.2823  0.0178  0.3780
26854W        W47134  12.012   1.029  15.315  0.1092 -0.1862 -0.0403
26855W        W47135  11.917   3.228  12.034  0.1670 -0.0205  0.0161
26856W        W47136   2.171  16.756  12.422  0.0844 -0.1762 -0.1357
26857W        W47137   8.985   2.435   0.067  0.0824 -0.0113 -0.1004
26858W        W47138  16.738  14.780   1.778  0.2315 -0.2784 -0.1163
26859W        W47139   1.796   1.027  11.436 -0.0920  0.2068 -0.1698
26860W        W47140   2.865   8.994  12.632  0.1543  0.1655  0.1374
26861W        W47141   9.652   1.634  12.428 -0.2277  0.2188  0.3756
26862W        W47142   9.468   8.672  12.238 -0.1461  0.0681  0.0212
26863W        W47143   4.468  16.319  13.216 -0.1747 -0.1341 -0.1124
26864W        W47144  14.970   2.213   1.830 -0.1635  0.2951  0.0133
26865W        W47145  15.528  16.044   1.623  0.1608 -0.2968  0.1007
26866W        W47146   9.599   1.185  15.293 -0.2542 -0.0329 -0.2573
26867W        W47147   9.885   7.364  14.741 -0.3350 -0.1590  0.1745
26868W        W47148  16.252  11.139   0.275 -0.0291 -0.4698  0.0890
26869W        W47149  15.349  12.424   3.533 -0.3506  0.1923  0.1039
26870W        W47150   8.451  17.451  12.074  0.2419  0.2213 -0.0175
26871W        W47151  16.093   5.744   3.792  0.2566 -0.0183 -0.0339
26872W        W47152   1.279   1.825  13.988  0.2415  0.1878  0.0297
26873W        W47153  13.474  13.363  15.566  0.1169 -0.1485  0.0322
26874W        W47154  10.974  12.837  13.570 -0.0989  0.1669  0.4420
26875W        W47155   6.103  12.419  12.838 -0.1719 -0.4069  0.0438
26876W        W47156   2.195   0.212   4.161 -0.0265 -0.2241 -0.0451
26877W        W47157  15.800  18.257  14.413 -0.0525 -0.0710 -0.1477
26878W        W47158  12.605  11.182  11.838 -0.0464  0.1873  0.2106
26879W        W47159   1.201  13.429  12.751  0.0097  0.3237 -0.3515
26880W        W47160   0.761   7.307  12.288  0.0755 -0.1546 -0.2426
26881W        W47161  17.033  11.567   0.572 -0.0272 -0.0117 -0.1093
26882W        W47162  14.589   3.147  13.716 -0.2020 -0.1810 -0.1684
26883W        W47163   6.186   5.051   0.615  0.2392  0.0372  0.2068
26884W        W47164   5.057  13.299   4.455 -0.2843  0.0826 -0.4093
26885W        W47165  13.934  11.207   1.882  0.0933 -0.1073  0.2215
26886W        W47166   3.974   2.744  14.548 -0.0534  0.1149 -0.1784
26887W        W47167  16.157   0.299   3.360 -0.1291 -0.2118  0.0741
26888W        W47168  16.710   8.371  13.390 -0.0049 -0.1451  0.0178
26889W        W47169   7.432   9.610   5.664 -0.0273 -0.1302 -0.0039
26890W        W47170  18.128   3.197  14.569  0.1946  0.1153 -0.1630
26891W        W47171   3.447  12.352   0.843 -0.0491  0.1662  0.2892
26892W        W47172   5.335   0.406  12.976  0.1785 -0.4611  0.2939
26893W        W47173   0.601  11.212  14.737  0.0582  0.1626 -0.1394
26894W        W47174  15.474  12.570  14.810  0.0972  0.0109  0.2517
26895W        W47175   2.465   0.595   3.287  0.0021 -0.1515 -0.0443
26896W        W47176  17.396  12.230   2.749 -0.1028 -0.0772  0.0144
26897W        W47177   4.408  10.428   2.746  0.1931 -0.0286  0.0211
26898W        W47178   3.599  15.914   3.040 -0.1166  0.1036 -0.5146
26899W        W47179   7.255  14.966   1.415  0.1098 -0.3712  0.1424
26900W        W47180   7.311   1.342   0.049 -0.1432 -0.0952  0.0060
26901W        W47181  16.347  12.026   0.613  0.4622  0.0289 -0.0604
26902W        W47182   2.847   0.925   0.463 -0.0634 -0.0138 -0.1932
26903W        W47183  11.734   9.939  11.481 -0.2539  0.0658  0.0169
26904W        W47184   3.418   3.749   0.851  0.1250  0.4728 -0.1226
26905W        W47185  11.197  16.487   4.235 -0.0347  0.0138 -0.0699
26906W        W47186  16.788  17.922  14.664  0.1462  0.1194  0.0234
26907W        W47187   2.816   3.446  11.232  0.0073  0.1757 -0.1535
26908W        W47188   0.453  15.651   1.816  0.0669 -0.1137 -0.1505
26909W        W47189   4.748   3.561   1.422  0.1628  0.1480 -0.0745
26910W        W47190   4.030   5.573   3.561  0.1583 -0.3581  0.0813
26911W        W47191   1.207   8.458   0.907 -0.0837  0.0701  0.0503
26912W        W47192  16.986   6.113  12.961 -0.0730  0.0727  0.0133
26913W        W47193   8.376   4.977  14.527  0.1795  0.1715  0.0348
26914W        W47194   3.495   1.925  14.794 -0.1072 -0.1416 -0.2337
26915W        W47195   1.426   3.862  13.467 -0.1647 -0.1718 -0.1621
26916W        W47196   8.182   9.045  12.547  0.0120 -0.0971  0.0539
26917W        W47197   8.031  16.754   2.818  0.1739  0.3403  0.0797
26918W        W47198   9.744   7.966  14.984  0.0644  0.3282  0.3163
26919W        W47199   2.478  15.238   3.213 -0.2771 -0.1511 -0.1168
26920W        W47200   4.566   5.295  14.643  0.0421  0.1724 -0.0622
26921W        W47201  12.276  14.170   2.489  0.2323 -0.1453 -0.0453
26922W        W47202   9.623  13.047   1.430  0.2020 -0.0096 -0.0322
26923W        W47203   5.246   2.076  12.814 -0.3776  0.0296 -0.0717
26924W        W47204   7.652   4.362   2.306 -0.0988 -0.1937  0.0303
26925W        W47205   5.082   6.326   0.972 -0.2576 -0.0173  0.1719
26926W        W47206   3.039   0.205   3.976  0.3661 -0.2144  0.0039
26927W        W47207   5.746   9.859  14.419  0.1135  0.1647  0.0966
26928W        W47208  13.078   4.637   1.238  0.1350  0.1844 -0.1583
26929W        W47209   3.297   2.279   1.019  0.0658 -0.1973  0.0488
26930W        W47210   3.823   1.702   3.091 -0.1185 -0.1573 -0.0828
26931W        W47211  12.138   8.299  11.489  0.2138  0.1156 -0.0621
26932W        W47212  12.392  13.096  13.310 -0.3167 -0.2114 -0.0562
26933W        W47213  15.447   2.237  14.638  0.1230  0.1122  0.4272
26934W        W47214  17.654  13.502   1.026 -0.0153 -0.1555 -0.1654
26935W        W47215  16.190  13.668  14.863 -0.0356 -0.2693  0.6191
26936W        W47216  14.400  16.163  15.697  0.2010 -0.2748  0.1252
26937W        W47217   2.409  16.745   0.156  0.0347 -0.1929 -0.1429
26938W        W47218  15.080  14.218   1.426  0.4000  0.3135 -0.1277
26939W        W47219   6.209   1.079   3.849  0.3360  0.0110 -0.0071
26940W        W47220  17.242   5.731   1.340 -0.1289 -0.0698 -0.1797
26941W        W47221  11.018  12.189   4.637  0.1147 -0.1453  0.0601
26942W        W47222  17.978   8.960   3.803  0.0303  0.2757  0.0543
26943W        W47223   7.685   3.015   0.199 -0.0571 -0.0121  0.0617
26944W        W47224   8.591   1.000   4.688  0.0814 -0.0936 -0.1932
26945W        W47225   9.096   6.151   2.273 -0.3640 -0.2234 -0.2505
26946W        W47226  13.693  10.394  10.879 -0.3233 -0.0107  0.4005
26947W        W47227   1.639   5.928  14.005  0.0741 -0.3556 -0.0041
26948W        W47228  12.187   0.974  11.598  0.0855 -0.1744 -0.3695
26949W        W47229   2.717  16.348   1.151  0.0362 -0.0074  0.0259
26950W        W47230   7.193  14.824   2.574 -0.1212  0.0375 -0.0648
26951W        W47231   7.954  14.602  15.170 -0.2281  0.1781  0.0557
26952W        W47232   7.889  10.848   1.926  0.1568  0.1610  0.1959
26953W        W47233   6.859   8.383  14.231 -0.1002 -0.1541  0.0317
26954W        W47234  15.194  11.115   4.159 -0.4442  0.2979  0.0770
26955W        W47235  16.833   6.569   3.369  0.0158 -0.1004 -0.2767
26956W        W47236   2.495   3.176  11.594  0.1326  0.1360  0.0520
26957W        W47237   4.280   5.866  13.428 -0.0170  0.0979  0.2848
26958W        W47238   6.257  14.554  15.196 -0.1057  0.1980  0.1767
26959W        W47239  18.262  16.541   2.996 -0.1092  0.0024  0.1869
26960W        W47240  10.261   7.735  15.630 -0.1218  0.0874 -0.0961
26961W        W47241   1.718  11.328  15.466 -0.1166 -0.0789 -0.3960
26962W        W47242  10.554  16.128   1.288  0.0500  0.1648 -0.2591
26963W        W47243   6.287   6.296  12.549 -0.0446 -0.0205 -0.3193
26964W        W47244  18.295  13.871  14.434 -0.1883  0.0208 -0.1334
26965W        W47245   3.519   8.361   4.466  0.0509 -0.4553  0.0557
26966W        W47246  10.377   0.482   0.814  0.0741  0.1263  0.1443
26967W        W47247  14.517   4.416   0.792  0.0354 -0.0341 -0.2637
26968W        W47248   2.012   9.409  14.210 -0.0601  0.2871  0.0294
26969W        W47249  15.212  17.541   2.921 -0.3469  0.0608 -0.1025
26970W        W47250   5.310   1.441   2.106 -0.0934  0.0182 -0.0597
26971W        W47251  17.735   5.677   0.560  0.2942  0.0703 -0.2525
26972W        W47252  10.222   6.410   4.149  0.0572  0.0947  0.4016
26973W        W47253   8.698  12.389  13.556 -0.2069  0.1251 -0.0225
26974W        W47254  16.155   1.772   1.373  0.0950 -0.0274 -0.0006
26975W        W47255  11.759  16.462   1.983  0.1723 -0.1239  0.0361
26976W        W47256   0.327   8.099  12.090  0.1268  0.2715  0.2158
26977W        W47257   6.458   9.957  14.411  0.0414  0.2656 -0.2867
26978W        W47258  17.782  10.803  12.273 -0.2334 -0.0320  0.0816
26979W        W47259   8.587   1.724   0.745 -0.1353  0.1306 -0.0583
26980W        W47260  17.684   1.057   2.727  0.0854  0.0330 -0.2021
26981W        W47261   1.919  15.627  11.694  0.2847  0.2862 -0.0102
26982W        W47262   8.733  14.292  13.276  0.1147  0.0576 -0.0211
26983W        W47263  13.485  17.116   3.732  0.2780  0.3671 -0.3008
26984W        W47264   3.081   4.756  14.030  0.0779 -0.0701  0.1473
26985W        W47265  12.709  11.808   1.062  0.0484  0.1193  0.1818
26986W        W47266   0.369  11.393  15.310 -0.1115  0.1233  0.5315
26987W        W47267   7.126   9.246   0.062 -0.1726  0.1916  0.1688
26988W        W47268   7.720   4.324  12.841  0.1769 -0.1126  0.0117
26989W        W47269   2.852   3.169   4.487 -0.2485  0.3006  0.2786
26990W        W47270   4.149  17.065   3.829 -0.1038  0.2864  0.1802
26991W        W47271   5.654   6.067   2.430  0.1971 -0.0766 -0.1857
26992W        W47272   2.531   0.408   2.695 -0.0899 -0.1483 -0.1609
26993W        W47273   7.290  17.725   3.878  0.0969 -0.0498  0.0808
26994W        W47274  14.698  13.785  15.600  0.1564  0.0521  0.3060
26995W        W47275  13.896   6.300  12.240 -0.0606 -0.0116  0.1616
26996W        W47276   4.155  18.218   3.433  0.0753  0.1793  0.2308
26997W        W47277   9.213  15.105  15.273 -0.2805  0.1845 -0.0614
26998W        W47278   2.276  15.889   0.309  0.0066 -0.0263 -0.1915
26999W        W47279  14.924   9.021  13.228 -0.0856  0.2596  0.1539
27000W        W47280   2.955   3.111   3.301 -0.3337 -0.1372 -0.2074
27001W        W47281  15.362   6.046   0.333  0.0514 -0.0238  0.0224
27002W        W47282   3.381   5.497  15.316  0.1903  0.0374 -0.1015
27003W        W47283   0.181   1.811   0.824 -0.0497 -0.0289  0.3020
27004W        W47284  18.024   2.136  11.377 -0.2307  0.1580 -0.1171
27005W        W47285  17.769   2.025   4.900 -0.0812 -0.0405  0.1804
27006W        W47286   4.779  11.933   0.830 -0.2720  0.0772  0.1099
27007W        W47287   3.795  11.274  10.981  0.2188  0.3505 -0.1340
27008W        W47288   7.889  11.772   2.262 -0.4414 -0.0441  0.1502
27009W        W47289  14.834   2.027  15.894 -0.2404 -0.0711  0.0429
27010W        W47290   5.481  18.030  14.386  0.1635 -0.0489 -0.1641
27011W        W47291  13.684  14.590  13.109 -0.1389 -0.2300  0.0988
27012W        W47292   5.127  15.150   1.888  0.1136 -0.0063 -0.0466
27013W        W47293  15.804  10.853  13.341  0.1514  0.0480  0.0031
27014W        W47294   5.453   3.419  11.474 -0.1550  0.1984 -0.0631
27015W        W47295  17.989  14.941   3.997  0.0863 -0.1055  0.2711
27016W        W47296   1.588  18.099  14.737 -0.3179 -0.0472  0.0661
27017W        W47297   2.836  12.755   2.483 -0.0492  0.1244 -0.0744
27018W        W47298  12.224   2.287  11.608  0.0942 -0.0257  0.3573
27019W        W47299  14.070  11.674  12.911  0.1376  0.2443  0.1713
27020W        W47300  10.937  11.867  11.643  0.0346  0.0351 -0.0431
27021W        W47301  14.058  14.825  13.803  0.1739 -0.0981  0.2110
27022W        W47302  10.922   1.872  15.021 -0.0143 -0.3620  0.1079
27023W        W47303  16.789  10.623   0.926  0.1254 -0.1336 -0.0860
27024W        W47304  13.659   6.424   4.949  0.1814  0.1425  0.1810
27025W        W47305  12.473   9.070   4.837  0.1205 -0.0843 -0.0487
27026W        W47306  11.862  11.951  12.505 -0.0274  0.2975 -0.0992
27027W        W47307   2.065  17.043   1.985 -0.0677  0.1408  0.0248
27028W        W47308   0.086   9.309   2.030  0.1177  0.0061 -0.2276
27029W        W47309   9.038  11.495  13.948  0.0419 -0.4677  0.2787
27030W        W47310  16.186   2.143   2.188 -0.0985 -0.0999 -0.2281
27031W        W47311  16.502  16.406   3.884 -0.0430  0.2731 -0.0340
27032W        W47312  14.157   5.117   3.629  0.0320  0.3066  0.0435
27033W        W47313   0.479  12.750  12.987  0.1458  0.0926 -0.0903
27034W        W47314  16.828  14.916  12.373  0.3768 -0.2327  0.3152
27035W        W47315  17.434  16.074  15.143  0.0316 -0.2732 -0.2724
27036W        W47316  16.683  12.833   2.813  0.0964 -0.1147 -0.1350
27037W        W47317  12.622  11.523  13.761  0.0655 -0.0237 -0.1710
27038W        W47318   6.666   4.045   1.602 -0.0510  0.0354 -0.1273
27039W        W47319   1.597  14.895  15.364  0.0301  0.1314  0.1538
27040W        W47320  17.008   0.036   3.293 -0.0953  0.1453  0.0123
27041W        W47321   9.687  15.293   1.278 -0.0897  0.4685 -0.3285
27042W        W47322  12.407  14.949  12.580 -0.0869 -0.0662 -0.2300
27043W        W47323   3.625   2.629   1.164  0.2496 -0.1337 -0.1212
27044W        W47324   9.313  13.864   4.846 -0.0672 -0.0324 -0.1661
27045W        W47325   3.837   2.375   2.610  0.1300  0.1660  0.0421
27046W        W47326  16.375   7.878   4.539  0.4010  0.0251  0.1320
27047W        W47327   5.620  18.178   3.897  0.0287 -0.1545  0.0035
27048W        W47328   6.436   9.772   0.317  0.3024 -0.1240  0.2167
27049W        W47329  13.214  16.338   0.874  0.0639 -0.0748 -0.0678
27050W        W47330   0.658   4.391   3.486 -0.1415  0.1899 -0.1408
27051W        W47331   0.184   8.913  13.890  0.0041  0.1071  0.2471
27052W        W47332  16.575  16.210   2.300 -0.3046  0.1564 -0.1462
27053W        W47333   2.215   3.660  13.448  0.0364  0.0563  0.0921
27054W        W47334   3.559  10.184   0.296  0.3383 -0.0005 -0.4715
27055W        W47335  13.962  13.941   0.472  0.1079 -0.2147 -0.0903
27056W        W47336  17.538  16.192  12.219  0.3497  0.0875 -0.0788
27057W        W47337   9.428   7.256  10.585 -0.2534  0.3604  0.0138
27058W        W47338  10.703   5.660   3.116 -0.0164  0.4186  0.1254
27059W        W47339  16.902  15.735  11.370  0.0568 -0.0883  0.3792
27060W        W47340   7.244   2.661   0.197 -0.0497 -0.0628 -0.1316
27061W        W47341   8.771   6.385   0.494  0.4141  0.0500  0.1697
27062W        W47342   3.887  16.679  15.862  0.1085  0.0866 -0.0467
27063W        W47343   4.614   2.591  12.865  0.1152  0.1514  0.1146
27064W        W47344   0.445  16.554  15.116 -0.1128 -0.0794 -0.1665
27065W        W47345  12.703  17.539   0.240 -0.1258 -0.0177  0.0926
27066W        W47346   9.537  10.241  12.120  0.0384 -0.0772 -0.0897
27067W        W47347  14.830   5.905  15.079 -0.0665 -0.0259 -0.1261
27068W        W47348   3.784   8.819   2.789 -0.2939 -0.1286  0.2918
27069W        W47349  17.035   9.147  12.427 -0.1397 -0.0901 -0.2218
27070W        W47350   5.859  12.895  12.687  0.0279  0.2323  0.1060
27071W        W47351  11.225  16.450   0.791  0.0158 -0.2155  0.0622
27072W        W47352   1.708   6.346  12.267  0.1773  0.1052  0.5189
27073W        W47353  11.769   6.054   3.538  0.0937  0.2670  0.1069
27074W        W47354  10.732   5.076  13.645 -0.0954  0.3662 -0.1741
27075W        W47355   2.801   3.423   2.961 -0.1977  0.2204 -0.0709
27076W        W47356   7.241   0.510   4.064 -0.1396 -0.1754  0.0653
27077W        W47357  11.549   9.210  12.147 -0.2908  0.0716  0.1291
27078W        W47358   1.174   9.202  14.126  0.2656 -0.0958 -0.2463
27079W        W47359  15.809  13.488   1.059  0.3146 -0.0682  0.0690
27080W        W47360   4.906  12.023  14.967 -0.0203  0.0669  0.2044
27081W        W47361   2.901  10.350  12.626 -0.0610  0.0569  0.1356
27082W        W47362   0.274  12.626   3.270  0.0192 -0.3030  0.1452
27083W        W47363   2.526   5.443   1.496 -0.1323  0.1746  0.2862
27084W        W47364  15.199   5.542   0.587 -0.2586 -0.2671 -0.1158
27085W        W47365  16.703   4.273  12.922  0.2531  0.0474 -0.0411
27086W        W47366   9.645  15.227   2.521 -0.2688  0.0605 -0.0179
27087W        W47367   3.225  11.281  14.232 -0.2357  0.0015 -0.1222
27088W        W47368   3.845   2.209  13.520  0.0305 -0.0701  0.2988
27089W        W47369   2.036   7.239  13.736  0.0834  0.0081  0.2148
27090W        W47370  14.221  11.210   0.769  0.1339 -0.0321 -0.1995
27091W        W47371   4.248  15.076   1.111 -0.2059  0.1954  0.0126
27092W        W47372   4.692  10.012  13.923  0.2503  0.1586  0.0833
27093W        W47373  18.067   7.163  11.981  0.3223 -0.0649 -0.1283
27094W        W47374  13.431  10.043  12.876  0.1762 -0.3086 -0.0533
27095W        W47375   8.741  17.489   1.974 -0.2619  0.1230  0.0697
27096W        W47376  16.358   9.147  12.223  0.0625  0.1264  0.4145
27097W        W47377   1.287  15.265   2.319  0.2754 -0.2126 -0.0870
27098W        W47378  12.284   7.390  15.505  0.0705 -0.0968 -0.1009
27099W        W47379   8.690  17.513   0.226  0.4345  0.2825 -0.2154
27100W        W47380   5.814  12.832   4.841 -0.0425 -0.0671 -0.1030
27101W        W47381  16.826   1.931   2.793 -0.2523  0.0055 -0.1106
27102W        W47382  17.900  13.495   3.075 -0.0873 -0.0773 -0.0228
27103W        W47383   4.435   0.685   2.353 -0.3074 -0.1418  0.3636
27104W        W47384  14.060  15.250  12.590  0.0587  0.0072 -0.1594
27105W        W47385  12.786   1.199   3.231 -0.0169  0.0039 -0.1831
27106W        W47386  13.179  13.499  15.078 -0.0797 -0.0444  0.2610
27107W        W47387  16.774   8.167  13.855 -0.0275 -0.3382 -0.3029
27108W        W47388  15.470   0.246  12.733 -0.1877 -0.1170  0.1258
27109W        W47389  10.522   6.105  12.984 -0.2525  0.1891  0.4438
27110W        W47390  15.588  16.624  15.346 -0.0398  0.1494 -0.2206
27111W        W47391   5.266   9.998   3.875 -0.1490 -0.0765 -0.2040
27112W        W47392  12.616  17.357  14.169  0.1898  0.0246  0.1695
27113W        W47393  11.388   4.354  13.892 -0.0772  0.0419 -0.1925
27114W        W47394  11.302  11.536   4.086  0.1700  0.2475 -0.0090
27115W        W47395   3.678  17.564   2.768 -0.3927 -0.0955 -0.1716
27116W        W47396  13.399  11.096   1.038 -0.1237  0.3535 -0.3042
27117W        W47397   6.451  11.594  15.822 -0.2007 -0.0086  0.0969
27118W        W47398  16.442   2.631  14.399  0.1666  0.0236 -0.2560
27119W        W47399  10.922  15.224  11.575 -0.1633 -0.2427 -0.0376
27120W        W47400   1.574   7.965  15.906 -0.4069  0.3189 -0.1089
27121W        W47401   1.618  14.852   2.450 -0.0605 -0.2817  0.0869
27122W        W47402  11.265  14.499  13.543 -0.0281 -0.1806  0.1071
27123W        W47403   4.527  17.369   3.686  0.1001 -0.0736  0.1852
27124W        W47404   5.220   1.751  13.612  0.0124 -0.1455  0.3088
27125W        W47405   8.523   3.146   3.285  0.2020 -0.0826 -0.1778
27126W        W47406  16.420   1.273  15.725  0.0548  0.1495 -0.0589
27127W        W47407  11.646   8.884   1.216 -0.1073 -0.2721 -0.1645
27128W        W47408   6.401   2.534   0.380  0.0986  0.2081  0.0872
27129W        W47409  16.558  17.515  12.498  0.1299  0.0512  0.0737
27130W        W47410   2.403  14.881  15.623  0.0658 -0.2132  0.1418
27131W        W47411  14.844  14.067  11.793 -0.2936  0.0852  0.0843
27132W        W47412  10.282  13.090   0.618  0.2375  0.0877  0.2657
27133W        W47413   0.027  16.284  14.744  0.1711  0.2853  0.2100
27134W        W47414  13.518   3.951   1.851 -0.0809  0.2755  0.1180
27135W        W47415  11.409  13.959  13.721  0.1225  0.0496 -0.1244
27136W        W47416   3.734   6.622  13.093  0.0725  0.3710 -0.0869
27137W        W47417   9.424   2.098   0.385  0.3511 -0.0533  0.0248
27138W        W47418   8.690  12.406  15.454  0.4312  0.0680 -0.1254
27139W        W47419   4.330  16.863  15.678  0.1904  0.2193 -0.2820
27140W        W47420   1.668  17.020  12.163 -0.0241  0.0874  0.1388
27141W        W47421   2.984   4.318  13.232 -0.1622 -0.2451 -0.1460
27142W        W47422   6.613   4.024   0.605  0.0681  0.0647 -0.2502
27143W        W47423  12.476  14.826   2.983 -0.1045  0.0329  0.2869
27144W        W47424  17.397   3.101  11.267  0.1640  0.1748  0.2839
27145W        W47425  10.900   5.347  14.712 -0.3088  0.1680 -0.0782
27146W        W47426  14.243   0.909   0.765 -0.3400 -0.3832  0.2151
27147W        W47427  12.595   8.226   4.821  0.1479  0.1201  0.2060
27148W        W47428  16.056   3.261   2.679  0.0206  0.3721 -0.2337
27149W        W47429  10.944   0.030  11.864 -0.0232  0.0782  0.1257
27150W        W47430   3.771   4.572  13.672  0.0916 -0.1905  0.2859
27151W        W47431   2.969  11.872  12.222 -0.0324  0.2047 -0.0009
27152W        W47432   0.682  12.184   1.010 -0.0921 -0.0146 -0.2004
27153W        W47433  13.774   1.495   3.487 -0.5893  0.1299  0.2113
27154W        W47434  14.742  14.531  11.259 -0.1254 -0.1357 -0.0341
27155W        W47435   5.992  11.404   1.256 -0.0003  0.1877  0.2129
27156W        W47436  12.973  15.686  15.598  0.2340  0.2557  0.0426
27157W        W47437   0.515  11.315   2.423 -0.0115 -0.1224 -0.0469
27158W        W47438   2.748  13.248   0.717 -0.0946 -0.0431 -0.0058
27159W        W47439  10.314   2.969  13.729  0.1570  0.1368 -0.1384
27160W        W47440   1.124   4.444   4.459 -0.2009 -0.0467  0.0605
27161W        W47441   3.625   9.378   3.528 -0.0032  0.0899 -0.2027
27162W        W47442   9.658  17.435  12.478  0.2736  0.0024  0.0593
27163W        W47443  10.759  12.377  13.356  0.0737 -0.1618 -0.1307
27164W        W47444   7.312   8.636   0.911  0.2867  0.0671  0.1849
27165W        W47445   4.028  15.458   2.124 -0.0058 -0.1850 -0.1816
27166W        W47446   5.809   7.071   1.410 -0.0696 -0.1595 -0.0406
27167W        W47447   5.618  14.792  13.967  0.2135 -0.2811 -0.2683
27168W        W47448   4.452   6.467  11.681 -0.1963  0.2040 -0.1047
27169W        W47449   9.737  16.500   1.621 -0.1585  0.0019 -0.0172
27170W        W47450   4.277   2.965  13.961 -0.3047 -0.3978  0.0592
27171W        W47451   2.589  17.367   0.248  0.2036 -0.0371  0.3989
27172W        W47452  12.915   4.292   0.006 -0.0603 -0.0924  0.2077
27173W        W47453   3.329  12.600  13.330  0.3280 -0.1587  0.0981
27174W        W47454   4.756   1.674  14.926  0.1258 -0.2007 -0.0376
27175W        W47455  13.392   2.946   0.428 -0.0408  0.3347 -0.1765
27176W        W47456   3.883   0.000  11.467  0.0986  0.2504 -0.0813
27177W        W47457   1.132  16.273  12.672 -0.1551  0.1485 -0.0818
27178W        W47458   8.324  14.027  13.302 -0.2084  0.1104 -0.0669
27179W        W47459  16.039  12.783   4.128  0.3444  0.3125  0.2152
27180W        W47460  12.782   7.210  15.582  0.0142 -0.0233  0.3058
27181W        W47461  16.954   3.206   2.573  0.3528  0.3405 -0.0314
27182W        W47462   7.265   5.817   2.228  0.0008  0.3681 -0.2333
27183W        W47463  12.603  10.034   4.853  0.0323  0.0687  0.0716
27184W        W47464  14.384   8.295   4.383  0.1172  0.1372 -0.2355
27185W        W47465  15.564  10.860   2.429 -0.1177  0.0128 -0.3379
27186W        W47466   3.903   1.942  10.651  0.0264 -0.0345  0.0129
27187W        W47467  12.007   8.464  13.925 -0.1967  0.1281  0.0873
27188W        W47468  11.269  16.966  15.379 -0.0569  0.1370  0.3808
27189W        W47469   4.678   5.735  14.989  0.2761  0.2128  0.0666
27190W        W47470   7.173  12.841  15.042  0.0709  0.3833 -0.0511
27191W        W47471   4.977  13.171  13.527  0.1191 -0.1815 -0.2247
27192W        W47472  12.489  14.677   3.965  0.0271 -0.2616 -0.0761
27193W        W47473   1.707   0.595   2.455  0.0734 -0.3252  0.0101
27194W        W47474   0.382   5.047   2.274  0.0929 -0.0927 -0.0867
27195W        W47475   4.622  11.836  13.502  0.1771 -0.1157 -0.2023
27196W        W47476   3.493   7.261  11.854 -0.0755  0.1470  0.1984
27197W        W47477   7.484  13.101   3.907 -0.2866 -0.1254  0.1131
27198W        W47478   8.179   9.514  11.323  0.1375 -0.1861 -0.1746
27199W        W47479  14.237   9.351   2.762  0.1633  0.0214 -0.1155
27200W        W47480  18.018   2.135   2.164 -0.0011 -0.0511 -0.0115
27201W        W47481   7.083   2.024   2.881  0.0545 -0.1824 -0.2807
27202W        W47482  13.926   6.556  13.538 -0.1883  0.0774 -0.1227
27203W        W47483   8.718   9.701  11.489  0.2729 -0.2588 -0.0429
27204W        W47484   2.352   8.429   2.717  0.1288 -0.1816 -0.1554
27205W        W47485  10.019  17.608   1.585 -0.1420 -0.4032  0.1586
27206W        W47486   9.114   5.643  13.225 -0.0468 -0.1616  0.0783
27207W        W47487  16.165   1.710  11.137 -0.0555  0.1553  0.0854
27208W        W47488  11.546  16.977   3.929  0.1275  0.1270  0.0163
27209W        W47489   9.635  12.128   5.417  0.1869 -0.0478  0.0834
27210W        W47490   1.797   3.482   3.602  0.0004  0.2280 -0.4073
27211W        W47491   6.446   3.494  13.403  0.1219  0.1972  0.0211
27212W        W47492  17.024   2.197   2.407  0.0387 -0.0008 -0.0120
27213W        W47493   9.920  11.264  14.744 -0.2482 -0.2366  0.0388
27214W        W47494  17.971   7.936   4.569  0.0725 -0.0823  0.1819
27215W        W47495  12.718  14.295  13.870  0.1999 -0.1847 -0.0430
27216W        W47496   2.377   5.248   3.979 -0.2140 -0.0396 -0.0206
27217W        W47497   8.954   1.187   1.165 -0.1444  0.2659 -0.0450
27218W        W47498  18.197   0.418  14.018 -0.0840 -0.2580  0.3072
27219W        W47499   7.106  12.283   2.528  0.0621 -0.1627 -0.0284
27220W        W47500  14.072   8.237   3.450 -0.0188  0.0384 -0.0651
27221W        W47501   4.258   8.838   4.007 -0.2005  0.0725  0.1312
27222W        W47502   2.942  10.699  11.693  0.2276 -0.2328 -0.1444
27223W        W47503  17.611   6.314  11.285  0.1222 -0.0816  0.0599
27224W        W47504   8.061  12.031   2.800 -0.1363 -0.1960  0.3208
27225W        W47505   4.295  15.355   3.459 -0.1258  0.2934  0.0285
27226W        W47506   9.682   3.816   3.688 -0.1943 -0.1802  0.1379
27227W        W47507   2.217   6.302   3.849 -0.0086  0.0341 -0.0619
27228W        W47508   2.414   1.956  14.865  0.4373  0.0652  0.1855
27229W        W47509  16.903   7.279   2.685 -0.1915  0.0497 -0.0505
27230W        W47510  12.795  10.809  15.026  0.1429 -0.1892  0.0663
27231W        W47511  13.911   3.544   1.098 -0.1329  0.2053  0.1261
27232W        W47512   8.686  13.313  12.494  0.0844 -0.2349 -0.1021
27233W        W47513  13.223   7.001   5.566 -0.2302  0.2692  0.2557
27234W        W47514   6.470  10.401  15.829 -0.1686 -0.1636  0.0620
27235W        W47515   4.858   4.748   2.309  0.0173 -0.0802  0.2839
27236W        W47516  12.298  17.450   3.124 -0.2806  0.0652  0.0974
27237W        W47517  17.389  15.196  14.468 -0.0671 -0.0597 -0.0589
27238W        W47518   2.103   7.615   3.498  0.1897 -0.0375 -0.0013
27239W        W47519  13.493   0.985  12.207 -0.0963 -0.0175  0.2246
27240W        W47520   0.344   4.755   3.725  0.2348  0.1597  0.0365
27241W        W47521   4.254  14.362   3.859  0.2502 -0.1152 -0.3202
27242W        W47522  14.633  16.352   0.309  0.0795  0.1765  0.2474
27243W        W47523   2.306  10.902  12.353 -0.0933 -0.1379 -0.3374
27244W        W47524   8.645   9.094  12.719  0.0834  0.0279 -0.2520
27245W        W47525   0.107   4.798   3.130 -0.4085 -0.3293  0.2708
27246W        W47526   2.803  12.242   0.096  0.0112  0.2834 -0.1205
27247W        W47527  15.110  15.059   2.900 -0.0514  0.1255 -0.0793
27248W        W47528   1.877   6.083  13.127 -0.2137  0.0618  0.3214
27249W        W47529   1.959  14.939  10.672  0.0562  0.2632 -0.2335
27250W        W47530  15.557  12.763   4.045 -0.0004 -0.0043 -0.0734
27251W        W47531   6.344   6.215   0.546 -0.2128  0.1027 -0.1106
27252W        W47532   9.846   7.789   2.382  0.5741  0.0941  0.0249
27253W        W47533   7.864  14.054  11.656  0.4555  0.0593  0.0827
27254W        W47534   7.189  10.085   2.773 -0.2196  0.0607  0.2279
27255W        W47535  15.554   4.487   4.377  0.2927  0.0293  0.3836
27256W        W47536  10.516   8.540  12.991  0.2877 -0.0377  0.0389
27257W        W47537  13.332   4.009   4.213  0.0718 -0.1181 -0.3442
27258W        W47538  17.127   2.562  15.669 -0.1542 -0.0443  0.0393
27259W        W47539   7.167   3.822   1.753  0.0348  0.2401 -0.0250
27260W        W47540  12.640   7.905  14.364  0.3079 -0.0808 -0.0406
27261W        W47541  14.139   6.738   1.183 -0.0470 -0.3251  0.2687
27262W        W47542   9.970  16.664   3.836  0.2012 -0.0246  0.1326
27263W        W47543   7.706  16.200   3.392 -0.0961 -0.0975  0.1349
27264W        W47544  12.784   0.409   3.180  0.1518  0.1610 -0.1872
27265W        W47545   6.746   0.002   1.987 -0.1085  0.0668 -0.2218
27266W        W47546  16.643   6.936  14.469  0.0323 -0.0122  0.0330
27267W        W47547  10.925   3.024   4.195  0.0644 -0.1092  0.0787
27268W        W47548  17.737  15.286  12.556 -0.0134  0.0770 -0.2619
27269W        W47549   0.646   5.046  14.138  0.1591  0.1810  0.0940
27270W        W47550   0.155  12.432   1.424  0.1041  0.0270  0.1260
27271W        W47551  10.817  14.483   1.637  0.2125 -0.2534  0.1078
27272W        W47552  16.545   8.535   1.412 -0.2249 -0.3205 -0.0907
27273W        W47553   5.862  16.446  14.379  0.0104 -0.0690  0.0322
27274W        W47554  10.715   6.499  12.755  0.2607  0.2461  0.2054
27275W        W47555  10.395   4.718  13.759 -0.2620 -0.0733  0.0603
27276W        W47556   5.067   8.943   2.488 -0.0238 -0.0039 -0.2394
27277W        W47557   4.870   0.552  12.295  0.0710 -0.0007  0.0384
27278W        W47558  12.787   5.355   1.815  0.3907 -0.1982 -0.2914
27279W        W47559   0.448  10.760  15.905  0.0317  0.1955  0.0043
27280W        W47560  16.172  13.291  14.492 -0.2309  0.1171  0.0042
27281W        W47561   8.218   9.626   1.651 -0.0921  0.0850  0.1844
27282W        W47562  14.559   8.718   1.946 -0.0802 -0.0481 -0.0429
27283W        W47563   0.479   8.754  15.375  0.1264  0.0135  0.0118
27284W        W47564   2.477   1.474   3.984  0.0700  0.2054  0.0613
27285W        W47565  13.454  12.237   4.305 -0.2321 -0.0653  0.2082
27286W        W47566  11.257   8.585   1.344  0.4849  0.0380  0.1057
27287W        W47567   1.342  13.619  14.925  0.1331  0.0166 -0.3080
27288W        W47568  12.035  16.650   3.745 -0.0361 -0.0089  0.2603
27289W        W47569   0.740   1.498   4.552  0.0099 -0.0678  0.0752
27290W        W47570  17.213  12.670  13.562  0.1772 -0.0759 -0.4270
27291W        W47571   9.874   6.567   3.714  0.0255 -0.1734  0.4166
27292W        W47572  12.715  18.269  15.699 -0.0670  0.0256  0.1497
27293W        W47573  10.952   4.054   0.476  0.0592 -0.2122  0.1671
27294W        W47574  17.877  17.943  13.358 -0.1874  0.2599  0.1473
27295W        W47575   3.967  14.371  14.049  0.3935 -0.1245  0.1568
27296W        W47576  13.344  10.838   5.240  0.1447 -0.1276  0.0929
27297W        W47577   7.461   0.019  15.911  0.0726  0.1620 -0.0001
27298W        W47578  15.896  13.753   1.468  0.3139  0.2019  0.2091
27299W        W47579   6.521  11.223   3.111  0.0234 -0.1388 -0.0933
27300W        W47580   8.017   9.279   1.107 -0.0652  0.1848 -0.1096
27301W        W47581   3.244  16.437  13.565  0.2761 -0.0595  0.1805
27302W        W47582   1.130   1.888  13.380  0.0113  0.2729  0.0321
27303W        W47583  17.427   2.758   3.069 -0.0202 -0.3438  0.0971
27304W        W47584  12.313   6.047  12.807  0.3370  0.1211  0.0984
27305W        W47585  15.884   2.964  14.117  0.3016  0.0402  0.1562
27306W        W47586  11.962   2.615   1.965  0.0572 -0.0447  0.2073
27307W        W47587  10.936  17.222   1.890  0.0275 -0.4933  0.0353
27308W        W47588   1.349   3.164  11.800 -0.0286  0.0076 -0.0923
27309W        W47589  10.834  15.050   3.281  0.1882 -0.1114 -0.0976
27310W        W47590   8.073   8.099   2.587  0.2950 -0.1050 -0.0441
27311W        W47591   5.503  18.245   2.541  0.1076 -0.1475  0.1979
27312W        W47592   0.556  17.896  15.479  0.0339  0.1033  0.1775
27313W        W47593   5.391   4.955  14.156 -0.0164 -0.0144 -0.1171
27314W        W47594   3.738  10.390   4.261  0.1273  0.0768 -0.1427
27315W        W47595  16.109   5.098   2.176  0.0299 -0.2160 -0.1759
27316W        W47596   9.413   0.830   4.294  0.3805  0.3123  0.1752
27317W        W47597  17.931   5.874  12.125 -0.1171  0.1026 -0.2132
27318W        W47598   2.066   3.458   4.134  0.1052  0.0700  0.0321
27319W        W47599   9.721  14.747  12.432 -0.1375  0.1260 -0.0856
27320W        W47600  15.091  18.141   1.830 -0.2163 -0.3387 -0.2008
27321W        W47601  13.651   8.857   1.410 -0.1661 -0.2277 -0.3541
27322W        W47602   9.511   1.602   3.263  0.0952  0.0664  0.0171
27323W        W47603   3.965  13.339  13.159 -0.2347  0.0427 -0.0688
27324W        W47604  16.785  17.992   0.051  0.0633  0.0214  0.0072
27325W        W47605   3.316   8.177   1.424 -0.1327 -0.5420  0.0578
27326W        W47606   2.812   0.578  14.871 -0.3286  0.0410  0.0738
27327W        W47607   4.443   3.944  11.761 -0.1093  0.1499 -0.1075
27328W        W47608   5.936  14.203  14.928  0.1599  0.2439 -0.4376
27329W        W47609   7.519   4.162   4.550 -0.1541  0.2115  0.3116
27330W        W47610  13.529  11.341  14.996  0.1529  0.0984  0.0027
27331W        W47611   9.723  11.558  15.558 -0.4169 -0.0324  0.2448
27332W        W47612  13.369   4.673   2.795  0.0221  0.1502 -0.1069
27333W        W47613   9.442   5.080  15.894 -0.0842 -0.2982  0.1436
27334W        W47614  15.632   7.711   4.595 -0.1935 -0.0061 -0.1207
27335W        W47615   9.555   6.254  13.045 -0.1279 -0.1303  0.0827
27336W        W47616   3.206   3.176  12.429 -0.1123 -0.0712 -0.1768
27337W        W47617  11.345  11.731   5.430  0.0645 -0.1660 -0.0985
27338W        W47618   2.815   2.526   3.913 -0.3491  0.1292 -0.0815
27339W        W47619  16.744   8.399   5.083  0.3666 -0.0850  0.2162
27340W        W47620  18.169  12.782   0.852  0.1143  0.1017  0.2437
27341W        W47621  11.209  16.519  11.526  0.3576  0.0992 -0.0576
27342W        W47622  16.019   5.426   2.837 -0.1073  0.2006 -0.0465
27343W        W47623   0.035   1.095   0.837  0.4072 -0.1133 -0.1177
27344W        W47624  15.565  12.479   2.565 -0.1793 -0.0599 -0.0843
27345W        W47625  12.737  17.327  11.762  0.3455  0.0151  0.0701
27346W        W47626  13.971   7.437   0.047  0.2807  0.2318  0.1102
27347W        W47627   9.986   1.068  15.646  0.0686 -0.1731 -0.0341
27348W        W47628  13.413  10.193  13.995 -0.1983 -0.1652 -0.0007
27349W        W47629  17.668  10.661  13.445 -0.0890  0.3396 -0.1949
27350W        W47630  11.119   1.282   1.853 -0.1362 -0.1044 -0.1313
27351W        W47631   0.845  11.690   1.695 -0.1504 -0.0088 -0.0859
27352W        W47632   0.227  16.890  15.389 -0.3005  0.2375  0.2391
27353W        W47633   6.793   2.242   0.757 -0.0685  0.0191  0.0590
27354W        W47634   0.646   7.216   1.015  0.0798  0.0834  0.1221
27355W        W47635   7.924  16.278  14.658 -0.3285  0.1870 -0.2133
27356W        W47636  12.564   3.009   1.486 -0.0311 -0.0487  0.1491
27357W        W47637  16.665   7.744   0.882 -0.2061  0.1332  0.2279
27358W        W47638   7.551   6.486  13.505  0.3017  0.1345 -0.2741
27359W        W47639   7.260   6.702  15.846 -0.0216  0.2112  0.3243
27360W        W47640   3.840  17.803  13.914 -0.2675 -0.1247  0.0109
27361W        W47641   3.995  17.606  15.903 -0.0204  0.1505  0.0332
27362W        W47642  15.392   6.874   1.763  0.3042 -0.3024 -0.1020
27363W        W47643   5.054  10.129   2.462  0.0938 -0.0297 -0.2074
27364W        W47644   4.574   4.394  13.007 -0.1835 -0.1792  0.0005
27365W        W47645  16.202   8.597   0.874  0.1134 -0.0295  0.1580
27366W        W47646   4.056  15.190  15.224  0.0353 -0.1346 -0.1327
27367W        W47647   3.315   4.729  11.782 -0.0022  0.1065  0.0269
27368W        W47648  15.296  17.921  12.704 -0.1248  0.1301  0.0212
27369W        W47649   1.817  11.985  14.317 -0.2123  0.0250  0.0734
27370W        W47650   5.990  10.173  13.554 -0.2764 -0.2095  0.0836
27371W        W47651  15.233  14.768  14.668  0.1473  0.0521  0.2824
27372W        W47652   7.780   0.055  12.963 -0.2280 -0.0511 -0.0723
27373W        W47653   3.779   0.353   4.285 -0.2308  0.1692 -0.1361
27374W        W47654   1.053  15.520  13.669 -0.0326 -0.1258  0.0088
27375W        W47655  10.534   8.022  12.775 -0.2489  0.3438 -0.2691
27376W        W47656   5.854   8.571   5.207 -0.0476  0.1567  0.0501
27377W        W47657   3.215   3.025   0.454  0.1875  0.2382  0.0667
27378W        W47658   0.800   4.583   3.999  0.1205  0.2336  0.0915
27379W        W47659   3.554  10.322   1.862  0.1248  0.0962 -0.0077
27380W        W47660   0.869   4.202   0.176 -0.0189 -0.4714 -0.0231
27381W        W47661  16.933   2.849   1.903  0.2322 -0.1962 -0.2432
27382W        W47662  11.987   5.602   3.026  0.1140  0.2971 -0.2532
27383W        W47663  17.367   4.934  14.668 -0.4490 -0.1856 -0.1195
27384W        W47664  17.966   1.148  14.695 -0.1383 -0.2446  0.1339
27385W        W47665  12.345   0.303  14.499  0.3310 -0.0124  0.2068
27386W        W47666  17.194   4.268  15.104  0.0629 -0.0478  0.3597
27387W        W47667   9.985   1.176   0.263 -0.0899  0.1309  0.1869
27388W        W47668   3.538   2.385   3.585 -0.1555 -0.0135 -0.5725
27389W        W47669  17.539   7.989  14.352  0.0797 -0.1690  0.1032
27390W        W47670   0.172   1.641  12.686 -0.2003 -0.2009  0.2109
27391W        W47671   4.818   8.940  11.271 -0.1644 -0.1101 -0.2827
27392W        W47672   1.080   8.041  15.781 -0.1700  0.1498  0.2287
27393W        W47673   9.201   8.615  13.280  0.0914 -0.2614 -0.0010
27394W        W47674   3.048   1.515   3.389 -0.0693 -0.0724 -0.0842
27395W        W47675   7.264   2.235   0.465  0.0987  0.2390 -0.0053
27396W        W47676   4.798  15.505  15.820  0.1939  0.0070  0.1007
27397W        W47677  10.231   7.535   0.208 -0.0047  0.1552  0.1313
27398W        W47678   5.947   2.697  12.393  0.0547 -0.3251  0.3145
27399W        W47679  12.254  12.991   0.230 -0.2815 -0.0251 -0.1678
27400W        W47680  13.063   3.101   1.379  0.2550 -0.1014  0.2591
27401W        W47681  17.837  15.034  14.798  0.0818  0.3076 -0.0622
27402W        W47682   5.198   5.081  13.260 -0.2053 -0.1075 -0.0895
27403W        W47683  12.267   1.920   4.393  0.2605  0.4284  0.2091
27404W        W47684   2.264   3.907   2.603 -0.2111 -0.1491 -0.1937
27405W        W47685  12.889   4.719   3.515 -0.0447  0.1258  0.2850
27406W        W47686  17.145   9.387   1.622  0.2707  0.0497 -0.0403
27407W        W47687   2.410  12.062   4.047  0.0504  0.0968  0.2744
27408W        W47688  11.694   6.991   1.033 -0.1058  0.3224 -0.0963
27409W        W47689   8.682  16.953   1.612  0.1318 -0.2091 -0.1325
27410W        W47690   0.715   9.712  13.084 -0.1813  0.2093  0.1921
27411W        W47691  10.552   4.727  14.252 -0.2353  0.3105  0.3303
27412W        W47692  11.172   1.881  12.507 -0.0056 -0.1418 -0.0912
27413W        W47693   4.967   6.011   1.840  0.0310  0.1608  0.0377
27414W        W47694   5.746   0.238  12.564  0.0324  0.0261  0.2568
27415W        W47695  11.993   4.537   3.760  0.1930 -0.0945 -0.0879
27416W        W47696   6.215  11.953  13.600 -0.0958 -0.0746 -0.0221
27417W        W47697  16.498  15.236   1.578  0.0501 -0.3753  0.2767
27418W        W47698   9.671   3.690   3.049 -0.0407  0.0022 -0.2309
27419W        W47699   9.070   1.698  13.800  0.4409  0.0443 -0.2916
27420W        W47700   3.021   1.301   1.981  0.2766 -0.1832  0.1273
27421W        W47701  16.351  12.640   2.371 -0.1272 -0.1268  0.0486
27422W        W47702   7.736  18.113   2.439 -0.1258 -0.0141 -0.0785
27423W        W47703  12.571   1.802   1.619 -0.0986  0.1657 -0.1380
27424W        W47704   1.192  14.528   4.235 -0.2227  0.3043  0.1277
27425W        W47705   7.228   7.918   0.951  0.1092 -0.0965 -0.1458
27426W        W47706  13.926   4.732   2.097  0.0997 -0.0965 -0.0619
27427W        W47707   0.716   9.787  14.429 -0.2902  0.0780 -0.1121
27428W        W47708   9.211   2.799   2.871  0.2082 -0.2303 -0.1139
27429W        W47709   9.655   9.655  12.315 -0.0544 -0.0198 -0.0310
27430W        W47710  15.147   9.448   3.612  0.2999  0.0016 -0.2741
27431W        W47711  15.010  11.709  14.018  0.0758 -0.0905  0.2005
27432W        W47712   6.083  10.016   4.179 -0.2145 -0.2149 -0.1551
27433W        W47713  13.467   6.696  15.254  0.1601  0.0265  0.2108
27434W        W47714  12.921  17.021  14.332  0.2047  0.0247 -0.0844
27435W        W47715   3.544   1.678  13.248 -0.2080 -0.1297  0.2556
27436W        W47716   2.038   8.645   3.214  0.2090 -0.0246  0.3309
27437W        W47717  15.917  16.318  12.877 -0.0026 -0.0907 -0.3234
27438W        W47718  11.079   6.101  13.022  0.0135 -0.1949 -0.0139
27439W        W47719   9.125   9.160  14.761  0.1881 -0.3430  0.1795
27440W        W47720  17.950   6.190  11.578 -0.1146  0.1809  0.0186
27441W        W47721  10.565   2.642  11.187  0.0263  0.0433  0.2201
27442W        W47722  17.137  12.775   1.832 -0.3074 -0.2826 -0.0280
27443W        W47723  10.161   3.033   4.025 -0.0369  0.0726 -0.0621
27444W        W47724  10.027   4.106   4.642  0.0431 -0.0414  0.3801
27445W        W47725  13.493   1.949   4.354 -0.3233 -0.1660 -0.2257
27446W        W47726  17.120   5.672   3.881  0.2230 -0.0673  0.0379
27447W        W47727   3.682  17.472  13.579 -0.1333 -0.0914 -0.0303
27448W        W47728   6.534   2.042   2.583 -0.2319 -0.1415  0.1005
27449W        W47729  15.849   7.917  13.801 -0.1929 -0.0787  0.0740
27450W        W47730   3.428  13.805   2.195 -0.1192  0.1848  0.1000
27451W        W47731  16.405  13.066   2.078  0.1169  0.0691  0.0886
27452W        W47732  17.394  16.028   4.733  0.1702 -0.1414  0.1487
27453W        W47733  16.751   8.069   2.013 -0.0606  0.1376  0.1756
27454W        W47734   9.893  10.332   1.317  0.1287 -0.1851 -0.0647
27455W        W47735   1.038  12.613  14.237 -0.2512  0.0874 -0.0763
27456W        W47736   9.131   6.769   4.589 -0.1209  0.1034 -0.0906
27457W        W47737   5.764   8.778   3.727 -0.0270 -0.1282 -0.0350
27458W        W47738   0.855   0.596  11.177 -0.2317  0.3018  0.1981
27459W        W47739   3.752   8.775  11.925 -0.0567 -0.1972 -0.0451
27460W        W47740   1.255  11.675   0.308  0.1880  0.1843  0.0329
27461W        W47741  15.991  18.094   3.627 -0.1628 -0.0667 -0.1876
27462W        W47742   2.190  12.561   4.095  0.0360 -0.0859  0.1002
27463W        W47743   1.848  17.888   2.157  0.2397 -0.1487  0.3102
27464W        W47744   7.536   9.621   3.389  0.2963  0.0670  0.3779
27465W        W47745   5.776  16.377  15.698  0.0967 -0.1553  0.1717
27466W        W47746  18.035   3.108  15.125 -0.1093  0.1488 -0.0729
27467W        W47747   1.072   4.499   3.218 -0.0197  0.0905 -0.3767
27468W        W47748   6.488   2.986   2.291 -0.0179 -0.2033 -0.1994
27469W        W47749   6.126  16.205   1.419  0.0933  0.1099 -0.1714
27470W        W47750   3.011  12.308   2.759 -0.1936  0.2837  0.1829
27471W        W47751   4.398  13.361   0.663 -0.2222  0.0684 -0.1254
27472W        W47752  16.051  15.583  13.760  0.0986 -0.0411  0.1933
27473W        W47753   4.043  16.465  15.289  0.1708  0.1847 -0.0444
27474W        W47754   0.268   6.948  12.465 -0.1182  0.2099  0.2873
27475W        W47755  14.935   4.643   0.386  0.0590  0.0269  0.1067
27476W        W47756   6.323   7.181   3.650  0.1750 -0.0064  0.1637
27477W        W47757   8.103  13.408   0.041  0.1462  0.1029  0.0548
27478W        W47758  15.512   2.869  12.549  0.1472 -0.3526 -0.1923
27479W        W47759  12.800  12.258  12.188  0.0628  0.0348  0.1345
27480W        W47760   1.836  13.123   3.259  0.0689  0.0805  0.3128
27481W        W47761   3.440  12.837   4.043 -0.0306  0.3339  0.0847
27482W        W47762  11.786  13.032   4.552 -0.0800  0.2684  0.1263
27483W        W47763  17.402   0.661  11.770  0.0654 -0.0587  0.0441
27484W        W47764  13.623  17.908   0.865  0.1376 -0.1279 -0.2416
27485W        W47765   6.095   5.120   2.342 -0.0306  0.2109 -0.2185
27486W        W47766   6.154   6.282  15.927 -0.1489  0.3783 -0.0151
27487W        W47767   2.919  15.704  15.900  0.0572  0.2479  0.0980
27488W        W47768   4.132   4.202  13.655  0.0400  0.1255 -0.1105
27489W        W47769  16.169   7.072  15.542  0.3175  0.1630 -0.1594
27490W        W47770  12.091   8.979  15.285 -0.0040  0.0561  0.0841
27491W        W47771   4.113   3.187  14.878 -0.3706 -0.2832  0.1705
27492W        W47772  11.437   0.128  12.432  0.0246 -0.4021  0.3215
27493W        W47773   6.532   6.481  13.543  0.3262 -0.4603  0.2086
27494W        W47774   4.733   5.542   0.935 -0.1301  0.0690 -0.1427
27495W        W47775  15.807   6.215  14.501  0.0457  0.3160 -0.2989
27496W        W47776  13.451  12.517   0.789  0.3848 -0.1003  0.1533
27497W        W47777  11.489  15.992   4.069 -0.2047  0.1164  0.1834
27498W        W47778  11.280  12.047  13.416  0.0871 -0.0180  0.1347
27499W        W47779  11.494  12.109   2.532  0.1326  0.1068 -0.1165
27500W        W47780  11.252  11.256  15.585  0.2633  0.2694 -0.1144
27501W        W47781  18.216  15.249  10.810  0.1187 -0.1213  0.2407
27502W        W47782  16.984  17.179  11.830  0.0124 -0.1024 -0.2215
27503W        W47783   3.343  13.140  14.910 -0.0009 -0.0603  0.1109
27504W        W47784  17.133  15.485   0.619 -0.1360  0.1682  0.1351
27505W        W47785  11.528  17.074  11.757 -0.3905 -0.1131  0.0543
27506W        W47786  10.188  14.587  13.836  0.1386 -0.0343  0.1302
27507W        W47787  14.269   7.342   2.045 -0.0343  0.0018 -0.3223
27508W        W47788  15.947   7.682   2.460  0.1896  0.1396  0.0992
27509W        W47789  14.406   2.571   3.036 -0.0096  0.0341 -0.0160
27510W        W47790   4.689  13.656  13.216 -0.0632  0.0227 -0.0606
27511W        W47791  12.495   1.601  12.823  0.1488 -0.0883 -0.0288
27512W        W47792   2.128  15.051   0.225  0.1098  0.0969 -0.2025
27513W        W47793  14.954  17.661  14.073  0.0758  0.1089 -0.0763
27514W        W47794   1.630  13.399  15.317 -0.1616 -0.3125 -0.1812
27515W        W47795   3.687   3.503  11.688 -0.1704  0.1002 -0.1540
27516W        W47796  16.899  14.122   3.062  0.2270 -0.2613 -0.4322
27517W        W47797  12.810  16.128  13.841 -0.3520  0.2474 -0.1014
27518W        W47798   5.306  12.316   1.488 -0.1895 -0.1244 -0.1889
27519W        W47799  11.091  10.739   4.304 -0.2341 -0.2362 -0.3152
27520W        W47800   8.975   4.302   0.615 -0.0309  0.1372  0.2230
27521W        W47801  12.571  13.586  12.285 -0.2153  0.1392 -0.3046
27522W        W47802   9.983   6.616   2.038  0.0715 -0.3500  0.0817
27523W        W47803   9.773  16.117   4.646 -0.3010  0.5020 -0.1440
27524W        W47804   9.480  10.055  14.914  0.1982 -0.0457 -0.1177
27525W        W47805   8.539  12.258   2.717  0.0704  0.1604 -0.1350
27526W        W47806  10.309   5.280  15.020  0.0013 -0.2023  0.3435
27527W        W47807  10.278   4.680  15.527  0.1892 -0.3265  0.1680
27528W        W47808  15.410  11.659   3.451  0.2825 -0.0648  0.3344
27529W        W47809  11.122   3.588   0.724 -0.1157  0.0696  0.2944
27530W        W47810   2.059  14.692  15.236 -0.2984 -0.0975  0.2551
27531W        W47811   2.174  16.559  13.561 -0.2339 -0.0328 -0.2239
27532W        W47812   0.128  15.809  13.388  0.1589 -0.0975 -0.1496
27533W        W47813  17.012  10.051  14.272  0.0638  0.3003  0.2203
27534W        W47814   3.905   6.856   0.172  0.1198 -0.1740  0.0941
27535W        W47815   2.288  10.715  15.623  0.0504  0.0080  0.2276
27536W        W47816  11.698   1.542   4.421 -0.0670 -0.3621  0.1049
27537W        W47817  14.086   1.171  11.818 -0.0242  0.2374 -0.0755
27538W        W47818   7.772  14.954  12.957  0.3025  0.0668 -0.0062
27539W        W47819  14.938  13.526   4.110 -0.2023 -0.0610  0.3324
27540W        W47820  15.853  15.045   0.409 -0.1278 -0.1501  0.0694
27541W        W47821   0.569  16.861   2.477  0.1251 -0.4693 -0.3049
27542W        W47822   3.456  16.680  14.525  0.3594  0.0775  0.2232
27543W        W47823  12.881   0.292   0.165  0.1704  0.3679  0.1937
27544W        W47824  17.888   8.398  12.653  0.2374 -0.0493 -0.2314
27545W        W47825   8.928   3.541  13.682  0.2080  0.1285 -0.3169
27546W        W47826   0.292   4.637   5.320  0.0859 -0.2777  0.0147
27547W        W47827   6.908   0.887  12.404  0.0952  0.2328  0.2063
27548W        W47828   5.399  13.275  15.634 -0.1916 -0.4052 -0.0363
27549W        W47829  13.170   9.890  15.455  0.1304 -0.2143  0.3700
27550W        W47830  17.794  14.737   1.810 -0.1249 -0.1120 -0.2941
27551W        W47831  12.849   1.205  13.047 -0.1602  0.1347 -0.1277
27552W        W47832   8.401   5.179  14.068 -0.0717 -0.2102 -0.1450
27553W        W47833  12.326   2.780   4.695  0.1875 -0.3049  0.0034
27554W        W47834  13.864   4.163   5.325  0.1388  0.1189 -0.2458
27555W        W47835  11.155   7.201   2.019 -0.0550 -0.2543 -0.0456
27556W        W47836  12.446   6.718   0.312  0.1729 -0.4926 -0.3058
27557W        W47837   7.871   4.518  11.717  0.2833  0.0832 -0.0532
27558W        W47838  17.939   7.751  14.688  0.1464 -0.2290  0.0264
27559W        W47839  15.754   5.223  15.282  0.0031  0.1833 -0.0424
27560W        W47840   0.394   1.262   0.501 -0.0860 -0.0306  0.0156
27561W        W47841  13.629   2.858   2.784 -0.3731 -0.0186  0.1517
27562W        W47842  17.618  13.017   0.650 -0.2094 -0.2170  0.2474
27563W        W47843   5.364   6.328   3.343  0.2604  0.0628  0.3268
27564W        W47844   9.078  15.432  14.890 -0.1826  0.1385 -0.1437
27565W        W47845  16.992   7.967  11.456 -0.1997  0.4554  0.0335
27566W        W47846  17.361   4.927   4.088  0.0322 -0.0182 -0.1672
27567W        W47847  17.164   2.449   1.940 -0.1296 -0.1124  0.0766
27568W        W47848  10.973  13.672   4.529  0.1919  0.0454 -0.0188
27569W        W47849   2.091   7.897   2.634 -0.1980 -0.2629  0.1262
27570W        W47850  13.953  18.319  14.576 -0.3505  0.1208 -0.0793
27571W        W47851   4.648  13.500   1.639  0.0355  0.0939  0.0027
27572W        W47852  10.081  16.183   2.902 -0.1570  0.2181  0.1141
27573W        W47853   7.278   1.508   0.967 -0.1153 -0.0677 -0.4863
27574W        W47854  14.027  17.470  12.639 -0.2648 -0.1411 -0.0867
27575W        W47855   1.061   4.241  13.531 -0.1444  0.3622  0.0446
27576W        W47856   9.849   8.677  11.780  0.1335  0.0131 -0.3149
27577W        W47857   7.668   0.737   0.648  0.0453 -0.2711  0.1128
27578W        W47858   7.347   5.096   2.965  0.0612  0.2781  0.1231
27579W        W47859  15.361   7.616   3.185  0.1166  0.1962  0.0386
27580W        W47860   6.040  12.881   3.557 -0.1014  0.0723 -0.1429
27581W        W47861  13.095   5.876   1.063  0.0109  0.0245 -0.1910
27582W        W47862   2.139  14.297  12.000 -0.1345 -0.1442  0.1591
27583W        W47863  16.355  12.720   4.656 -0.0138 -0.2924  0.0355
27584W        W47864  17.739  14.089   3.705 -0.0588 -0.0980  0.3416
27585W        W47865   1.418  15.326  15.552  0.2592 -0.2354  0.0345
27586W        W47866  15.493  18.191   4.485 -0.0266  0.3680 -0.0082
27587W        W47867   8.506   4.107  15.601 -0.0196  0.0629  0.1533
27588W        W47868  11.507  10.459   4.940  0.1264  0.0147 -0.1758
27589W        W47869  13.730  16.702   3.910  0.0849  0.3313 -0.0655
27590W        W47870   8.685   8.579  13.544 -0.3648 -0.2448 -0.3653
27591W        W47871  14.448   2.251  15.631  0.0932 -0.0623 -0.2923
27592W        W47872   8.858  11.258   3.672 -0.1292 -0.0955  0.1303
27593W        W47873   4.482  12.844  15.368 -0.1592  0.2338 -0.1793
27594W        W47874   2.961   3.464  13.933 -0.0653 -0.4103 -0.1716
27595W        W47875   2.913  17.237   3.799  0.1290  0.0084  0.1591
27596W        W47876  13.001   0.139  11.347 -0.1472 -0.0352 -0.2746
27597W        W47877   7.898   8.593   5.737  0.3436  0.0834 -0.1100
27598W        W47878   7.203  13.531   3.791 -0.3319  0.4220 -0.0894
27599W        W47879  16.755   2.868  11.801  0.0642  0.6254  0.0466
27600W        W47880   9.847  11.749  13.020 -0.2124  0.3769  0.2382
27601W        W47881  16.149   5.255  13.889  0.1639 -0.0990 -0.1204
27602W        W47882   6.087  11.260  15.830 -0.0189 -0.4143  0.2526
27603W        W47883   9.140   0.594   1.600  0.0701 -0.1411 -0.0561
27604W        W47884  16.235  12.922  13.777 -0.3348  0.0236 -0.0234
27605W        W47885   4.156   0.698  13.856 -0.2882  0.3667  0.0594
27606W        W47886   1.822  16.863  13.980  0.3148 -0.1782  0.1177
27607W        W47887  17.900  15.895   1.398  0.0097 -0.1716 -0.0410
27608W        W47888  11.723   3.221   0.780 -0.2723  0.0453  0.2382
27609W        W47889   9.542   3.608  15.025  0.0423  0.1964  0.3225
27610W        W47890   5.569   3.484  12.617  0.1280 -0.0435  0.0364
27611W        W47891   7.600  10.694  12.040  0.1101  0.2396 -0.0318
27612W        W47892   0.432  17.262   1.127  0.3511 -0.0530  0.4035
27613W        W47893   8.897  15.931  12.199  0.0107  0.0214 -0.1859
27614W        W47894  17.416   3.926  11.924 -0.3308  0.3296  0.2124
27615W        W47895   9.297   8.029   3.300  0.1942 -0.2495  0.1887
27616W        W47896   1.145   7.329   0.609  0.0032 -0.1395 -0.0264
27617W        W47897   6.773   6.032  13.455  0.0530  0.3024 -0.1439
27618W        W47898   0.840   1.047   4.337 -0.0245 -0.1101 -0.1664
27619W        W47899  12.718  10.904   0.686  0.1322  0.0439  0.0695
27620W        W47900  13.766  14.555   0.555 -0.1756 -0.0562 -0.0779
27621W        W47901   0.069   2.714  15.044  0.0901  0.2017 -0.1246
27622W        W47902  11.186   7.715   1.960  0.4059  0.0889  0.1001
27623W        W47903  17.055  11.903   3.445  0.0497 -0.0085 -0.1539
27624W        W47904   0.010  17.368  12.483 -0.0681  0.0842 -0.0686
27625W        W47905  12.846  14.612   0.818 -0.2476 -0.0581 -0.1792
27626W        W47906   4.704   1.084  15.847 -0.1599 -0.1536 -0.1492
27627W        W47907   5.077  16.293  15.420  0.1855  0.2006 -0.0920
27628W        W47908   4.556   7.440   4.162 -0.2085 -0.0354 -0.1948
27629W        W47909   4.958   8.950  15.371 -0.0822  0.0856 -0.1070
27630W        W47910  17.345   8.762   0.974 -0.1230 -0.0018  0.0411
27631W        W47911  14.451   8.855  11.325  0.1735 -0.1186  0.0311
27632W        W47912   7.975   0.028   3.233  0.1347 -0.2563 -0.1219
27633W        W47913  13.948  11.701   3.289 -0.1674 -0.0036 -0.2709
27634W        W47914   4.365  13.835   2.483 -0.0769 -0.2486 -0.2501
27635W        W47915   1.730  15.433   4.177  0.1135  0.1140 -0.1509
27636W        W47916   9.813   2.019   3.171 -0.1344  0.0747 -0.2888
27637W        W47917   6.232   0.422  14.701 -0.2410 -0.0080 -0.0660
27638W        W47918   2.223  15.357   1.885 -0.0229 -0.2685 -0.1121
27639W        W47919   2.336   2.496   1.390 -0.0724 -0.1416  0.2629
27640W        W47920  15.320   1.981  13.684 -0.4076 -0.2110  0.0780
27641W        W47921   3.921   5.018   1.721  0.1459  0.1384 -0.1231
27642W        W47922   6.139   8.821  15.720 -0.2932  0.0852 -0.0311
27643W        W47923  16.503   6.257   1.748  0.4645  0.2623 -0.1498
27644W        W47924   0.477  10.804   2.503 -0.0039 -0.1195 -0.0481
27645W        W47925  11.363  15.211   2.372 -0.0603  0.0316 -0.0134
27646W        W47926  11.718   7.626   1.732  0.2155  0.1182 -0.0340
27647W        W47927   1.754  14.394  11.761 -0.2826  0.1292  0.1808
27648W        W47928   0.973   0.485   3.058  0.0440  0.1590 -0.0361
27649W        W47929  10.372  14.218  15.083 -0.0453  0.1337 -0.2354
27650W        W47930   3.367   7.625   4.435  0.3019 -0.1256 -0.1964
27651W        W47931  17.904  13.072   3.510 -0.3850  0.0406  0.3650
27652W        W47932   5.071   5.536  15.167 -0.1737  0.0294 -0.0085
27653W        W47933  15.036   0.234  11.952  0.3366  0.1263 -0.1295
27654W        W47934   0.338  11.117  13.358  0.3649 -0.4241 -0.1118
27655W        W47935   5.263  18.007  11.649 -0.0875  0.1677  0.2824
27656W        W47936  16.785   1.571   0.056 -0.0926  0.0931  0.0814
27657W        W47937   4.910  12.935  12.277 -0.1969  0.2201  0.3190
27658W        W47938   6.861   5.930  12.542  0.0936 -0.0988  0.0343
27659W        W47939   4.457  14.629  14.083  0.0445 -0.2699  0.2816
27660W        W47940   9.277   4.259  12.827 -0.1744 -0.0077 -0.0983
27661W        W47941   1.855  16.240   3.079 -0.2654  0.0649  0.3059
27662W        W47942   9.677   5.920  15.281  0.0140  0.0626 -0.5233
27663W        W47943   6.363   3.077  15.049 -0.1397  0.0029  0.0539
27664W        W47944   9.460   8.254  11.888  0.1291  0.0271 -0.0799
27665W        W47945   4.050   1.128  12.401  0.1156  0.1651 -0.0992
27666W        W47946   8.397   6.602  12.146 -0.3877 -0.0911 -0.0803
27667W        W47947   9.445   9.521  15.111 -0.0601 -0.1310  0.1360
27668W        W47948   0.269   8.994  14.517 -0.1839 -0.0335 -0.0129
27669W        W47949  14.690   3.717  11.867 -0.0577  0.0376  0.3213
27670W        W47950  10.670  17.269   4.313 -0.0098 -0.0448 -0.0471
27671W        W47951  13.880  10.666   4.375  0.2937 -0.0443  0.2202
27672W        W47952   9.529  15.164   4.307 -0.0157 -0.0399 -0.0417
27673W        W47953   3.454   7.542  15.380  0.0710 -0.2732  0.1221
27674W        W47954  11.560  15.309   4.801  0.1453  0.0729  0.0165
27675W        W47955  15.446   0.183   0.881 -0.1131  0.1933 -0.2747
27676W        W47956   4.061   1.953   2.547 -0.0057  0.1814 -0.0200
27677W        W47957   6.592   6.695  14.192 -0.1000 -0.1566 -0.1907
27678W        W47958  14.430   7.964  12.631  0.2115  0.1752  0.1987
27679W        W47959   1.151  17.904  14.711  0.1301 -0.1006  0.0747
27680W        W47960   1.280   3.782   1.250  0.2160 -0.0005 -0.2376
27681W        W47961  11.784   4.939  14.552  0.1782 -0.0038 -0.0801
27682W        W47962  15.612  16.216  15.043 -0.0324  0.0035  0.0082
27683W        W47963  15.880   3.873   0.732 -0.3776 -0.1221 -0.1310
27684W        W47964   5.534  17.249   2.241 -0.2652 -0.1413  0.0121
27685W        W47965   4.677   1.893  15.833 -0.1783 -0.3022  0.4314
27686W        W47966   6.863  15.964  15.410 -0.1479  0.1123  0.0898
27687W        W47967  10.227  10.693   4.467 -0.1287  0.1461  0.0032
27688W        W47968   3.091   0.031  14.102  0.0711  0.3875 -0.0602
27689W        W47969   6.320   8.917   3.602  0.1810  0.1277  0.2028
27690W        W47970   9.502   7.078  15.904  0.1476 -0.0134 -0.1098
27691W        W47971  10.512  11.094  11.435 -0.2032 -0.1741 -0.0994
27692W        W47972  17.038  13.517  15.462 -0.1950  0.3378  0.3060
27693W        W47973   7.642  15.389  15.362  0.2395 -0.0304  0.3078
27694W        W47974   0.948   4.424  15.250 -0.0599  0.0373  0.0145
27695W        W47975   5.068  16.128  12.470  0.0061 -0.0145 -0.2214
27696W        W47976   8.518   0.960   0.081  0.1630  0.3798 -0.1004
27697W        W47977  11.569  15.052  12.618  0.0197 -0.0260 -0.0391
27698W        W47978  16.707  13.025  11.747 -0.1239 -0.1249  0.1374
27699W        W47979   1.500   8.885  13.047  0.1163 -0.1873  0.1316
27700W        W47980  16.911   9.171   1.998  0.0198 -0.0337 -0.0786
27701W        W47981   7.842  10.408  13.833  0.0136  0.0597  0.3665
27702W        W47982  11.225  13.881   1.262  0.1617  0.0688 -0.2024
27703W        W47983   4.373  16.879  13.359  0.0891 -0.1879  0.1294
27704W        W47984   9.439   5.243  13.020  0.2790  0.0930  0.0704
27705W        W47985   5.871  17.843  12.269 -0.0889 -0.1789 -0.2234
27706W        W47986   7.764  17.518   0.274 -0.2934 -0.0894  0.0707
27707W        W47987  15.031   2.624  14.838  0.0841 -0.0002  0.0557
27708W        W47988  10.208  10.976  15.535  0.1085 -0.2074  0.0630
27709W        W47989   6.932  16.951   2.553 -0.0960  0.0279  0.0440
27710W        W47990  10.636   3.954  11.689  0.0176  0.1122 -0.4251
27711W        W47991   1.228  13.177  12.274  0.1754 -0.1189 -0.4176
27712W        W47992  17.595  14.915  12.282  0.1488  0.1181  0.0619
27713W        W47993  13.791  11.877  13.264 -0.1369  0.0285  0.1412
27714W        W47994  16.538   2.263   3.066  0.0187  0.2107 -0.2972
27715W        W47995  13.730  12.670   3.402 -0.3644  0.3850  0.0210
27716W        W47996   2.923   8.310  15.184  0.0562  0.0869 -0.2630
27717W        W47997  15.065  13.406  13.474  0.1015 -0.0840  0.1664
27718W        W47998  15.500  13.570   4.119  0.2393  0.0477  0.1057
27719W        W47999   8.617   0.199  12.595 -0.0168  0.0623 -0.1825
27720W        W48000   3.504  17.633  14.376 -0.2491 -0.0806  0.0410
27721W        W48001   7.952   6.910   1.439  0.1320 -0.0101 -0.0116
27722W        W48002   9.798   9.796   1.236  0.1221 -0.0535  0.1218
27723W        W48003  11.214  11.306   2.085 -0.0722 -0.0410  0.0104
27724W        W48004   7.507   1.156   4.417 -0.0025 -0.2962 -0.3585
27725W        W48005  12.916   6.675   1.458  0.2400  0.3984  0.0657
27726W        W48006   4.428   6.392   3.841 -0.1669 -0.2531  0.0528
27727W        W48007  13.120  16.968  11.656  0.0183  0.3648  0.0307
27728W        W48008  10.426  11.707   2.361  0.0256  0.2364 -0.1368
27729W        W48009  16.560  10.557   5.124 -0.1213  0.2494 -0.0473
27730W        W48010  17.989   0.771   2.425  0.1033 -0.1528 -0.0438
27731W        W48011   6.401   7.161   4.156 -0.0632  0.1512  0.0086
27732W        W48012  10.668   9.377  13.812  0.0219 -0.0654  0.1048
27733W        W48013  10.331  16.669   1.484 -0.3262  0.0876 -0.1265
27734W        W48014  10.716   2.662   0.192 -0.1988  0.0363  0.0415
27735W        W48015  13.780  14.215  15.833 -0.3517 -0.3055 -0.1742
27736W        W48016  14.538   6.251  14.756 -0.0486 -0.2982 -0.1676
27737W        W48017  12.634  18.151   0.212  0.1410 -0.0988 -0.5569
27738W        W48018   4.593  12.393   2.618  0.1404 -0.0151  0.0353
27739W        W48019  17.674   6.580   2.325 -0.1838  0.0439 -0.0638
27740W        W48020  12.856  15.486   3.860 -0.1092  0.0776  0.0588
27741W        W48021   2.220   2.446  12.772 -0.1272  0.0986  0.3773
27742W        W48022  10.511   9.216   2.157  0.3469  0.2240 -0.1745
27743W        W48023   2.682   8.732  14.425 -0.0254 -0.1927  0.0552
27744W        W48024   0.168   9.737   1.273  0.0407 -0.0650  0.2817
27745W        W48025   2.759   5.032   1.334  0.3170 -0.3540  0.0905
27746W        W48026  10.933  11.085   1.600 -0.0302 -0.1711  0.0209
27747W        W48027  15.563   8.355  11.509  0.3460 -0.0772 -0.0102
27748W        W48028   7.295   0.766  12.073  0.1033  0.2079 -0.0846
27749W        W48029   9.583   4.272   4.292  0.0590 -0.3974 -0.2010
27750W        W48030  15.170   0.513   2.713  0.1002 -0.0010  0.0118
27751W        W48031   7.572  11.845   4.556 -0.3189 -0.0816 -0.1877
27752W        W48032   9.455   8.493   4.067  0.0344  0.0448 -0.1197
27753W        W48033  17.623  18.320   0.029  0.1518 -0.2499  0.1179
27754W        W48034  14.076   0.297  12.198  0.0931 -0.2293 -0.1879
27755W        W48035  13.928  11.120   5.223  0.1289 -0.0223 -0.1115
27756W        W48036   5.834  14.756  15.499  0.1740  0.5818 -0.0990
27757W        W48037   6.632   8.695  13.851  0.1836  0.1579  0.1650
27758W        W48038  10.096  14.093   2.135  0.1866  0.0139  0.0806
27759W        W48039  11.596   3.286  15.872  0.0288  0.1243  0.2074
27760W        W48040   7.044   8.867   5.117 -0.2675 -0.2406  0.0997
27761W        W48041  10.348   6.080   0.497 -0.0637 -0.0610 -0.4602
27762W        W48042  14.111  15.390   0.620 -0.2158 -0.1490 -0.4498
27763W        W48043  15.643   1.549   2.781  0.4023 -0.1352  0.1326
27764W        W48044  17.363   6.655   3.273 -0.3980 -0.0669  0.1705
27765W        W48045  10.474  16.299   2.493 -0.4741 -0.1328  0.2895
27766W        W48046  15.135  13.756  13.004 -0.0671 -0.2181 -0.1148
27767W        W48047  10.127   3.834   3.480  0.3453 -0.2305 -0.0590
27768W        W48048   6.495   6.769   3.364 -0.1649 -0.3835 -0.2690
27769W        W48049  17.399  15.990  11.339 -0.0415 -0.0807 -0.2750
27770W        W48050  12.743   3.398   3.771 -0.0836  0.1650  0.1371
27771W        W48051   5.736   3.656  14.083  0.1486  0.2399  0.3471
27772W        W48052  10.120   1.007  13.104  0.1003 -0.4448  0.1003
27773W        W48053   2.599  17.972   2.182  0.0900  0.2745 -0.3757
27774W        W48054   6.442  15.335  11.577 -0.1712 -0.0271  0.0416
27775W        W48055  14.243  11.556   2.905 -0.0093 -0.0590 -0.1436
27776W        W48056   9.291   5.413  14.484 -0.0046  0.1251  0.1442
27777W        W48057  16.728   0.563  13.258  0.1630  0.0583  0.2016
27778W        W48058  17.623   1.277  14.251  0.1341  0.3839 -0.0142
27779W        W48059  12.385  11.603  11.709  0.2884  0.0238 -0.0305
27780W        W48060  15.855   1.133   2.914  0.2538 -0.1750  0.0422
27781W        W48061   5.257   2.001  12.248 -0.0635  0.3015  0.0301
27782W        W48062  10.330  13.986   3.256 -0.2162 -0.2165  0.1445
27783W        W48063   3.625   3.265  15.904  0.0411  0.0303  0.0789
27784W        W48064   8.302   5.726   2.645 -0.2594 -0.2407  0.1332
27785W        W48065   2.986  13.530   4.880  0.0565  0.0439 -0.0511
27786W        W48066   5.444  13.935   3.692  0.3375  0.0829  0.3038
27787W        W48067   1.553  11.899  15.380  0.0122 -0.1266 -0.0491
27788W        W48068   2.002  13.011  11.697 -0.0754 -0.2592  0.0080
27789W        W48069  15.878  10.218  13.473  0.0906 -0.1621  0.2827
27790W        W48070  15.935   0.852  11.398  0.2090 -0.0581 -0.3872
27791W        W48071   3.460  14.176   3.000 -0.0101  0.1097  0.1644
27792W        W48072   9.616  10.028   4.508 -0.1864 -0.1957  0.0959
27793W        W48073   3.428  13.169  11.768  0.0717  0.1892 -0.0895
27794W        W48074  12.684  17.389  14.683 -0.0490 -0.0989 -0.1039
27795W        W48075  12.546   5.742   4.192  0.3269  0.0007 -0.0126
27796W        W48076  13.219   6.473   2.543  0.0105  0.3294  0.1241
27797W        W48077   0.419  13.066   3.575 -0.2644  0.1959 -0.1662
27798W        W48078   7.899   8.000   4.475  0.1525  0.0337 -0.0875
27799W        W48079   6.091   9.967  14.079  0.1796 -0.0037 -0.1422
27800W        W48080   9.241  12.404  13.410  0.2681 -0.0382  0.1973
27801W        W48081   5.558  10.851   2.907  0.5313 -0.1043 -0.0524
27802W        W48082   8.691   8.451   2.809 -0.1757 -0.2123  0.1288
27803W        W48083  12.553  15.066  10.925  0.1353 -0.3162 -0.1266
27804W        W48084   3.133  10.071   0.092  0.0829  0.3556  0.0988
27805W        W48085  17.734   0.309  11.484  0.1551 -0.1193  0.1505
27806W        W48086  10.119   1.641  14.086  0.0222 -0.5085  0.0984
27807W        W48087   6.506   1.882  12.987  0.1528  0.0672  0.0231
27808W        W48088   0.670   4.852   3.054  0.0637  0.1627  0.0736
27809W        W48089   6.369  14.643  12.795 -0.1297  0.1627 -0.3488
27810W        W48090  15.094   4.635   4.045 -0.0485  0.2390  0.0764
27811W        W48091  13.971   1.757  13.463 -0.0652  0.0853 -0.0250
27812W        W48092  15.339   2.156  15.700 -0.1228 -0.1823  0.0818
27813W        W48093  14.875  10.438   3.206  0.0007 -0.4279  0.1346
27814W        W48094   9.770  17.200  13.498  0.1163 -0.2695 -0.2881
27815W        W48095   4.533  15.689   3.705  0.1207 -0.0745 -0.0799
27816W        W48096   3.379  17.842  13.721 -0.1032 -0.1018 -0.0648
27817W        W48097   2.951  11.010   0.445  0.0528 -0.3213 -0.1466
27818W        W48098   3.785  13.274  12.724 -0.1164 -0.1679 -0.1596
27819W        W48099  18.187   1.000   2.919 -0.2182 -0.0804  0.1376
27820W        W48100   5.249   2.811  11.604  0.2743  0.1941  0.3823
27821W        W48101  10.658  18.099   3.567 -0.2170 -0.1058  0.0579
27822W        W48102  13.010  18.232  11.843 -0.0057 -0.2644  0.3922
27823W        W48103  17.880   7.111   3.146 -0.2582 -0.0348  0.0784
27824W        W48104  14.315   3.323  11.864 -0.1784  0.2042  0.0855
27825W        W48105   9.295  13.512   3.931  0.0023  0.1947  0.0693
27826W        W48106  13.859   0.887  13.135 -0.0149 -0.2979 -0.0306
27827W        W48107  15.579   5.919   2.562 -0.1700 -0.4424  0.2056
27828W        W48108  13.040  17.717  15.861  0.2860  0.1979  0.1600
27829W        W48109   9.628   0.182  15.655 -0.2436 -0.1023  0.0294
27830W        W48110  12.456  10.294   3.240 -0.0211 -0.2319  0.0582
27831W        W48111   8.909  17.115   2.765  0.0020 -0.1447  0.0892
27832W        W48112  13.396   7.252  14.086  0.0108 -0.5292 -0.0043
27833W        W48113   8.678   8.065  13.917  0.2736 -0.2851 -0.0362
27834W        W48114  10.691  18.200   3.006  0.3951  0.1154 -0.1852
27835W        W48115  13.408   8.936  15.269  0.1638  0.0750  0.0943
27836W        W48116  16.897  16.929   2.513 -0.1645 -0.3429  0.0347
27837W        W48117  15.852  12.899  13.262  0.0089 -0.1024 -0.0153
27838W        W48118   6.612   1.453  13.268  0.2656  0.2321 -0.1147
27839W        W48119   7.304   4.531  15.704  0.0685 -0.1506 -0.2902
27840W        W48120   7.092   8.951  11.503 -0.2028 -0.0554  0.2140
27841W        W48121  14.742   3.926   1.561 -0.1916  0.0520 -0.0387
27842W        W48122  10.692   8.791  11.607 -0.3189  0.0945 -0.0720
27843W        W48123   6.826  11.337  12.088  0.2070  0.2230  0.1798
27844W        W48124   0.809   8.568   1.236  0.0460  0.0084  0.1049
27845W        W48125  17.810  11.521  14.100 -0.1276 -0.1158  0.0648
27846W        W48126   7.007  18.056   3.647 -0.0474 -0.1177 -0.0187
27847W        W48127  18.013  13.459   4.574  0.0032  0.1681 -0.1015
27848W        W48128  18.168  10.160   5.053  0.2103  0.1035 -0.1498
27849W        W48129   8.873   0.824   2.099 -0.2702 -0.4045 -0.0323
27850W        W48130  13.983   2.954  11.535  0.1840 -0.3347 -0.1522
27851W        W48131  13.029   1.110  12.016 -0.0535  0.0312 -0.0640
27852W        W48132  12.698  18.279   1.306 -0.0889 -0.1361  0.2096
27853W        W48133   7.190   4.267  15.247  0.0084  0.2123 -0.1074
27854W        W48134   7.627  16.386   3.910 -0.3936 -0.2321 -0.0605
27855W        W48135   4.417  10.111   1.708 -0.0826 -0.0667  0.1766
27856W        W48136   8.147   0.938   0.704  0.3499 -0.1107  0.0056
27857W        W48137  13.711   8.793  12.527  0.2001 -0.0350  0.2444
27858W        W48138   6.552   7.462  13.894 -0.0673  0.2785  0.1698
27859W        W48139   8.247  10.247   0.712  0.1100 -0.1890 -0.2178
27860W        W48140  18.115  10.885   4.358 -0.1848 -0.2602  0.0598
27861W        W48141  15.846   9.402  14.184 -0.2003 -0.0437  0.0006
27862W        W48142   8.012  14.283  14.772  0.2155 -0.0489 -0.0512
27863W        W48143  14.518   6.502   3.204  0.0321 -0.2350  0.1578
27864W        W48144  10.576   6.894  15.385 -0.0264  0.0961  0.2525
27865W        W48145   9.471   8.527  11.472 -0.2533  0.2543  0.1542
27866W        W48146  12.806   0.483  12.677 -0.1121  0.0063 -0.0290
27867W        W48147  15.938   2.410  15.206  0.0624 -0.2301  0.4233
27868W        W48148   5.735  17.250   4.001 -0.2023  0.1322  0.0545
27869W        W48149   0.753  18.056  12.527  0.1713 -0.1868  0.2287
27870W        W48150  18.333   7.938  15.552 -0.3238  0.1135  0.1046
27871W        W48151   8.841   1.480  13.440 -0.2146 -0.1171  0.1463
27872W        W48152  16.293   2.660   3.952  0.2806 -0.2585 -0.0607
27873W        W48153   9.580  16.888   2.033 -0.1676  0.3209  0.1444
27874W        W48154   1.147   1.976  15.463 -0.2069 -0.1458  0.1086
27875W        W48155  17.731  15.340   2.664  0.1005  0.0131 -0.2054
27876W        W48156  11.392   1.318  14.292 -0.2322 -0.0406 -0.2510
27877W        W48157   0.211   2.973  14.624  0.1969  0.1150 -0.0338
27878W        W48158   3.756   0.021   1.440  0.0648 -0.1760 -0.2010
27879W        W48159   3.683   2.586   4.063  0.2769  0.0759 -0.1631
27880W        W48160   4.024  15.311  14.569 -0.0452  0.2098  0.1354
27881W        W48161   9.966   5.983  12.926 -0.2268  0.1163 -0.0416
27882W        W48162  17.358   8.217   3.799  0.2188 -0.2236  0.1745
27883W        W48163   0.498   2.674  11.928 -0.1680  0.1060  0.2386
27884W        W48164  10.583  13.138  13.360  0.0395 -0.1378 -0.0618
27885W        W48165  15.876   6.648  14.718  0.0899  0.0630  0.0487
27886W        W48166   1.158   3.989  12.203  0.0369  0.0461 -0.3469
27887W        W48167   1.926  16.975  11.706  0.1927 -0.0892  0.1648
27888W        W48168   5.360   2.256  14.278 -0.1597 -0.1496  0.2879
27889W        W48169   1.157   9.323   4.081  0.0271  0.1084  0.0457
27890W        W48170  10.952  11.892   3.282  0.0227 -0.0491  0.2881
27891W        W48171   4.421   9.306  12.334  0.0622 -0.0608  0.3770
27892W        W48172   8.092   1.571   2.038  0.2009 -0.1571  0.3026
27893W        W48173   0.208  16.388   4.030  0.2408  0.1762  0.2228
27894W        W48174  12.101   0.954  12.122  0.0200  0.1335 -0.2477
27895W        W48175  12.619   7.901   4.303  0.0196 -0.0539  0.0520
27896W        W48176  11.289   1.041  12.494 -0.0529  0.0001 -0.1372
27897W        W48177   6.670  15.360  15.922  0.0611 -0.2125  0.0223
27898W        W48178   3.167   1.682   2.254  0.0787 -0.3021 -0.1606
27899W        W48179   3.220  10.078  13.471  0.1322  0.0546 -0.0382
27900W        W48180   7.768  10.318   0.304 -0.0610 -0.4409 -0.1439
27901W        W48181   2.950   8.257   3.137 -0.0988 -0.0208 -0.0518
27902W        W48182   9.960  13.852  11.898 -0.2893  0.0432  0.0933
27903W        W48183   8.692   4.188  13.159 -0.1000  0.1607  0.1295
27904W        W48184   9.941  12.533  11.597  0.1188 -0.2186  0.0837
27905W        W48185   3.641   3.789  15.901 -0.1168  0.1958  0.0029
27906W        W48186  11.513   4.903  12.274  0.1938  0.2277 -0.0082
27907W        W48187   9.591  11.034   3.041  0.3485 -0.0801  0.4319
27908W        W48188   5.807   7.506   5.381 -0.1973 -0.1668  0.0935
27909W        W48189   3.793  11.998  14.010 -0.0349 -0.0723  0.2076
27910W        W48190   8.301   1.309   0.352  0.1329  0.2251  0.2551
27911W        W48191  15.161   4.214  15.104 -0.0447 -0.1282 -0.0567
27912W        W48192  14.788   2.445   2.253  0.5547 -0.0180 -0.0545
27913W        W48193  13.704   8.839   4.258  0.3938 -0.2021 -0.0471
27914W        W48194   3.280  10.674   4.018  0.1733 -0.0396  0.0614
27915W        W48195   3.347  12.690  11.914 -0.1494  0.1098 -0.2181
27916W        W48196   0.066   6.529   3.414  0.0363 -0.0029  0.0252
27917W        W48197   4.583   9.234   3.779 -0.1364  0.0148 -0.1623
27918W        W48198  17.325   9.569   4.289 -0.0357  0.0506  0.1847
27919W        W48199  11.341   4.555   3.587  0.2937 -0.1552  0.0555
27920W        W48200  15.680  17.304   3.731  0.2968  0.1124 -0.1201
27921W        W48201   1.948   1.103  15.693 -0.1698 -0.2737 -0.4403
27922W        W48202  13.313   1.654  11.459 -0.2681  0.0405 -0.1879
27923W        W48203   3.199  17.089  11.774 -0.2936 -0.0583  0.2962
27924W        W48204   9.132  16.667   0.771  0.0151  0.1787  0.1375
27925W        W48205  11.205  11.349   3.183  0.2204  0.2026  0.0117
27926W        W48206   7.240   0.643   3.572 -0.1072 -0.2297 -0.3208
27927W        W48207   3.062  15.530  13.664 -0.1434  0.0881  0.0626
27928W        W48208   4.260  13.757   3.122  0.1185 -0.1459 -0.1805
27929W        W48209  17.043   4.422   0.311  0.1838 -0.2082  0.0370
27930W        W48210   9.287   4.889  12.284 -0.1936 -0.2885  0.1315
27931W        W48211   1.926   3.729   0.688  0.1369  0.0877  0.0056
27932W        W48212  11.765   5.684   1.747  0.0133  0.2791  0.1200
27933W        W48213  17.391  15.389  14.006  0.1640 -0.0473 -0.0426
27934W        W48214   1.595  13.522   0.862 -0.2845  0.0800 -0.0820
27935W        W48215  11.552   6.282   1.262  0.1639 -0.0015 -0.3081
27936W        W48216  14.758   7.801   4.309 -0.1267 -0.1548 -0.0796
27937W        W48217   2.080   7.689   0.137  0.0859  0.0488 -0.0220
27938W        W48218  17.535   7.029   0.059  0.2026  0.0509  0.2188
27939W        W48219   6.982   6.943   0.233  0.1375  0.0153  0.1078
27940W        W48220   0.449   3.979  11.967  0.1024 -0.0415 -0.0778
27941W        W48221   0.990  14.198  12.356  0.0435  0.2136 -0.3431
27942W        W48222  14.936   9.991   4.728  0.1340  0.2996  0.0321
27943W        W48223  11.709   8.248  15.561  0.1523  0.3862  0.1617
27944W        W48224  12.739   3.325   2.797  0.0415  0.4446 -0.0903
27945W        W48225   1.246  16.486   2.088 -0.0383  0.1413  0.1319
27946W        W48226  17.977   6.832   1.860 -0.0479 -0.0299  0.1083
27947W        W48227   4.580   2.851  14.782 -0.3292 -0.1480  0.1839
27948W        W48228   2.037   9.998   1.148  0.1417 -0.0211 -0.1956
27949W        W48229  14.058   3.242  12.341  0.1009 -0.0550  0.0630
27950W        W48230   7.887  12.068  11.865  0.2744 -0.2993 -0.3441
27951W        W48231  10.380   1.974   4.395 -0.1845  0.1632 -0.0989
27952W        W48232  17.273   3.217   2.092  0.1714 -0.0203 -0.1405
27953W        W48233   9.442   3.733   1.027 -0.0352 -0.2584  0.2645
27954W        W48234  16.841   5.150  14.322 -0.2845 -0.2329 -0.0670
27955W        W48235  12.055  12.330  12.832  0.2688 -0.3976  0.3684
27956W        W48236   2.192  15.734  13.396 -0.0851 -0.2067  0.0580
27957W        W48237   5.602   2.429   0.836  0.2198 -0.0902 -0.0042
27958W        W48238  11.411   4.215   4.523  0.2155  0.0409 -0.0683
27959W        W48239   2.499  13.051   0.362  0.0856  0.2184 -0.0899
27960W        W48240  11.206  12.265  14.267  0.0102  0.0285 -0.0452
27961W        W48241   8.131   1.786   0.436 -0.0858  0.1219 -0.1090
27962W        W48242   6.076   2.368   0.811 -0.0765  0.2209  0.0110
27963W        W48243   2.358   2.431  15.020 -0.1921  0.0062 -0.3660
27964W        W48244   3.093  12.633   4.364  0.1103  0.2829  0.1721
27965W        W48245   6.781   5.471   3.479 -0.0742 -0.3787 -0.0365
27966W        W48246   9.125   7.991  11.352  0.0251 -0.0348 -0.0153
27967W        W48247   5.956  15.121  13.281 -0.2626 -0.1089 -0.1206
27968W        W48248   6.706   1.710   4.845  0.2663  0.1991 -0.0042
27969W        W48249   8.555   7.979   2.498  0.1030  0.0252 -0.0516
27970W        W48250  10.077   3.449   2.957  0.0040 -0.1396  0.0258
27971W        W48251   4.706  11.779   4.693  0.0814  0.4364 -0.0036
27972W        W48252  13.050   3.511  15.145 -0.0428 -0.1031  0.0509
27973W        W48253  18.039   6.918  12.457  0.0859 -0.2277  0.0157
27974W        W48254  18.070   2.532   0.526 -0.0186  0.2715 -0.0248
27975W        W48255  16.021  17.654  13.184  0.0919 -0.0848 -0.1048
27976W        W48256   6.617   5.678   3.058 -0.0615 -0.0349 -0.3802
27977W        W48257  11.000  18.239  14.100 -0.3548  0.2592 -0.1284
27978W        W48258  16.071   2.778  15.514  0.0219 -0.1908 -0.0538
27979W        W48259   2.556   7.347  14.170  0.0615 -0.0574 -0.0575
27980W        W48260  10.050  14.810   1.301  0.3169  0.2462  0.1749
27981W        W48261   0.891  14.111   1.264  0.2414  0.3497 -0.2064
27982W        W48262   5.004  16.599  12.380  0.3002 -0.2800  0.0335
27983W        W48263  11.604   2.894  14.950 -0.2501 -0.0903  0.1628
27984W        W48264  18.055   1.354  12.832  0.0056  0.0195  0.1209
27985W        W48265   4.265   4.162   1.909 -0.1201 -0.1787 -0.1428
27986W        W48266   1.785   2.521  12.331 -0.0941 -0.0498 -0.0016
27987W        W48267  15.424  15.569   4.363  0.1603  0.1756  0.0469
27988W        W48268   3.582   9.306   0.534  0.0950 -0.1156  0.0808
27989W        W48269  16.587  16.950  12.920  0.0598  0.0164 -0.0119
27990W        W48270   3.251  13.082   1.462  0.0916 -0.0325 -0.2279
27991W        W48271  13.775  12.069   2.085  0.3230  0.1086 -0.0312
27992W        W48272   6.761   0.861  14.628 -0.1364  0.0886  0.2871
27993W        W48273   0.818  16.252   4.522  0.1670 -0.1527 -0.0293
27994W        W48274   4.257   0.936   2.774 -0.0396  0.0810  0.2257
27995W        W48275   2.247   8.862   1.788  0.0673 -0.3024 -0.1714
27996W        W48276   5.739   4.340  11.448  0.1100 -0.0814 -0.1102
27997W        W48277  15.782   5.713  14.347  0.0519 -0.0234 -0.0100
27998W        W48278  14.081   1.933  10.339  0.2398 -0.2370 -0.0613
27999W        W48279   0.095   5.613  14.767  0.2903 -0.1049  0.1816
28000W        W48280  17.882  13.508   3.848 -0.2927 -0.4460  0.1409
28001W        W48281  17.101  10.037  12.721  0.0781  0.0843 -0.1419
28002W        W48282   1.774   1.362  15.186 -0.0058 -0.0477 -0.1067
28003W        W48283   0.080   8.378   1.285  0.0261  0.1436  0.0443
28004W        W48284  13.693   7.238   4.728  0.0133  0.1394  0.0479
28005W        W48285   6.617  12.527   4.121  0.0806  0.0536 -0.0935
28006W        W48286   1.515   5.705   4.519  0.0387  0.1621  0.2812
28007W        W48287  15.495   0.263  14.197 -0.0442  0.5263  0.2902
28008W        W48288   2.324  16.560  13.078  0.3093 -0.2051 -0.0978
28009W        W48289   5.186   9.145  14.784 -0.0766 -0.0702  0.2290
28010W        W48290   3.739   6.923   3.970  0.1754  0.0166 -0.0776
28011W        W48291   0.434   8.128  14.786  0.1794  0.1240 -0.1052
28012W        W48292   5.890  13.998   1.034 -0.1898 -0.0753 -0.0305
28013W        W48293  15.745  13.103  12.701 -0.4508  0.0026  0.0887
28014W        W48294   1.689  18.292   0.754 -0.1710 -0.0311  0.0641
28015W        W48295   4.084  17.481  12.172 -0.0924 -0.1510 -0.0879
28016W        W48296  11.118   9.435   4.909  0.1536 -0.0199 -0.2040
28017W        W48297   0.759  14.872   0.089 -0.0415  0.2023  0.1889
28018W        W48298  11.808   3.327   1.247  0.4904 -0.1821 -0.3362
28019W        W48299   6.866  17.923  15.043 -0.0442 -0.1169 -0.1200
28020W        W48300  14.675  16.240  13.521 -0.0355  0.2050  0.0299
28021W        W48301   1.521   6.577  12.731 -0.1412 -0.1758 -0.1583
28022W        W48302   4.965   4.256  14.527 -0.0056  0.2281 -0.1855
28023W        W48303   3.184  11.631  14.687 -0.0792 -0.0553 -0.1185
28024W        W48304  10.734  17.046  14.578  0.1274 -0.2020 -0.0644
28025W        W48305   9.591   4.656   0.264  0.0574  0.0231 -0.2006
28026W        W48306   7.919   2.457   2.288  0.0198  0.3195 -0.0394
28027W        W48307   8.435  13.618   5.252 -0.0237 -0.2289 -0.2243
28028W        W48308  16.068   0.793   2.299 -0.2036  0.0111  0.1517
28029W        W48309   3.646   0.284   2.706  0.4544  0.3091 -0.2429
28030W        W48310  16.663   6.877   2.461 -0.0853 -0.3042  0.2494
28031W        W48311   8.445   9.986   1.407  0.3320 -0.1331 -0.0504
28032W        W48312   4.241   1.216  11.912  0.0951  0.2697  0.1234
28033W        W48313   4.245  15.643  12.465  0.0946  0.3138  0.1761
28034W        W48314  11.950   5.430  11.766 -0.0777 -0.3231 -0.0829
28035W        W48315   6.443  16.505   3.402  0.0068 -0.2553  0.2408
28036W        W48316   5.938   9.588  15.852  0.1146 -0.2452  0.3084
28037W        W48317   3.988  14.679  12.893  0.1603 -0.0885  0.3592
28038W        W48318  13.194   9.188   3.061 -0.0220  0.2433  0.2778
28039W        W48319  11.459  13.460  13.897  0.0490  0.1661  0.2013
28040W        W48320  13.939   4.528  14.721 -0.2576  0.1969 -0.0017
28041W        W48321  17.413  18.307  14.185 -0.6423  0.0982 -0.0880
28042W        W48322  13.499  16.348   3.067 -0.1657 -0.0109 -0.0252
28043W        W48323   9.694   4.831   2.462  0.1974  0.1275 -0.2231
28044ION     NA48324   6.590   7.200   3.176  0.0132  0.0196  0.2506
28045ION     NA48325   4.814   5.156   5.425 -0.1433  0.5343  0.0170
28046ION     NA48326   1.100   4.354  10.954 -0.0276 -0.1604  0.0357
28047ION     NA48327  11.204   7.717  13.831  0.2560  0.2297  0.1128
28048ION     NA48328  12.604   5.066  10.793 -0.0307  0.1249 -0.0094
28049ION     NA48329  12.787   7.494  15.161 -0.2621 -0.1496  0.0342
28050ION     NA48330   9.854   9.885  10.493 -0.0025  0.1541 -0.0824
28051ION     NA48331   6.122  18.065  11.822 -0.0363  0.2414  0.1949
28052ION     NA48332   1.735  11.729   5.450 -0.2336  0.0464  0.1387
28053ION     NA48333   2.258   0.154   4.671 -0.1108  0.1073 -0.1314
28054ION     NA48334  12.366   2.549   3.756  0.0836  0.1700 -0.0793
28055ION     NA48335  15.013  10.735  10.968 -0.0786  0.0659  0.1612
28056ION     NA48336  18.277   5.402  13.930  0.1517  0.1657  0.0139
28057ION     NA48337   0.478   7.552  13.664 -0.2982 -0.1036 -0.0615
28058ION     NA48338   0.281   4.693   4.748 -0.1033  0.1758 -0.0920
28059ION     NA48339   5.306  12.147   0.510  0.0873 -0.0135 -0.1990
28060ION     NA48340   0.412   1.337  15.445 -0.1697  0.0248 -0.0951
28061ION     NA48341  13.022  14.345   3.253  0.0586  0.2709 -0.0913
28062ION     NA48342   2.939   2.319  10.527  0.2664 -0.3425  0.2228
28063ION     NA48343   9.057   1.752  15.890  0.0424  0.2005 -0.0183
28064ION     NA48344  12.075   5.593  12.723  0.2046  0.1702 -0.0196
28065ION     NA48345   6.658   7.516   5.323 -0.0076  0.4056  0.0362
28066ION     NA48346   7.976  15.115  12.509 -0.1349 -0.1457  0.0719
28067ION     NA48347  10.664   1.977   0.355 -0.2056  0.0794  0.2302
28068ION     NA48348   4.543  11.542   4.235 -0.1867 -0.3773  0.0427
28069ION     NA48349   2.129   3.722   1.140 -0.0847  0.0118  0.1945
28070ION     NA48350   7.087   9.006   3.023 -0.0990 -0.1028 -0.1042
28071ION     NA48351   0.419  13.630  10.784 -0.1052  0.0763 -0.2261
28072ION     NA48352   4.310   6.674  14.003 -0.2762 -0.2215 -0.2312
28073ION     NA48353   3.540   4.148  10.604  0.1969 -0.0004  0.0168
28074ION     NA48354  11.383   1.288  13.817 -0.2089  0.0637  0.0209
28075ION     NA48355   4.417   4.011   4.856  0.0429  0.1702 -0.0791
28076ION     NA48356  16.216  10.606   5.472  0.0603  0.0003  0.2210
28077ION     NA48357   4.089  17.984   4.866 -0.1890 -0.0392 -0.1198
28078ION     NA48358   2.996   5.456   5.265 -0.0422 -0.0382  0.2455
28079ION     NA48359  12.765  17.361   5.373 -0.0008  0.1087  0.0334
28080ION     NA48360  12.515   9.036   5.905  0.0046  0.0911 -0.0990
28081ION     NA48361   3.733   2.168   0.186  0.0257  0.0822 -0.3033
28082ION     NA48362   2.039   2.286  10.567 -0.0652 -0.0836 -0.0865
28083ION     NA48363   2.694   7.378  10.798  0.4332 -0.1283 -0.0156
28084ION     NA48364  16.935   3.817  15.327 -0.0017 -0.1559  0.3613
28085ION     NA48365   0.143  10.457   2.104 -0.0678  0.0665 -0.1865
28086ION     NA48366   8.552   0.699   0.504  0.1067  0.0804 -0.1373
28087ION     NA48367  17.864  15.310  11.230 -0.0574  0.0940 -0.1856
28088ION     NA48368  17.332  16.930  10.818  0.0538 -0.3020 -0.1155
28089ION     NA48369   6.405  13.984   4.049 -0.2462 -0.4718  0.1577
28090ION     NA48370   0.641  11.680  11.240  0.1165  0.3262  0.0415
28091ION     NA48371   5.070   4.759  11.512 -0.0225  0.1178  0.3712
28092ION     NA48372  10.993  11.355  10.867 -0.2064  0.1229 -0.3025
28093ION     NA48373   5.472  12.014   5.411 -0.0326  0.2276 -0.3979
28094ION     NA48374   6.117   5.463   4.633 -0.3392  0.0815  0.1008
28095ION     NA48375  14.953   4.673   0.974 -0.2545 -0.2056  0.0483
28096ION     NA48376   5.028   9.446   1.196  0.1136 -0.0815  0.2625
28097ION     NA48377  17.504   9.788   5.646  0.0691  0.0445 -0.3505
28098ION     NA48378  17.549   8.919   5.903  0.1637  0.1169 -0.2455
28099ION     NA48379  10.103   1.363  10.639 -0.0159  0.1497 -0.1309
28100ION     NA48380   1.101   4.932   5.219  0.2893 -0.2160  0.1187
28101ION     NA48381   0.934   8.706   5.317 -0.1326  0.0988 -0.1072
28102ION     NA48382   1.072   1.588  15.869  0.0297 -0.0694 -0.1526
28103ION     NA48383  14.649   9.495  12.967 -0.1045  0.2377 -0.0186
28104ION     NA48384   3.708   3.398   4.928  0.0172 -0.0862  0.2036
28105ION     NA48385  13.732  13.939  10.644  0.1258  0.0986 -0.2776
28106ION     NA48386   7.608   2.086   5.399 -0.3040 -0.0164  0.1680
28107ION     NA48387   9.759  13.675   3.070 -0.0373  0.0461 -0.4373
28108ION     NA48388  17.475  15.907   2.439 -0.0283 -0.2108  0.0957
28109ION     NA48389   7.710   3.639  10.489 -0.0971 -0.1036  0.1364
28110ION     NA48390  10.638  12.024  11.245  0.1226  0.3556 -0.1589
28111ION     NA48391  15.487  14.679   2.933  0.4537  0.0078  0.2257
28112ION     NA48392  18.233  12.955  14.896  0.0501  0.1321 -0.1374
28113ION     NA48393   0.517  16.761  10.699  0.0702 -0.0583 -0.0619
28114ION     NA48394  12.026  14.585   4.388  0.0667  0.0980 -0.1652
28115ION     NA48395   8.710   4.979  10.767 -0.2317  0.2697  0.0985
28116ION     NA48396  10.577   8.389   1.342  0.1751 -0.0483  0.1063
28117ION     NA48397  13.861  16.916   0.288  0.3338 -0.2057  0.0083
28118ION     NA48398  11.484   0.907   1.678 -0.1464  0.1973  0.0529
28119ION     NA48399  15.552   1.884   3.514  0.0036 -0.1583  0.0345
28120ION     NA48400  15.529  12.676   5.019  0.1311  0.1210 -0.0213
28121ION     NA48401   5.783  13.861   0.611  0.1732  0.0078  0.0077
28122ION     NA48402   2.665   3.621   1.153 -0.3685 -0.0006  0.2142
28123ION     NA48403   2.986   6.474  10.870 -0.0093 -0.0677 -0.2347
28124ION     NA48404  17.804   7.127  15.523  0.0018  0.1453 -0.3073
28125ION     NA48405   2.735  16.684  15.600 -0.0309 -0.0909  0.1955
28126ION     NA48406  16.752   7.386   3.718  0.0352  0.0767  0.0444
28127ION     NA48407  17.161   1.051  10.438  0.3797  0.4395 -0.1545
28128ION     NA48408  12.462  15.442  12.313 -0.1555  0.0438  0.1365
28129ION     NA48409  15.162  17.492   4.089 -0.0342  0.2256 -0.0002
28130ION     NA48410   6.180   0.727   2.933 -0.1064  0.1048 -0.2970
28131ION     NA48411  11.614  16.700   3.472 -0.5181 -0.2442  0.2472
28132ION     NA48412   8.017  17.893  10.576  0.1242 -0.0602  0.0972
28133ION     NA48413  17.035   1.291   0.894 -0.0339 -0.1920 -0.2274
28134ION     NA48414   9.161   4.108  10.447 -0.0975 -0.0087  0.0449
28135ION     NA48415  15.308  13.322  14.387  0.0522 -0.0278 -0.0043
28136ION     NA48416   1.994   6.587   5.259  0.0558  0.0227  0.0605
28137ION     NA48417   6.178   2.773  10.811  0.0573 -0.0891  0.2350
28138ION     NA48418   0.048   6.264  13.096 -0.0277  0.0564 -0.2682
28139ION     NA48419   4.836   6.445  12.156 -0.1188  0.0698 -0.2774
28140ION     NA48420   8.131   6.820   0.039 -0.0171 -0.0219 -0.2117
28141ION     NA48421  12.043   3.839   5.335  0.1736  0.4275  0.0078
28142ION     NA48422  18.036  15.395  15.508  0.4133 -0.0162 -0.0804
28143ION     NA48423  17.217  13.008   5.426  0.0178  0.0095 -0.1002
28144ION     NA48424  14.367  11.200  10.990 -0.0189 -0.0214 -0.2302
28145ION     NA48425  17.471  10.239   2.894  0.2212  0.2504  0.2160
28146ION     NA48426   1.215  11.095  11.041  0.2642 -0.3595 -0.0891
28147ION     NA48427   7.189   1.247   2.514 -0.3396  0.0760  0.0048
28148ION     NA48428  16.458  10.467   2.115  0.1756  0.0863 -0.3012
28149ION     NA48429  10.416   3.504   5.297 -0.1521 -0.0126  0.0499
28150ION     NA48430   2.673  14.669   2.991  0.1419  0.3448  0.0556
28151ION     NA48431   8.634  17.903  15.728 -0.1138  0.1080 -0.1961
28152ION     NA48432   0.554  12.488   0.592 -0.0724 -0.1198  0.1733
28153ION     NA48433  13.558  16.951  13.794 -0.0131 -0.1390  0.0181
28154ION     NA48434  12.626   6.302  15.766  0.0028  0.0578 -0.3094
28155ION     NA48435   6.934   2.216  13.661  0.2324 -0.1780 -0.0890
28156ION     NA48436   7.370  14.464  12.287  0.1691  0.1262 -0.0876
28157ION     NA48437   9.918  15.422   5.413 -0.4654 -0.2355 -0.1535
28158ION     NA48438   9.083  11.314  10.623 -0.2687 -0.3649 -0.1984
28159ION     NA48439   5.180  10.530  12.623 -0.0084  0.0013 -0.0008
28160ION     NA48440   6.234  18.085   4.606 -0.3903 -0.1358 -0.1034
28161ION     NA48441   9.293   0.249  10.996 -0.1603 -0.2409 -0.1387
28162ION     NA48442  15.579  11.219  11.754 -0.3415  0.1492 -0.0404
28163ION     NA48443  11.649   5.425  14.718  0.3912 -0.2826 -0.1295
28164ION     NA48444   8.610  16.572   3.955  0.1036 -0.1604 -0.1779
28165ION     NA48445   5.498   0.280   4.962 -0.1834  0.0082  0.0908
28166ION     NA48446   8.094   0.976   1.924 -0.1216 -0.2489  0.1062
28167ION     NA48447  15.100  15.741  15.693 -0.0530 -0.1068 -0.0651
28168ION     NA48448  13.918  13.160   5.087  0.2972  0.1324  0.1448
28169ION     NA48449   6.799   6.232  13.947  0.0262 -0.1003 -0.3036
28170ION     NA48450   6.334   8.333   5.129 -0.0359  0.3257 -0.1697
28171ION     NA48451   6.937  10.471  10.658 -0.1289  0.1588  0.0324
28172ION     NA48452  12.136   9.208   1.017  0.1564 -0.1351  0.1211
28173ION     NA48453  12.650  18.221  14.635  0.0414  0.0434  0.2321
28174ION     NA48454   8.867  10.334   5.524 -0.3562  0.0846  0.3236
28175ION     NA48455  11.710  14.833  10.789  0.0609  0.1436  0.0937
28176ION     NA48456   4.997   7.074   5.189  0.0254  0.1193  0.0981
28177ION     NA48457   0.996   2.492   2.055  0.1501  0.0430 -0.1476
28178ION     NA48458  17.965   1.652  10.542  0.1007 -0.1231  0.0002
28179ION     NA48459  15.416  14.568   5.318  0.0318  0.1931 -0.0410
28180ION     NA48460  12.924   3.774  12.689 -0.0788 -0.1839  0.2122
28181ION     NA48461   2.374   5.535  10.802 -0.1722 -0.0470  0.0332
28182ION     NA48462  11.390  15.412   3.584 -0.1746 -0.1503  0.2793
28183ION     NA48463   5.550   5.363  10.688  0.0488  0.0811 -0.0732
28184ION     NA48464  11.507  13.558  13.358 -0.0835  0.1553 -0.1405
28185ION     NA48465  17.481   9.127  15.204 -0.3455 -0.0705 -0.0530
28186ION     NA48466   2.993   9.719   2.918 -0.0109  0.1553 -0.4069
28187ION     NA48467   4.790  11.092  10.285 -0.0619 -0.0717  0.0028
28188ION     NA48468  14.570   8.242   5.815 -0.1052 -0.3464 -0.1214
28189ION     NA48469   4.430   4.005  10.821  0.2213  0.0809  0.1573
28190ION     NA48470   2.989   0.622  10.991  0.0025 -0.2670 -0.1226
28191ION     NA48471   4.939   8.797  14.398  0.1813  0.1158  0.0815
28192ION     NA48472   7.073   4.627  14.737 -0.0232  0.0871 -0.0692
28193ION     NA48473  11.690  16.262  14.541 -0.0420 -0.2235 -0.0279
28194ION     NA48474  11.464  10.010  10.292  0.1243 -0.3504 -0.0528
28195ION     NA48475   3.630   4.446   2.596  0.0957 -0.0199  0.0314
28196ION     NA48476   9.287   6.961   3.615 -0.0620 -0.1137 -0.2896
28197ION     NA48477   4.874  12.038   5.592  0.1374 -0.4756  0.2364
28198ION     NA48478  12.899  10.657   2.676 -0.3137 -0.1039  0.2254
28199ION     NA48479  11.077   0.468  15.868  0.2652  0.0785 -0.2936
28200ION     NA48480  10.428   2.386   4.645 -0.1001  0.1711 -0.1130
28201ION     NA48481  12.086  13.304  12.298 -0.0623  0.0274  0.0540
28202ION     NA48482  16.170   6.992   3.157  0.2132  0.0147 -0.2177
28203ION     NA48483  10.715  14.723   2.874  0.1207 -0.0016  0.0175
28204ION     NA48484  18.272  13.138   3.831  0.0900  0.0424  0.0226
28205ION     NA48485   9.256   7.875  13.795  0.1022  0.2230  0.1408
28206ION     NA48486  14.469  16.489   3.616 -0.0467  0.0982 -0.1167
28207ION     NA48487   1.880   9.695  10.800 -0.0573  0.2807 -0.0870
28208ION     NA48488  18.075   3.328  10.762 -0.0408 -0.4400  0.1093
28209ION     NA48489  13.096  17.550   1.986 -0.0099  0.2533  0.1751
28210ION     NA48490  15.355   4.894  13.874 -0.1772  0.0178 -0.0646
28211ION     NA48491  12.512  14.278   5.169  0.0245 -0.0712  0.3166
28212ION     NA48492   0.230   1.411   1.605  0.0953  0.0610  0.2799
28213ION     NA48493   3.244   5.945  15.137  0.0219  0.2113  0.2269
28214ION     NA48494  15.008   2.674   4.527 -0.1623 -0.2340  0.0685
28215ION     NA48495   9.405  10.722   0.064 -0.0990  0.2809  0.0328
28216ION     NA48496  15.065   0.249   2.235  0.1361 -0.1052  0.0757
28217ION     NA48497  16.972  10.960   1.215  0.1109  0.0806 -0.1934
28218ION     NA48498  17.267  15.428  10.689 -0.2590 -0.1073  0.0368
28219ION     NA48499   2.735   7.274  13.366 -0.2533 -0.1149 -0.2656
28220ION     NA48500  16.086   7.121  14.527  0.1740  0.1036 -0.0367
28221ION     NA48501   6.412  18.209  14.793 -0.0401  0.2433 -0.0500
28222ION     NA48502   5.992  10.879   4.439  0.2187  0.1274 -0.2174
28223ION     NA48503  13.825  12.851   0.744  0.0997 -0.2159  0.1602
28224ION     NA48504  15.893  12.857   5.512 -0.0313 -0.1919  0.0812
28225ION     NA48505   8.097   7.249   1.754 -0.1265 -0.0520  0.1358
28226ION     NA48506  13.439   2.093   5.256  0.0527  0.0229  0.1829
28227ION     NA48507   8.436   7.645   5.333  0.1503 -0.3817 -0.1969
28228ION     NA48508   9.529  15.553  15.295 -0.0863  0.1242 -0.0433
28229ION     NA48509   6.693  18.252  10.599 -0.0665 -0.0249 -0.0615
28230ION     NA48510  14.337   5.190  10.824 -0.2011 -0.0936  0.3134
28231ION     NA48511   8.183  15.385   5.194  0.1659 -0.2553  0.0781
28232ION     NA48512   3.890  18.046  15.724  0.0851  0.0407  0.0455
28233ION     NA48513  17.319  11.550  14.189  0.1072 -0.0889  0.3626
28234ION     NA48514  11.370  16.199   5.540 -0.1771 -0.0529 -0.0606
28235ION     NA48515   9.590   5.530   0.138 -0.0139  0.1904 -0.1804
28236ION     NA48516   5.622   3.488  10.992  0.0181  0.2852 -0.0185
28237ION     NA48517   9.432   0.917   1.324 -0.0319 -0.0133 -0.1405
28238ION     NA48518  10.734  13.244   0.313 -0.0848  0.1514 -0.0966
28239ION     NA48519  15.175   7.491   3.677  0.1004  0.1690 -0.0306
28240ION     NA48520  13.141   0.789   3.266  0.0132  0.1233  0.0143
28241ION     NA48521  12.894   0.228   5.625 -0.2485 -0.1552  0.0134
28242ION     NA48522   1.656   8.331   0.763  0.2438  0.0910  0.2555
28243ION     NA48523   1.215   0.584  14.966  0.0720  0.0919  0.0360
28244ION     NA48524  13.460   8.611  13.533 -0.1293 -0.0020  0.0057
28245ION     NA48525   2.101   7.591   2.991  0.0041 -0.0496  0.0747
28246ION     NA48526   9.705  14.608   5.417 -0.0479 -0.1218 -0.3909
28247ION     NA48527   5.511   1.348   0.806  0.1814  0.0737 -0.0931
28248ION     NA48528   6.422   1.029   0.527 -0.2572 -0.0905  0.4247
28249ION     NA48529  12.232   9.847  11.460 -0.2870  0.1741  0.0457
28250ION     NA48530  14.497  15.136  14.504  0.0953 -0.2948 -0.1117
28251ION     NA48531   2.855  10.739  10.345  0.1115 -0.3790 -0.0316
28252ION     NA48532  15.147  14.237  11.305 -0.0471  0.2811 -0.2541
28253ION     NA48533  16.594  13.494   5.243 -0.0461  0.1186  0.0296
28254ION     NA48534   5.314   6.969  14.843 -0.0885 -0.0357 -0.2692
28255ION     NA48535  15.173  16.242   2.489  0.3094  0.1550  0.1097
28256ION     NA48536   5.657   7.792  15.552  0.0789  0.2900  0.0434
28257ION     NA48537  10.061  17.834  15.584  0.1928  0.1349 -0.1873
28258ION     NA48538   7.382  11.191  10.733 -0.0849 -0.2076 -0.1817
28259ION     NA48539   3.911   6.804  11.203 -0.2324  0.2634  0.0970
28260ION     NA48540  17.908   2.646   2.938  0.0724 -0.0118 -0.3051
28261ION     NA48541   6.545   4.944  10.638  0.2586 -0.0202  0.0937
28262ION     NA48542   1.943  12.798   5.312 -0.0622 -0.2774  0.2139
28263ION     NA48543   0.385   2.060  14.731 -0.1236 -0.3422 -0.3716
28264ION     NA48544  11.251   6.818   5.550  0.2457  0.1714  0.1211
28265ION     NA48545  14.115   0.627  11.774 -0.1101  0.0749 -0.0795
28266ION     NA48546  15.856  11.805  12.449 -0.2272  0.0905  0.2201
28267ION     NA48547  12.271   4.214   3.474  0.1111 -0.2023 -0.1183
28268ION     NA48548   9.755   0.700  15.346  0.2910  0.2411  0.1123
28269ION     NA48549   7.019   4.139  14.251 -0.1264 -0.2412  0.1507
28270ION     NA48550   6.098  12.086  12.025 -0.3518 -0.2881 -0.2912
28271ION     NA48551  18.320  17.751  13.129 -0.0713  0.0779 -0.2516
28272ION     NA48552  16.111  10.526   3.659 -0.1109  0.0970 -0.0030
28273ION     NA48553   2.342  15.996   5.264 -0.0921 -0.1071  0.1151
28274ION     NA48554  15.475   7.952   1.574 -0.1280 -0.0278 -0.0681
28275ION     NA48555  12.368   7.632   3.818  0.0468  0.3643  0.0995
28276ION     NA48556   3.882  13.004   2.083 -0.1857  0.0508 -0.0348
28277ION     NA48557   8.920  12.904  11.003  0.2140 -0.0546 -0.2072
28278ION     NA48558  17.531  18.201   1.915  0.1694  0.2486 -0.0683
28279ION     NA48559  11.184  15.697   0.847 -0.1028 -0.1854 -0.2423
28280ION     NA48560  17.242   9.752   0.680  0.2904 -0.2179 -0.0537
28281ION     NA48561   4.215  11.822  13.794  0.0243 -0.2807  0.1609
28282ION     NA48562  12.788   3.784   0.297  0.0595 -0.2428  0.3521
28283ION     NA48563   2.244  17.413   1.526 -0.2462  0.1319 -0.1491
28284ION     NA48564  17.586   0.375  10.325  0.1949  0.0987 -0.3437
28285ION     NA48565   2.081   9.078  14.835  0.0740  0.0137  0.0919
28286ION     NA48566  10.615   2.929   3.779 -0.1081  0.0370 -0.2763
28287ION     NA48567   9.182  17.477   5.438  0.0771 -0.0329  0.1267
28288ION     NA48568  13.478  10.575   5.768 -0.0949  0.1012  0.1333
28289ION     NA48569  12.394  16.676  10.898  0.0163  0.3969 -0.1269
28290ION     NA48570   0.889  14.119   3.306  0.0974 -0.0180  0.3523
28291ION     NA48571   3.046   2.327  13.750  0.0504 -0.1350  0.2044
28292ION     NA48572  16.110   5.709   5.383 -0.2803  0.1436 -0.2329
28293ION     NA48573   9.461   7.660   5.231  0.1438  0.2936  0.0852
28294ION     NA48574  13.640   8.341   5.854 -0.0279  0.1274 -0.1988
28295ION     NA48575  18.058   2.426   1.068  0.0206 -0.1513 -0.1069
28296ION     NA48576   4.927   6.675   0.513  0.0529 -0.3664 -0.1866
28297ION     NA48577   1.170  11.982   4.493 -0.0025  0.6028 -0.1967
28298ION     NA48578   0.450   3.302   4.910  0.1353  0.3120 -0.2718
28299ION     NA48579   5.249  17.014   4.697 -0.0487 -0.2534 -0.1814
28300ION     NA48580  10.098  17.663   5.297  0.1150 -0.0731 -0.1025
28301ION     NA48581   7.054   5.693   5.197 -0.1342 -0.2116 -0.0749
28302ION     NA48582   2.524  13.184  12.604 -0.1174 -0.3531 -0.1434
28303ION     NA48583   7.050   1.770  15.910  0.1315  0.0413  0.0087
28304ION     NA48584   6.533  12.240  13.217 -0.2007  0.1934  0.0949
28305ION     NA48585  10.607   3.063  12.021 -0.0043 -0.2065 -0.4403
28306ION     NA48586   6.255   6.374   5.193  0.1555 -0.0986 -0.1322
28307ION     NA48587   3.322  12.264  10.507 -0.1680  0.1874  0.0386
28308ION     NA48588   8.033  13.960   2.733  0.1278  0.2612 -0.2240
28309ION     NA48589  10.820   1.603   2.060  0.1274 -0.0220 -0.0415
28310ION     NA48590   8.931  11.920  12.678 -0.0456 -0.1279 -0.0364
28311ION     NA48591  13.437  13.750  11.351 -0.0242 -0.1777  0.1212
28312ION     NA48592   8.017   4.033   4.775 -0.1846 -0.1840 -0.0803
28313ION     NA48593   8.049   2.928  11.059  0.3041 -0.2932  0.2496
28314ION     NA48594  16.191  17.489   0.693 -0.2218 -0.1223 -0.1600
28315ION     NA48595   1.261  13.992   2.098 -0.0632  0.1200  0.0955
28316ION     NA48596   0.931  17.265  13.653 -0.1331  0.0441 -0.1096
28317ION     NA48597   3.685   3.715  12.958 -0.1918  0.1422 -0.0335
28318ION     NA48598   3.038  11.550   5.197  0.0274 -0.0082 -0.0751
28319ION     NA48599   5.271  14.942  13.538  0.0919  0.0002  0.0225
28320ION     NA48600   5.793   8.216  13.913  0.0120  0.0324  0.0652
28321ION     NA48601  10.018  10.874  14.448  0.1429  0.2175  0.1339
28322ION     NA48602   6.552  13.570  11.646  0.1753  0.1499  0.0809
28323ION     NA48603   9.199  13.307  11.829  0.1996  0.3734  0.0363
28324ION     NA48604   2.454   9.854   5.307 -0.1275 -0.0769  0.3029
28325ION     NA48605  11.912  15.291   5.706 -0.0457  0.2141 -0.0202
28326ION     NA48606   2.692  18.225  12.093  0.2452 -0.2146 -0.1155
28327ION     NA48607   5.715  11.684   3.321  0.1132  0.1248 -0.0466
28328ION     NA48608   3.136  16.954   5.046 -0.1536  0.2217 -0.0190
28329ION     NA48609  16.361   1.299   2.208 -0.0739 -0.2659 -0.1519
28330ION     NA48610   6.874   0.780   5.105 -0.4408  0.1633 -0.1354
28331ION     NA48611  10.794   7.459   1.643 -0.2369 -0.0736 -0.2507
28332ION     NA48612   6.445   9.109   0.697  0.0622  0.1030 -0.0047
28333ION     NA48613   4.282  15.385   0.114  0.0875 -0.1795  0.0121
28334ION     NA48614   7.575  17.702  14.785  0.1229  0.1901  0.0980
28335ION     NA48615  14.787   1.957   1.412  0.0801 -0.0748  0.3268
28336ION     NA48616  15.302  12.050   5.695  0.2919 -0.1626  0.1522
28337ION     NA48617  16.036   3.827   1.363  0.1552 -0.1248 -0.1250
28338ION     NA48618  11.679   2.251  10.479 -0.0673 -0.1517  0.1796
28339ION     NA48619   9.869  15.746   1.343 -0.1648  0.1675 -0.1037
28340ION     NA48620   4.332   2.149  11.488  0.0812  0.1156  0.0280
28341ION     NA48621   5.098  14.721   1.640 -0.1240 -0.1303  0.1503
28342ION     NA48622   8.265   6.746   3.498 -0.0926  0.0089  0.1908
28343ION     NA48623   0.324  12.399  10.870  0.1123  0.3213 -0.2285
28344ION     NA48624  12.471  11.695   2.550 -0.0772 -0.0190 -0.0028
28345ION     NA48625  11.783   5.375  10.800 -0.0178 -0.0972 -0.0463
28346ION     NA48626  10.852  11.110   5.642  0.0633 -0.1136 -0.0418
28347ION     NA48627  17.247  18.116   0.444 -0.0904 -0.1530  0.0796
28348ION     NA48628  14.453   5.172   4.067 -0.2469  0.0526  0.0272
28349ION     NA48629  14.872   9.902  10.946 -0.0039 -0.2927  0.1149
28350ION     NA48630   6.507  15.380   4.302  0.2788  0.0486 -0.0734
28351ION     NA48631  12.268   6.685  11.266 -0.0955  0.1520  0.0859
28352ION     NA48632  12.053  14.151  14.894 -0.2001 -0.0679 -0.2073
28353ION     NA48633  13.054   2.392  12.293 -0.2421 -0.2500  0.0686
28354ION     NA48634   8.240  10.827  15.643  0.1100  0.0211 -0.4363
28355ION     NA48635   5.329  12.354   4.071 -0.0122  0.0170 -0.2032
28356ION     NA48636  10.207  12.169   5.287 -0.1548  0.1685  0.0293
28357ION     NA48637   7.500   8.771  10.622 -0.4384  0.0073 -0.2637
28358ION     NA48638  10.185  17.119   5.370  0.3085  0.1460  0.0621
28359ION     NA48639   1.102   0.533  10.427 -0.2628 -0.2570  0.0232
28360ION     NA48640   0.421   8.510   0.929 -0.0095  0.2311  0.2253
28361ION     NA48641  11.211  10.150   1.141  0.1130 -0.1356 -0.1279
28362ION     NA48642  16.956   4.282   3.413  0.4080  0.0184  0.0197
28363ION     NA48643   6.868  13.014   5.669 -0.2006  0.1971  0.0640
28364ION     NA48644   5.939  14.493   4.767  0.1021 -0.0442  0.2960
28365ION     NA48645  13.079   3.036   5.543 -0.1680  0.3587  0.0695
28366ION     NA48646  15.925   7.305  10.898  0.3683  0.0823 -0.1364
28367ION     NA48647  17.321   6.040  10.802  0.1415 -0.1647  0.3745
28368ION     NA48648   7.417   6.145   0.603  0.3709 -0.1992  0.0755
28369ION     NA48649   8.490   2.061   5.341 -0.2014 -0.2828  0.1333
28370ION     NA48650   8.481   8.428   2.322  0.1291 -0.0279 -0.4017
28371ION     NA48651   1.606   6.135   0.908  0.0689 -0.0813  0.1071
28372ION     NA48652  12.152   3.438  14.514  0.2294 -0.0647 -0.2342
28373ION     NA48653   9.454   3.294   5.289 -0.1921 -0.2113  0.0636
28374ION     NA48654  16.542  15.718  13.615  0.0836  0.2071  0.0140
28375ION     NA48655  17.831   7.118  13.359 -0.1738 -0.2890 -0.0254
28376ION     NA48656  12.245  15.633  14.553 -0.1050 -0.0145 -0.0580
28377ION     NA48657  12.473  12.935   3.256 -0.1028 -0.1116 -0.0092
28378ION     NA48658  13.852   2.826   5.311  0.0844  0.3946  0.2114
28379ION     NA48659   1.611  15.893   3.929 -0.1069 -0.0418  0.1947
28380ION     NA48660   9.448   2.415   5.355 -0.0590 -0.2370 -0.0240
28381ION     NA48661   9.329   4.524  11.852 -0.1487  0.2437  0.2574
28382ION     NA48662  17.558  10.782   5.544 -0.0541 -0.1323 -0.0558
28383ION     NA48663   8.998   4.659   5.262 -0.0822 -0.0421  0.1214
28384ION     NA48664   4.521  14.310   4.951  0.1640 -0.1471  0.2329
28385ION     NA48665  10.660  14.085   1.338 -0.3438 -0.4004 -0.1368
28386ION     NA48666   5.240  13.796  14.243  0.1048  0.0901  0.0254
28387ION     NA48667   7.621   4.871  12.987 -0.0482  0.2279  0.1282
28388ION     NA48668   5.278   9.621   5.388 -0.0359  0.0416 -0.1034
28389ION     NA48669  14.584   9.160   5.913  0.0901 -0.0035  0.0670
28390ION     NA48670  12.293  11.307   5.500  0.1510 -0.1733  0.1018
28391ION     NA48671   3.540   4.336   5.067 -0.2172  0.3944  0.2028
28392ION     NA48672   0.003   1.242  14.375  0.1693  0.3001  0.1278
28393ION     NA48673   2.856  11.406   1.639  0.0592 -0.2929  0.0288
28394ION     NA48674  11.658  18.279  11.280  0.1902 -0.0898  0.0495
28395ION     NA48675   4.414  10.306   4.121 -0.1987  0.1448 -0.1532
28396ION     NA48676  10.789  11.560   1.933  0.1028  0.0621  0.0844
28397ION     NA48677  10.832  16.262  10.631  0.1213 -0.0158  0.1872
28398ION     NA48678   5.186  14.527  14.563 -0.0521 -0.0491 -0.1062
28399ION     NA48679  17.363  16.646   2.683 -0.0375 -0.3824  0.1087
28400ION     NA48680   8.635  13.230   2.432 -0.2156  0.0658  0.1047
28401ION     NA48681  15.264  10.882   5.676 -0.0419  0.5097  0.1263
28402ION     NA48682  11.294   3.768   1.456  0.0562 -0.0552  0.1238
28403ION     NA48683  12.111   2.567   1.281  0.3017  0.0368 -0.0218
28404ION     NA48684  12.750   1.037   5.341  0.2562  0.1832  0.1385
28405ION     NA48685   8.710  11.888   5.631 -0.1241  0.0075 -0.1216
28406ION     NA48686  13.813  17.837  12.343  0.2476  0.2863 -0.0603
28407ION     NA48687   2.160  10.778   5.349 -0.1068 -0.1533 -0.1024
28408ION     NA48688   8.020  10.413  14.772  0.2535  0.1533 -0.0353
28409ION     NA48689  12.492  10.665   5.770  0.1511 -0.3172  0.1751
28410ION     NA48690  13.495  13.961   1.759 -0.1573  0.1053  0.1279
28411ION     NA48691  16.152   3.083  13.691  0.1538  0.1528 -0.1144
28412ION     NA48692  12.844  11.590  10.471  0.1806 -0.1394  0.0276
28413ION     NA48693  13.779  17.961   2.906  0.1373 -0.1430  0.0828
28414ION     NA48694  15.627   7.989  11.911  0.0517 -0.1106 -0.2489
28415ION     NA48695  10.138  13.928   5.789 -0.0258  0.2202 -0.1056
28416ION     NA48696  10.442   7.481   5.574 -0.0541 -0.0813  0.0924
28417ION     NA48697   5.987  13.514   5.527  0.2241 -0.1485  0.0051
28418ION     NA48698  13.753   1.315   1.780  0.0369  0.0755  0.0137
28419ION     NA48699   2.726   3.776  12.802 -0.2941  0.0077 -0.2213
28420ION     NA48700   7.077  12.525  14.612  0.0967  0.0790 -0.2071
28421ION     NA48701  16.264   8.115   4.145  0.1196 -0.1677 -0.0340
28422ION     NA48702   4.549  15.384  15.381 -0.3329 -0.1254 -0.0313
28423ION     NA48703   2.655   4.019  14.578  0.0194 -0.3890 -0.0412
28424ION     NA48704  15.365   3.147  14.235 -0.0080  0.2795  0.0496
28425ION     NA48705  12.904   8.713  11.891  0.0777  0.1513  0.1495
28426ION     NA48706  12.203  11.555  13.446 -0.0068  0.1281  0.0312
28427ION     NA48707   0.059   6.490   1.187  0.1529  0.1817 -0.1525
28428ION     NA48708   9.117  15.918  10.903 -0.1320  0.0473 -0.1306
28429ION     NA48709  11.260   4.552  10.645 -0.2246  0.0260 -0.0847
28430ION     NA48710  16.892   4.943   1.848 -0.4352 -0.2028  0.0599
28431ION     NA48711  15.630   0.478   0.523 -0.5570 -0.1356 -0.3080
28432ION     NA48712   7.503   4.633  10.747 -0.1459 -0.1952  0.2280
28433ION     NA48713  14.527   6.018   0.862 -0.0454  0.1992  0.1328
28434ION     NA48714   6.659  13.979  13.436  0.0896  0.0516 -0.0905
28435ION     NA48715  13.611   6.934   2.957  0.2810  0.0247  0.0886
28436ION     NA48716   0.157  14.433   5.176 -0.0791 -0.0230 -0.1764
28437ION     NA48717  10.138   9.669   2.116 -0.0194 -0.0058 -0.1513
28438ION     NA48718   8.665  14.584  14.790 -0.1806  0.1970 -0.2754
28439ION     NA48719   7.796   8.895   5.354  0.0427 -0.0093 -0.1098
28440ION     NA48720  10.211   0.196  10.580  0.1005  0.2096  0.4825
28441ION     NA48721  12.554  14.711   5.487 -0.1170 -0.0834 -0.0176
28442ION     NA48722  17.790  18.088  12.017  0.2508  0.0204  0.3894
28443ION     NA48723  16.420   1.377   5.071  0.0418  0.1882  0.1914
28444ION     NA48724  11.222   8.786   0.444  0.0873  0.1927  0.1514
28445ION     NA48725  10.802  12.283   1.934  0.0048  0.1008 -0.0040
28446ION     NA48726   5.741  11.256  10.385 -0.1645 -0.0271 -0.3504
28447ION     NA48727   6.888  14.069   5.539  0.1708 -0.3157  0.3556
28448ION     NA48728   6.269  16.555   0.730 -0.0119 -0.3121 -0.1245
28449ION     NA48729   2.615  15.415  14.941 -0.0246 -0.2672  0.0136
28450ION     NA48730   2.570   3.357   5.017 -0.0902  0.2006  0.1483
28451ION     NA48731  17.245   0.456   5.343  0.1878  0.2032 -0.1118
28452ION     NA48732  17.314  17.647  14.789 -0.0442  0.2059  0.3115
28453ION     NA48733  18.294   4.652  15.359 -0.0719 -0.3808 -0.1250
28454ION     NA48734  16.409   2.257  15.464  0.1496 -0.0894  0.0049
28455ION     NA48735   2.171  17.545  10.581 -0.2342  0.2913 -0.1746
28456ION     NA48736  15.247  10.149   5.787 -0.3472 -0.1425  0.2362
28457ION     NA48737   2.822   7.256   3.680 -0.0841 -0.2145 -0.1050
28458ION     NA48738   6.834  12.641   1.377 -0.2091 -0.0793 -0.1713
28459ION     NA48739   9.290  10.162   0.211 -0.1932  0.4801  0.3979
28460ION     NA48740   9.375  13.568   5.482  0.0790 -0.3654 -0.2901
28461ION     NA48741   1.676  10.163   5.154  0.2886  0.1591  0.0757
28462ION     NA48742  14.901  12.670  11.032  0.0180  0.2092  0.2901
28463ION     NA48743  16.429  12.619   3.207 -0.1876  0.1477 -0.0039
28464ION     NA48744   5.064   0.591  11.787 -0.1048  0.0437 -0.1333
28465ION     NA48745  16.285  12.491   0.430  0.0811 -0.1266 -0.0646
28466ION     NA48746  17.971   7.021  10.912 -0.1794 -0.2018 -0.1065
28467ION     NA48747  16.354   0.784  10.904  0.0330  0.1863 -0.0506
28468ION     NA48748   6.483   5.957   0.141 -0.0163 -0.0757 -0.0180
28469ION     NA48749  12.189  14.279  11.335 -0.3705  0.1178 -0.1502
28470ION     NA48750  13.780  15.265  15.153 -0.0761 -0.0060  0.2024
28471ION     NA48751  14.508  16.244   4.910  0.0442 -0.0640 -0.0979
28472ION     NA48752   4.951   0.463  13.288 -0.2355 -0.0096  0.0732
28473ION     NA48753   1.966  16.057  13.664  0.0636 -0.0839  0.0758
28474ION     NA48754  12.874   9.088  15.030  0.3164  0.1810 -0.0986
28475ION     NA48755  14.263   5.555   5.238 -0.4727  0.1041  0.2348
28476ION     NA48756   3.683  14.917   4.597 -0.0253 -0.3032 -0.1295
28477ION     NA48757   9.282  11.160   5.579 -0.0417  0.2161  0.0147
28478ION     NA48758  14.679  14.067   2.429 -0.0712  0.0863 -0.0877
28479ION     NA48759  15.721   1.252  13.428 -0.2179 -0.1672  0.1992
28480ION     NA48760   5.930  13.188  13.327  0.1802  0.2885 -0.0744
28481ION     NA48761  15.794  10.229  12.430  0.0092  0.1638  0.2245
28482ION     NA48762  13.613   6.863  13.310  0.1317 -0.0059  0.2254
28483ION     NA48763   8.244   1.146  10.375  0.1327 -0.0534 -0.1337
28484ION     NA48764   7.095  11.047   5.593  0.1799 -0.1894  0.1480
28485ION     NA48765  11.307   7.911  15.451  0.1835 -0.3168  0.3771
28486ION     NA48766   4.285  12.415   0.108  0.0979 -0.2042  0.0708
28487ION     NA48767  15.122   2.926  12.944  0.3207 -0.1723  0.0226
28488ION     NA48768   6.575  11.677   3.610  0.2614 -0.0729 -0.4760
28489ION     NA48769  16.221   5.944   3.150  0.0357  0.0072 -0.0362
28490ION     NA48770  17.541   3.383   0.826 -0.3690 -0.2096 -0.2735
28491ION     NA48771   0.855  16.473  11.805 -0.1668 -0.0345 -0.0307
28492ION     NA48772  13.488   5.888   5.519  0.1158  0.0380 -0.2093
28493ION     NA48773  14.941  13.057  15.259  0.0536  0.0031  0.1327
28494ION     NA48774  14.711  14.503   1.660  0.2533 -0.0352  0.1062
28495ION     NA48775   5.578   7.124   4.483  0.0952  0.2273 -0.2164
28496ION     NA48776   7.369   7.562   0.159 -0.0475 -0.0264  0.0966
28497ION     NA48777   2.014  16.486  15.896 -0.1694  0.1513 -0.2362
28498ION     NA48778   4.860   2.018   5.217 -0.0250  0.2570  0.2532
28499ION     NA48779   0.662   6.400   5.457 -0.0333  0.1399  0.2854
28500ION     NA48780   4.804   1.750  10.869 -0.1748  0.2141  0.0780
28501ION     NA48781   2.439  15.940   2.654  0.0603 -0.0987  0.0313
28502ION     NA48782  10.737   6.221  10.764  0.0928  0.0977 -0.1736
28503ION     NA48783   2.957   6.828   1.140 -0.1174  0.2227  0.0119
28504ION     NA48784  13.335   3.274  10.489  0.0845 -0.1203  0.1568
28505ION     NA48785   8.399  13.563  13.388 -0.1039 -0.1818 -0.4095
28506ION     NA48786  10.762  15.512  10.908 -0.1365  0.0872  0.2133
28507ION     NA48787   2.994  11.940   3.187  0.0349  0.2069 -0.1732
28508ION     NA48788   0.551  18.164   1.228  0.1605 -0.0415  0.3137
28509ION     NA48789   6.393  15.364   0.475 -0.0850  0.1827 -0.1718
28510ION     NA48790   8.355   1.639  11.274 -0.1692 -0.2932  0.3128
28511ION     NA48791   4.800  10.437   5.091 -0.2066 -0.1942 -0.1477
28512ION     NA48792   1.633   9.362   5.317 -0.4354  0.0960 -0.1135
28513ION     NA48793   6.434  10.537   5.597  0.5578 -0.1231 -0.2459
28514ION     NA48794   4.303   1.102  10.559  0.0784  0.1627  0.1740
28515ION     NA48795   4.913  10.346   1.430  0.0647 -0.0225  0.0626
28516ION     NA48796   5.849  12.983   1.621  0.3434 -0.0702 -0.4462
28517ION     NA48797  16.714  13.460   2.300  0.0310  0.1632  0.0323
28518ION     NA48798  10.505  15.463  11.751  0.1913 -0.2699  0.2036
28519ION     NA48799  17.351  14.613   4.633  0.2663 -0.0159 -0.0886
28520ION     NA48800   1.853  12.461  14.748 -0.0329 -0.2696 -0.1444
28521ION     NA48801   6.980  11.930   5.687  0.0922 -0.0881  0.0772
28522ION     NA48802   0.980  16.949  15.787  0.0893 -0.1625  0.1292
28523ION     NA48803   0.985  18.284   0.358  0.0909 -0.1364  0.0491
28524ION     NA48804   6.684   8.594  10.794  0.0910  0.2845 -0.1967
28525ION     NA48805  12.019   0.546  14.757 -0.0147 -0.0835  0.2533
28526ION     NA48806   4.711  16.447  10.597 -0.1211 -0.3726  0.2857
28527ION     NA48807   0.412  14.885   0.556 -0.2925 -0.4002  0.0605
28528ION     NA48808   4.422   8.311  11.884 -0.0631 -0.1632 -0.2621
28529ION     NA48809  13.402   2.005   1.069  0.1853 -0.0807  0.1047
28530ION     NA48810   4.935  17.260  10.392  0.1785  0.0587 -0.2295
28531ION     NA48811   3.993   0.613   5.004 -0.2465  0.1503 -0.1804
28532ION     NA48812  12.742   4.929   5.748 -0.1193 -0.0748  0.2724
28533ION     NA48813   1.037  16.457   1.598 -0.2126  0.1315 -0.3788
28534ION     NA48814   5.602  13.916  12.502  0.0085 -0.1169  0.3746
28535ION     NA48815   8.317   6.292  13.368 -0.2897  0.0827 -0.0017
28536ION     NA48816   9.310  12.611   3.833 -0.4323  0.0566 -0.2110
28537ION     NA48817   5.041   4.880  15.361  0.0547  0.0371  0.1409
28538ION     NA48818  11.202   2.518   5.343  0.3326 -0.1699 -0.4020
28539ION     NA48819   0.254   0.232  10.319  0.1505  0.2566  0.0240
28540ION     NA48820   9.286  11.725  15.870  0.0973  0.0676  0.1169
28541ION     NA48821  18.320  10.719  15.936  0.1649  0.1173 -0.0131
28542ION     NA48822   6.912   5.029   1.696 -0.2254  0.0939 -0.1510
28543ION     NA48823   2.044   0.648   2.934 -0.5546  0.0711 -0.0843
28544ION     NA48824  13.984  14.445  14.489  0.0464 -0.2928  0.0982
28545ION     NA48825  10.752   6.881   0.271  0.3002 -0.5161 -0.0472
28546ION     NA48826  13.594  17.576   5.027 -0.1712 -0.2482  0.0879
28547ION     NA48827  17.907   1.113   1.126  0.0885 -0.0552  0.0804
28548ION     NA48828   8.007   7.109  14.142  0.1672 -0.1638  0.1686
28549ION     NA48829   8.817   8.136   4.105 -0.0148  0.0953  0.2178
28550ION     NA48830   5.302  12.903   0.058  0.0419 -0.2807 -0.0669
28551ION     NA48831  14.276   7.316   5.496 -0.1175  0.2088  0.0094
28552ION     NA48832   1.555   5.384   3.477  0.0237  0.1520  0.2042
28553ION     NA48833   1.822   4.378  10.558 -0.0186 -0.0638  0.0854
28554ION     NA48834  12.098  17.750  12.560  0.2739 -0.0130 -0.1898
28555ION     NA48835  13.231  13.651   5.477 -0.1451  0.0198 -0.1393
28556ION     NA48836   7.937   1.165  14.405  0.0362  0.1200  0.0376
28557ION     NA48837  12.787   3.202  10.553  0.1324  0.1197  0.1636
28558ION     NA48838  11.928  13.729   5.531  0.1094  0.0926  0.4571
28559ION     NA48839  12.420  16.766   4.489 -0.1356  0.1643  0.0193
28560ION     NA48840   3.903   2.806  15.208 -0.2495 -0.0414 -0.1863
28561ION     NA48841   8.310  12.983   1.522  0.1161 -0.1439 -0.1007
28562ION     NA48842  16.784   7.844  11.000 -0.3397 -0.0113 -0.1468
28563ION     NA48843   7.781   3.048  12.177  0.2086 -0.0069 -0.1860
28564ION     NA48844  11.808   2.458   0.093  0.0604  0.0204  0.0661
28565ION     NA48845  10.424   1.818  15.283 -0.2678 -0.1799  0.3732
28566ION     NA48846  16.750   5.349  10.943  0.1687 -0.0304  0.2449
28567ION     NA48847   5.041  12.463  13.935 -0.2330  0.1690  0.1780
28568ION     NA48848  15.381   4.694  15.073  0.1904 -0.1068 -0.1469
28569ION     NA48849   7.051   3.714   0.763 -0.3539 -0.0263 -0.0613
28570ION     NA48850   2.781   7.645   5.309  0.1766 -0.0369 -0.0236
28571ION     NA48851   5.877   6.611  12.857  0.2607  0.1225 -0.0251
28572ION     NA48852  17.502   7.212   5.560  0.1151 -0.1405  0.3513
28573ION     NA48853   2.033  12.816   0.191  0.1124 -0.0035 -0.2967
28574ION     NA48854  18.038   4.171  10.597  0.1543  0.1001 -0.1654
28575ION     NA48855   8.179   2.775  10.200 -0.0745 -0.2655 -0.0872
28576ION     NA48856   8.214   0.773   4.899  0.1543 -0.1974 -0.0660
28577ION     NA48857   2.435   1.214   1.204 -0.1298 -0.2270  0.0319
28578ION     NA48858   0.275  17.684  10.516 -0.1999 -0.1497 -0.0513
28579ION     NA48859   7.477   1.006  10.621 -0.1187 -0.1561  0.0717
28580ION     NA48860  13.656   6.349  14.952  0.3645 -0.0404 -0.3549
28581ION     NA48861  13.828   3.605  14.299  0.0883 -0.0246  0.1790
28582ION     NA48862  18.330  12.297  14.213 -0.0192  0.1295  0.0212
28583ION     NA48863   7.891  16.483   4.343  0.1247 -0.0977 -0.1849
28584ION     NA48864   8.639   5.951  14.623 -0.0610  0.0659  0.1276
28585ION     NA48865   8.152  14.268  15.587 -0.0679 -0.0150 -0.1379
28586ION     NA48866   2.040   2.767  10.449 -0.0746  0.1119  0.2187
28587ION     NA48867   8.443  15.993   5.377 -0.1691  0.0622 -0.0654
28588ION     NA48868   2.794   0.024   2.493 -0.2505  0.0299 -0.0897
28589ION     NA48869  17.785   2.767   0.196 -0.1232 -0.1169 -0.2630
28590ION     NA48870  12.548   8.320  15.727 -0.1029  0.2830  0.1232
28591ION     NA48871  13.629   5.446  14.550  0.1261 -0.1496 -0.1642
28592ION     NA48872   5.629  15.478  14.415  0.4524 -0.1125  0.1085
28593ION     NA48873   8.885   2.213  10.484 -0.1533 -0.0646 -0.1094
28594ION     NA48874  16.750   9.254   5.603  0.1953  0.1086 -0.0738
28595ION     NA48875   0.566   3.948   1.477  0.0262 -0.2241 -0.2828
28596ION     NA48876  15.222  17.761   5.221 -0.3170  0.0311  0.1136
28597ION     NA48877   7.831  11.660   4.046  0.0430  0.2573  0.2293
28598ION     NA48878   2.411   6.309  14.421  0.1155 -0.0194  0.0702
28599ION     NA48879  17.666   2.604  14.291 -0.1664 -0.0198  0.0200
28600ION     NA48880  16.134   4.323   0.637  0.2185 -0.3245  0.0200
28601ION     NA48881   2.055   3.459  10.670  0.0720  0.0106  0.0562
28602ION     NA48882  15.947  13.237  10.871 -0.2104  0.0726 -0.2535
28603ION     NA48883   8.047  12.925   0.124  0.1403  0.0932 -0.0765
28604ION     NA48884  18.153  18.248   4.334  0.0471  0.1425 -0.1459
28605ION     NA48885   3.626   1.614  15.183 -0.0031 -0.0611  0.5889
28606ION     NA48886  17.667   4.871   3.189  0.0447  0.0007  0.0610
28607ION     NA48887  14.527  14.435   5.032 -0.0749 -0.0819  0.0863
28608ION     NA48888   3.437   5.533   0.288  0.1592  0.1515 -0.0775
28609ION     NA48889   8.209  12.516   5.710  0.0456 -0.0651 -0.2049
28610ION     NA48890   8.047  16.961   5.210  0.2298  0.0833  0.2619
28611ION     NA48891   1.728   7.297  15.820  0.0069  0.0124 -0.1428
28612ION     NA48892  13.341   0.732  10.554  0.0450  0.1402 -0.2012
28613ION     NA48893   8.245   0.674   5.425 -0.0769  0.1844 -0.1437
28614ION     NA48894  15.119  17.579  12.317  0.0383  0.2499  0.0818
28615ION     NA48895   2.172   6.464   0.410 -0.0095 -0.3196 -0.1374
28616ION     NA48896   8.359   9.494   5.568 -0.0141  0.0292  0.1005
28617ION     NA48897  14.051   0.262   1.052  0.0547  0.1523 -0.1226
28618ION     NA48898   1.709  12.603  11.832 -0.3258  0.1079  0.2055
28619ION     NA48899   8.372   3.405  15.672 -0.1810 -0.0745 -0.0330
28620ION     NA48900   3.997   5.182   3.847 -0.1965 -0.0470  0.3778
28621ION     NA48901   0.417   5.900  11.168  0.2506  0.0772  0.0578
28622ION     NA48902  15.713   8.177  11.033  0.0030  0.1120 -0.2117
28623ION     NA48903  12.742   6.397   1.874  0.2577  0.0917 -0.2933
28624ION     NA48904   9.146  17.100  14.157 -0.1435 -0.0534  0.0289
28625ION     NA48905   5.708  12.174  10.554  0.0356  0.2538  0.0794
28626ION     NA48906   0.722   8.188   0.241  0.0901  0.2614  0.4189
28627ION     NA48907   5.061  12.871   3.327 -0.3650  0.3333 -0.1286
28628ION     NA48908  12.496   8.235  10.898 -0.2742 -0.2696  0.0632
28629ION     NA48909   2.473   2.702  14.510  0.1518  0.0174  0.1210
28630ION     NA48910  14.912  11.405   0.776  0.0106  0.0190 -0.1304
28631ION     NA48911  16.913   7.179   0.694 -0.2077  0.2243  0.0550
28632ION     NA48912   7.375  12.533   2.072  0.0638  0.0390 -0.1967
28633ION     NA48913  13.580  13.779   4.388  0.0007  0.1782 -0.2808
28634ION     NA48914  17.530   9.256   5.002 -0.1161  0.0715 -0.0353
28635ION     NA48915   1.209   2.311  10.487  0.1380 -0.0511 -0.1652
28636ION     NA48916  17.850   2.549   5.689 -0.1202 -0.2623  0.1466
28637ION     NA48917  12.904   9.795   5.869 -0.1800  0.3078  0.0114
28638ION     NA48918   6.382  15.069  14.649  0.0089 -0.0205  0.2991
28639ION     NA48919  11.936   0.127  10.767 -0.1107  0.1865 -0.0381
28640ION     NA48920  16.076   4.274   3.821  0.1775  0.0815  0.0217
28641ION     NA48921  10.785  10.670  13.180 -0.0727 -0.1327 -0.1444
28642ION     NA48922   0.966   7.230  10.918  0.0290 -0.0980  0.2655
28643ION     NA48923   1.947  10.756  14.815  0.1384 -0.2414 -0.1250
28644ION     NA48924   3.069   1.506   5.206  0.3029 -0.3502  0.0919
28645ION     NA48925   5.243  10.006  14.132 -0.0146  0.2212  0.1410
28646ION     NA48926   8.564  13.942   5.741  0.1474 -0.2715 -0.0112
28647ION     NA48927  15.442   9.050   0.722 -0.2168  0.1378  0.1891
28648ION     NA48928   1.618   4.226   0.591 -0.1842 -0.3589 -0.2041
28649ION     NA48929   7.422  12.737  10.950  0.1107  0.0506  0.0777
28650ION     NA48930  11.702   7.792  10.843 -0.0550  0.1115  0.0725
28651ION     NA48931   2.621   6.333   1.889  0.1256  0.0586  0.2367
28652ION     NA48932   7.038   5.519  10.906  0.0752  0.2040  0.0065
28653ION     NA48933  14.697   3.217   5.159 -0.1091 -0.0553  0.0372
28654ION     NA48934  10.658   0.293  13.127 -0.2436  0.3078 -0.0378
28655ION     NA48935   1.874  13.830   4.333 -0.1131  0.1706 -0.1583
28656ION     NA48936   2.996  13.496  14.697 -0.1243  0.0821 -0.0343
28657ION     NA48937  11.723  13.316   3.347  0.1011 -0.0717  0.1588
28658ION     NA48938  13.418  10.918  10.768 -0.0180 -0.1731 -0.1180
28659ION     NA48939  12.788   4.110  10.584  0.2414 -0.0219 -0.0685
28660ION     NA48940  18.294  16.775   4.205  0.1761  0.3024 -0.1548
28661ION     NA48941  15.102  11.643  10.801  0.0261 -0.3270 -0.2062
28662ION     NA48942   9.827  13.468  11.047  0.1270  0.1442 -0.2410
28663ION     NA48943   2.961  16.072  14.965  0.0587 -0.1785 -0.1464
28664ION     NA48944  11.789  11.857   5.221 -0.1794 -0.0001  0.1084
28665ION     NA48945  15.860  12.009   1.277 -0.2855  0.2388  0.0732
28666ION     NA48946   9.804  15.423  10.839  0.0542  0.1214  0.3055
28667ION     NA48947   6.230   2.620  15.293 -0.1235 -0.3442 -0.1410
28668ION     NA48948  11.467  15.157  14.778  0.0264  0.0751  0.2408
28669ION     NA48949  17.463  10.052  14.455  0.4433 -0.2724 -0.2100
28670ION     NA48950  17.670  16.476  15.370  0.2092 -0.0143  0.2833
28671ION     NA48951  10.768   0.873  15.672  0.0661 -0.2906  0.1718
28672ION     NA48952   7.209  13.384  10.764  0.2486  0.0989 -0.1985
28673ION     NA48953   9.150   4.584   4.751  0.1249  0.1485  0.1077
28674ION     NA48954   4.307   7.602   5.002 -0.4245  0.0510  0.1406
28675ION     NA48955  10.218   3.304   0.519  0.0037 -0.0943 -0.1101
28676ION     NA48956   2.020  13.176   1.800 -0.0436  0.0206  0.3076
28677ION     NA48957   3.404  17.197  14.641 -0.3642  0.1607  0.0897
28678ION     NA48958   8.405  17.412  15.680  0.1034 -0.1445 -0.0792
28679ION     NA48959   4.447   4.979  12.946  0.0074  0.1646  0.0567
28680ION     NA48960  13.984   1.015  11.344 -0.1755 -0.1335  0.1897
28681ION     NA48961   0.526   1.197  10.446 -0.0631 -0.0503 -0.2888
28682ION     NA48962  16.662   1.959  12.965 -0.0322 -0.0011 -0.0148
28683ION     NA48963  15.144   2.777   3.492  0.2626 -0.1174  0.0907
28684ION     NA48964   9.237   1.486   5.461  0.0690  0.0167 -0.0525
28685ION     NA48965  10.697   1.701   5.340 -0.0791  0.2357 -0.3638
28686ION     NA48966   5.159  13.557   5.194 -0.0738 -0.1438  0.1886
28687ION     NA48967  13.013  12.048  14.396  0.0487  0.2951 -0.1800
28688ION     NA48968   5.026  10.872   3.091  0.0285 -0.0255 -0.1116
28689ION     NA48969  10.538   9.556   0.566  0.1084  0.1921  0.0859
28690ION     NA48970  16.320   2.333   5.373 -0.0364 -0.3202 -0.0094
28691ION     NA48971   4.418   6.844   1.869  0.3761  0.1110 -0.1486
28692ION     NA48972  14.140   7.654  11.098  0.0254  0.0084  0.1571
28693ION     NA48973  10.938  14.034   2.469 -0.1550 -0.3875 -0.1458
28694ION     NA48974  17.184   4.579  10.819  0.0249 -0.0954 -0.2907
28695ION     NA48975   8.434  18.061  11.402 -0.0749 -0.1087  0.1371
28696ION     NA48976   2.970   4.435   0.038  0.2250 -0.3488 -0.2622
28697ION     NA48977  12.079  17.417  10.791  0.0993  0.1361  0.1011
28698ION     NA48978  14.219   9.967   5.763 -0.0177  0.1372 -0.1058
28699ION     NA48979   2.788   4.627   5.069 -0.1394 -0.3129 -0.0698
28700ION     NA48980   6.168   4.023  12.567 -0.0654 -0.2343 -0.1861
28701ION     NA48981  17.722   5.215   0.758 -0.2287  0.1371 -0.0839
28702ION     NA48982   5.187  11.100   5.439  0.0804 -0.1731 -0.0213
28703ION     NA48983  13.650  15.501   3.121  0.0300  0.2446  0.0064
28704ION     NA48984   8.591  10.286   2.942  0.0631 -0.1399 -0.2146
28705ION     NA48985  13.464  17.783  14.154  0.0303 -0.2365 -0.0135
28706ION     NA48986   0.661  16.029  13.536  0.4252  0.1357  0.0772
28707ION     NA48987   2.961   7.805   2.371 -0.1392  0.0118 -0.1960
28708ION     NA48988  16.485  13.116  13.231  0.0693 -0.4222 -0.2425
28709ION     NA48989   0.515   7.013   5.493  0.1126  0.2944  0.2434
28710ION     NA48990   8.194  15.920  11.015  0.0832 -0.0624  0.2308
28711ION     NA48991   0.661   8.376  15.671  0.2420  0.0007 -0.3676
28712ION     NA48992   1.664  16.300  10.987  0.2480 -0.0427  0.0191
28713ION     NA48993   9.138  12.175   5.509 -0.0921 -0.0950  0.2354
28714ION     NA48994  17.226  15.204  12.482 -0.0196 -0.0444 -0.0044
28715ION     NA48995   9.168   2.603  14.289 -0.2569 -0.0345 -0.0162
28716ION     NA48996  10.771  16.447  15.010  0.1691 -0.3548 -0.0696
28717ION     NA48997   7.655   5.955  10.729 -0.3340  0.0060  0.2636
28718ION     NA48998   7.198  16.791  12.162  0.0233  0.0086  0.1891
28719ION     NA48999   5.877   8.370   0.684 -0.1328 -0.1146  0.0565
28720ION     NA49000   5.834  11.544  11.282  0.2115  0.0339 -0.0892
28721ION     NA49001   3.320  12.948   0.083  0.1236 -0.0702 -0.1776
28722ION     NA49002  13.864  16.334  10.678 -0.2667 -0.1486  0.1625
28723ION     NA49003  10.866  10.458  10.518  0.1258  0.1179  0.2822
28724ION     NA49004   3.941  12.596  11.261 -0.0804  0.1413 -0.1338
28725ION     NA49005   4.146   2.722   5.025 -0.2964 -0.0603  0.0151
28726ION     NA49006  15.884   9.173  11.972 -0.1747 -0.1078 -0.2396
28727ION     NA49007   6.547   9.503  10.937 -0.0316  0.1690 -0.3796
28728ION     NA49008   1.825   2.985   5.267  0.1216  0.0360 -0.0508
28729ION     NA49009  14.737   0.130  10.568 -0.4469 -0.0466 -0.0542
28730ION     NA49010  16.819   2.705   1.010  0.4056 -0.0755  0.1370
28731ION     NA49011   9.489  17.538   1.575 -0.2640  0.0373  0.0403
28732ION     NA49012  11.205  14.959   4.629 -0.1730 -0.0864 -0.0514
28733ION     NA49013  11.132   3.492  10.578  0.0555 -0.0518  0.0922
28734ION     NA49014   3.726  14.141  15.839  0.1089  0.2120 -0.2926
28735ION     NA49015  17.046   2.612   5.610  0.3544  0.0942 -0.1058
28736ION     NA49016  12.492  16.473  15.205 -0.1766 -0.0851 -0.4265
28737ION     NA49017  11.366   1.267   5.302  0.2369  0.0165  0.1329
28738ION     NA49018  11.327   9.305   4.407  0.0535  0.1981  0.1829
28739ION     NA49019   6.718  12.035  10.746 -0.1778  0.0900 -0.1443
28740ION     NA49020   7.493   7.597  11.882  0.4125 -0.0969  0.1253
28741ION     NA49021   1.769  17.833  14.358 -0.0706  0.0401  0.0162
28742ION     NA49022   9.605  10.653   2.490  0.2194  0.0844 -0.1969
28743ION     NA49023  17.620   2.134  12.826 -0.0111  0.0905 -0.0628
28744ION     NA49024  16.628   0.591  15.542 -0.3256 -0.0000 -0.1947
28745ION     NA49025   8.012  15.857   2.452  0.2078 -0.1778  0.1832
28746ION     NA49026   4.745   6.957  10.661  0.0064  0.2940  0.0538
28747ION     NA49027   2.984  12.279  14.074 -0.0676  0.2803 -0.0596
28748ION     NA49028  17.566   1.901  15.820 -0.2261 -0.1528  0.0680
28749ION     NA49029   4.842  17.731   0.935  0.0262  0.1138  0.0740
28750ION     NA49030   5.340   8.139   2.326 -0.2028 -0.2432 -0.1262
28751ION     NA49031  10.340  13.209   5.536 -0.1131  0.3299  0.1832
28752ION     NA49032  17.144  13.647   1.008  0.0917 -0.0787 -0.2985
28753ION     NA49033   3.042  17.539   0.017 -0.0774  0.0072  0.1331
28754ION     NA49034   4.610   1.430  14.465  0.0977 -0.0819 -0.1610
28755ION     NA49035   0.303   6.151   0.080  0.0124  0.3248  0.2968
28756ION     NA49036   9.716   4.155   3.230 -0.3461 -0.3077  0.2773
28757ION     NA49037   5.130   7.954   5.268  0.1062  0.2897 -0.3333
28758ION     NA49038  14.191   2.964  10.717  0.1550  0.0442 -0.4376
28759ION     NA49039   3.019   0.598   4.996  0.3438 -0.0753 -0.0422
28760ION     NA49040   8.401   6.067   5.372 -0.3044 -0.2101 -0.0358
28761ION     NA49041   4.891   5.765   2.664 -0.1864  0.2744  0.1731
28762ION     NA49042  10.950  18.241  10.496 -0.0006  0.1030  0.2315
28763ION     NA49043   1.903   8.238   5.392 -0.1466  0.2308  0.4456
28764ION     NA49044   5.003   8.620   1.637 -0.0441 -0.1013 -0.1157
28765ION     NA49045   0.500  12.987   4.917 -0.0190 -0.1606 -0.3640
28766ION     NA49046   1.991   0.125  10.506  0.0017  0.1679  0.2095
28767ION     NA49047   5.757   2.738   2.651 -0.1091  0.0323 -0.1744
28768ION     NA49048   5.676  13.375  10.400 -0.0478  0.2627 -0.0812
28769ION     NA49049  17.210   8.398  11.608 -0.1952 -0.1799 -0.0416
28770ION     NA49050   6.115   7.411  13.567 -0.0450 -0.1892  0.1958
28771ION     NA49051  12.459   6.698   3.040  0.1360  0.0297  0.2270
28772ION     NA49052  10.190   3.462  10.295  0.0086 -0.1667  0.0031
28773ION     NA49053   6.757   3.953  10.732 -0.2905  0.0688 -0.1013
28774ION     NA49054   9.515   7.457   2.624  0.0242 -0.2141 -0.1674
28775ION     NA49055   9.919  14.250  15.923  0.0475 -0.0521  0.1075
28776ION     NA49056   2.034   6.443  15.614  0.3289  0.0474  0.0040
28777ION     NA49057  16.310  14.364  14.387  0.0028  0.0526 -0.1434
28778ION     NA49058  16.401  15.636   2.483 -0.0595  0.0321  0.3309
28779ION     NA49059   8.835  15.084  13.809  0.2102  0.1323 -0.1908
28780ION     NA49060   4.124  16.563   1.916 -0.3859 -0.2425 -0.0163
28781ION     NA49061   0.052  10.431   5.534  0.0452 -0.2186 -0.0638
28782ION     NA49062   1.334  10.288   1.097 -0.0529  0.3399 -0.1641
28783ION     NA49063   6.287   6.184  14.505  0.2468 -0.2571 -0.0565
28784ION     NA49064   0.292  14.373   3.592 -0.3543 -0.1534 -0.0323
28785ION     NA49065  15.778   5.755  15.334 -0.0638 -0.1415  0.0584
28786ION     NA49066   2.894  15.075  10.676 -0.1654 -0.2540 -0.1488
28787ION     NA49067  18.015  11.486   5.620  0.1819  0.2133  0.4041
28788ION     NA49068  10.343   7.444   3.911 -0.1925  0.1802 -0.2599
28789ION     NA49069  10.548  12.655  13.731 -0.2097 -0.4860 -0.1187
28790ION     NA49070  10.715   0.716   5.382 -0.0020  0.4589  0.0629
28791ION     NA49071   7.902   6.918   5.147  0.0302  0.1619  0.1481
28792ION     NA49072   3.408   0.402  13.832 -0.4171 -0.1568  0.2765
28793ION     NA49073   1.460   3.836  15.067 -0.1106 -0.3677 -0.2224
28794ION     NA49074  10.142   5.368  12.506 -0.1008 -0.2181  0.2323
28795ION     NA49075   7.485   4.208   1.857  0.1595  0.0830 -0.2091
28796ION     NA49076  15.302   2.008   2.178 -0.2054 -0.0259  0.1507
28797ION     NA49077  15.448   4.714   5.253  0.0713 -0.0399  0.1260
28798ION     NA49078   6.389   9.911  13.248  0.0336 -0.0466 -0.4715
28799ION     NA49079   0.693   7.007  15.694  0.2109 -0.2618 -0.0190
28800ION     NA49080  14.843  11.070  14.739  0.0635 -0.1406 -0.2621
28801ION     NA49081   7.539   3.770   0.079 -0.1242 -0.2273  0.2993
28802ION     NA49082   1.647  10.814   1.738 -0.4336 -0.0686  0.2268
28803ION     NA49083  15.981  17.506  11.362 -0.1016 -0.1579 -0.1196
28804ION     NA49084   6.140  15.831   2.708  0.1406 -0.2368 -0.2033
28805ION     NA49085   5.963   9.056   5.256  0.1798 -0.2623  0.2722
28806ION     NA49086   6.240   9.674   3.792  0.2563  0.0543  0.2663
28807ION     NA49087   2.621  13.330   5.266 -0.1136  0.2120 -0.1235
28808ION     NA49088  13.855  13.695   2.420  0.1524  0.0961  0.1851
28809ION     NA49089   8.067   1.161   1.225 -0.2238  0.3513 -0.0182
28810ION     NA49090  17.747   3.333   5.486  0.3726  0.0306  0.0889
28811ION     NA49091  10.979  13.236  10.672 -0.1655  0.0061 -0.0978
28812ION     NA49092   1.148  14.260  13.799 -0.1801 -0.1043  0.1258
28813ION     NA49093   3.915  11.065   1.470  0.0401  0.2072 -0.4004
28814ION     NA49094   9.249  17.384  10.713 -0.4476 -0.2541  0.0631
28815ION     NA49095  16.986  18.336   2.062 -0.1198 -0.3194 -0.4876
28816ION     NA49096  17.832  10.935   1.628 -0.0351 -0.0738  0.0562
28817ION     NA49097   3.997   4.469   1.587  0.1136 -0.1088 -0.1376
28818ION     NA49098  13.732   9.383   1.372 -0.0230  0.0450  0.0468
28819ION     NA49099  12.851   9.557  10.894 -0.0695  0.0384 -0.3395
28820ION     NA49100  17.190   3.558  10.562 -0.1586  0.0743 -0.0600
28821ION     NA49101   6.772  11.188   1.390 -0.0965 -0.0944 -0.0091
28822ION     NA49102  12.575   2.097  14.313 -0.0284  0.0081  0.0101
28823ION     NA49103   2.840   6.090  13.172  0.0620  0.1354 -0.1938
28824ION     NA49104  17.143   4.101   4.945 -0.1436  0.1444 -0.0800
28825ION     NA49105   8.569  11.735  11.215  0.2379  0.3025  0.3328
28826ION     NA49106  13.670  17.178  12.871 -0.2799  0.3489 -0.0563
28827ION     NA49107  18.182   4.672   1.435 -0.2803 -0.1038  0.1384
28828ION     NA49108  13.753   9.863  13.605  0.0214  0.2720 -0.1925
28829ION     NA49109   9.292   6.102   5.266 -0.1458  0.1090 -0.2253
28830ION     NA49110  16.844   6.340   5.276 -0.1193  0.0198 -0.1047
28831ION     NA49111   8.270   8.765  11.933 -0.1492  0.1516  0.3176
28832ION     NA49112   6.126  12.419   1.962  0.0447  0.0905 -0.3397
28833ION     NA49113   8.939   4.041  13.714 -0.2057 -0.4937 -0.0038
28834ION     NA49114   7.502   9.685  10.466  0.3159 -0.0418 -0.0296
28835ION     NA49115  15.983  11.886  10.984  0.2950 -0.1591 -0.0579
28836ION     NA49116  17.866   5.242  14.650 -0.0097 -0.4540 -0.0600
28837ION     NA49117   7.102   9.802   5.355 -0.0208 -0.1718 -0.1967
28838ION     NA49118  16.128   8.087   2.662  0.0827  0.0735 -0.1180
28839ION     NA49119   5.841   5.584  15.434 -0.3593 -0.0164 -0.0461
28840ION     NA49120   6.201  17.518  10.455 -0.1095 -0.2200  0.2798
28841ION     NA49121   1.013  15.030  11.969 -0.1852  0.0751  0.0955
28842ION     NA49122  14.602   8.842  14.696  0.0515 -0.1492  0.1823
28843ION     NA49123  12.789   7.793  10.846  0.1640  0.3890 -0.0241
28844ION     NA49124   5.801  16.833  15.301  0.0915 -0.2929  0.0922
28845ION     NA49125   7.035   0.468   1.181  0.0020 -0.2228 -0.0085
28846ION     NA49126   6.616   8.535   3.495  0.1070 -0.0278 -0.0511
28847ION     NA49127   7.385   2.629  14.369  0.1260  0.0237  0.0050
28848ION     NA49128   6.146   9.113  10.781  0.1692  0.0206  0.0848
28849ION     NA49129  12.191   5.781  14.210  0.0772 -0.1255  0.4647
28850ION     NA49130   1.383   1.475  10.674  0.2885 -0.0422 -0.3858
28851ION     NA49131  15.420  14.988  11.630  0.0520 -0.0346  0.1445
28852ION     NA49132   8.420  11.075   5.270  0.1202  0.0124  0.4130
28853ION     NA49133   5.847   1.874  15.889  0.1290  0.1034  0.0210
28854ION     NA49134   4.393   2.542  14.396  0.1938  0.2524 -0.0194
28855ION     NA49135   2.513   0.139  14.564  0.2420 -0.1021  0.1939
28856ION     NA49136  16.161   8.485   0.416  0.2492 -0.1523  0.0735
28857ION     NA49137  13.246   8.645  10.863 -0.0629  0.0224  0.2660
28858ION     NA49138  15.587  16.114  10.686 -0.0348 -0.0352 -0.0068
28859ION     NA49139  10.277  15.807   5.569  0.1660 -0.2195 -0.0307
28860ION     NA49140   0.848   1.646   3.537  0.1672  0.4843  0.1341
28861ION     NA49141   0.537  16.070   1.525 -0.0683 -0.0158  0.0641
28862ION     NA49142   1.288   0.031   4.510  0.1087 -0.0616  0.0177
28863ION     NA49143  10.703   2.822   2.729 -0.2661 -0.0963 -0.0610
28864ION     NA49144   2.053   3.291   0.287  0.2216 -0.0803 -0.2529
28865ION     NA49145  11.027  11.937  12.835  0.1378 -0.2562 -0.0909
28866ION     NA49146  14.785  15.628  13.689 -0.0780  0.1309  0.3985
28867ION     NA49147  18.071  12.395   5.392  0.3470 -0.0897 -0.1555
28868ION     NA49148   3.716  11.232   2.995  0.0026 -0.0548 -0.0181
28869ION     NA49149  14.767  11.315   0.087 -0.0155 -0.1217  0.1180
28870ION     NA49150  12.203   1.668   5.218  0.1247  0.2174 -0.1720
28871ION     NA49151   9.132  15.254   5.293 -0.1007 -0.2511  0.1361
28872ION     NA49152   9.497  16.308   3.779  0.0158  0.1304 -0.0749
28873ION     NA49153   1.798  14.571  15.694 -0.2349  0.0457 -0.0027
28874ION     NA49154  17.493  17.390   5.112  0.0800  0.1354 -0.0171
28875ION     NA49155   1.367   1.608  12.587  0.0197 -0.0038  0.0512
28876ION     NA49156   8.389  14.955   5.386 -0.0805 -0.0981 -0.1991
28877ION     NA49157  17.905  13.482  15.028  0.0431 -0.3013  0.1791
28878ION     NA49158   6.808   6.315  10.836 -0.1640 -0.0353 -0.0042
28879ION     NA49159   8.278  10.442  13.503 -0.1765 -0.3096 -0.2241
28880ION     NA49160  12.015   0.511   5.484 -0.1700  0.5255 -0.1559
28881ION     NA49161   6.697   1.749   2.037 -0.2121  0.0020 -0.1057
28882ION     NA49162   6.444  13.294   0.728 -0.0033  0.1225 -0.1191
28883ION     NA49163  15.758  11.774   4.087  0.1747  0.0603  0.0181
28884ION     NA49164   0.971   3.911   5.401 -0.0380 -0.3454 -0.0904
28885ION     NA49165   2.520   3.893  11.100 -0.1223 -0.1978  0.0494
28886ION     NA49166   4.422  16.707  12.873  0.4078 -0.2013 -0.0409
28887ION     NA49167  12.319  13.655   2.440  0.1103  0.1684 -0.0217
28888ION     NA49168   6.430   4.855   5.307 -0.1247  0.2549  0.0716
28889ION     NA49169   9.010   8.092   0.227 -0.1793 -0.3034  0.3208
28890ION     NA49170   6.918  17.939   2.307  0.0605  0.3289  0.2263
28891ION     NA49171   3.063  14.476   4.981 -0.0565  0.3154  0.3245
28892ION     NA49172  12.395  18.178  10.788 -0.0071 -0.1249 -0.2331
28893ION     NA49173  12.617  11.711   0.177 -0.0305  0.0477  0.1566
28894ION     NA49174  12.858  14.929  15.091 -0.2921  0.2099 -0.0804
28895ION     NA49175  12.381   0.756  10.327 -0.0524  0.1212  0.3919
28896ION     NA49176   5.186   3.949  15.352 -0.1663 -0.0763  0.2874
28897ION     NA49177   2.928   6.580   2.843 -0.1697 -0.1987  0.0241
28898ION     NA49178   1.115  17.402  10.648  0.2480 -0.0287  0.0093
28899ION     NA49179   7.084   9.381  12.608 -0.1542  0.0049  0.1748
28900ION     NA49180  14.445   2.867  14.136 -0.0654 -0.1609  0.2568
28901ION     NA49181  15.961   6.629   5.551  0.0251  0.1101 -0.0228
28902ION     NA49182  10.672  12.204   1.159 -0.0415  0.0707 -0.1009
28903ION     NA49183   6.775   1.893   5.355 -0.0757 -0.0242 -0.0516
28904ION     NA49184  10.342   7.185  10.703  0.3245  0.0831  0.0981
28905ION     NA49185  11.450   2.892  10.978 -0.1941  0.0474  0.4921
28906ION     NA49186  16.459  17.250   2.033  0.2006 -0.3748 -0.1423
28907ION     NA49187  11.205  13.104   5.317 -0.1946  0.1790  0.0310
28908ION     NA49188   0.745  17.900   5.240  0.0488  0.1681 -0.2501
28909ION     NA49189  15.746  14.310  12.802 -0.2323 -0.0550  0.3220
28910ION     NA49190  10.272   9.614   1.596  0.0908 -0.0518 -0.5040
28911ION     NA49191  13.760  12.051   3.866  0.0096  0.2190  0.0440
28912ION     NA49192  15.788   5.225  15.792  0.0418 -0.2821  0.0487
28913ION     NA49193  10.867   9.719   5.577 -0.0640 -0.1838 -0.3936
28914ION     NA49194   4.893   9.664   2.456 -0.0705 -0.3704  0.0614
28915ION     NA49195   9.675  16.861  11.514 -0.0101  0.0755  0.0313
28916ION     NA49196  18.309  12.642   4.092  0.3119  0.1243  0.2455
28917ION     NA49197   9.965  16.127   3.793  0.0076  0.0248 -0.1589
28918ION     NA49198  16.549   4.787   5.313  0.1216 -0.3057 -0.0955
28919ION     NA49199  15.472   8.533  13.204  0.0976 -0.0332  0.2523
28920ION     NA49200  10.054  16.723  12.193 -0.2233 -0.1478  0.3452
28921ION     NA49201   3.114   6.498   4.571 -0.2064 -0.0335  0.0718
28922ION     NA49202   9.273   6.865  11.808  0.0609  0.0413 -0.0979
28923ION     NA49203  16.722  14.457  13.279  0.0873 -0.1938  0.1917
28924ION     NA49204  15.748   7.866   4.116  0.0460  0.1249 -0.2559
28925ION     NA49205  14.850  12.248  13.975 -0.0508 -0.0273  0.1063
28926ION     NA49206   0.184  14.720  15.075  0.2842  0.0829  0.0374
28927ION     NA49207   6.304   6.606   2.037  0.0036 -0.1521 -0.0078
28928ION     NA49208   0.093   0.397  15.020  0.0084  0.4006  0.0841
28929ION     NA49209   1.197  12.352   2.687  0.2003  0.0593 -0.0177
28930ION     NA49210   2.989   6.636   5.422 -0.1000  0.1047  0.2309
28931ION     NA49211   5.803   8.285  14.985  0.0176 -0.1384  0.0900
28932ION     NA49212  13.218  12.419  10.699  0.3095  0.2122 -0.0226
28933ION     NA49213  12.205   8.207  14.272 -0.1667  0.3603  0.0481
28934ION     NA49214  11.818  10.813  10.319  0.2175  0.0158  0.1486
28935ION     NA49215  17.503   9.798   3.862 -0.2150 -0.2403  0.1727
28936ION     NA49216   4.610   1.906   0.368  0.2701  0.1325  0.2019
28937ION     NA49217   1.454   5.289   0.342 -0.1206 -0.4217 -0.1109
28938ION     NA49218   9.852   6.124   3.367 -0.1758  0.0583  0.1451
28939ION     NA49219   4.302   0.114  13.570 -0.0768  0.1000  0.0664
28940ION     NA49220   5.711   4.659  12.471  0.0586 -0.1567 -0.0352
28941ION     NA49221   5.050  17.874   4.690  0.2716  0.0640 -0.0730
28942ION     NA49222  13.342  14.855   0.476 -0.1724 -0.1893 -0.0415
28943ION     NA49223   4.339   2.982  10.510  0.0962  0.0345  0.0840
28944ION     NA49224  13.455  16.633   5.357  0.2798  0.2994 -0.2096
28945ION     NA49225  11.059  14.143  10.754 -0.3926  0.1126 -0.3047
28946ION     NA49226   0.189   4.724  14.432  0.0462 -0.1419  0.1065
28947ION     NA49227   9.705   5.162   1.909 -0.0647 -0.3669  0.0231
28948ION     NA49228   4.958  14.127  10.449  0.1662  0.3249 -0.0139
28949ION     NA49229   4.712   2.338  10.454 -0.0144  0.1486 -0.0591
28950ION     NA49230   2.123  14.313   1.667  0.1751  0.0595 -0.2188
28951ION     NA49231  14.683   8.381   1.251 -0.0841 -0.1875 -0.1658
28952ION     NA49232  18.288  17.197   5.157 -0.1685 -0.3114  0.0540
28953ION     NA49233   5.878   4.318  10.429  0.0676  0.0078 -0.0317
28954ION     NA49234  12.536   5.052  12.995 -0.1376 -0.1732 -0.0108
28955ION     NA49235  12.052   4.930   5.528 -0.0529  0.0211  0.3106
28956ION     NA49236   8.430  13.578   3.917  0.0326  0.3204 -0.0333
28957ION     NA49237   0.533  14.468  12.452  0.4188  0.1339  0.3242
28958ION     NA49238   5.420  15.963  12.008 -0.2646 -0.0639  0.3466
28959ION     NA49239   8.368   8.878   1.119  0.0186 -0.0006 -0.0212
28960ION     NA49240   3.518   8.531   3.974  0.3548  0.2439 -0.0933
28961ION     NA49241   4.506   7.966  10.662  0.2126  0.1413 -0.1363
28962ION     NA49242   3.943  13.119   3.167 -0.0219  0.0970 -0.2266
28963ION     NA49243  10.533   5.735   5.231  0.2204 -0.2068  0.1569
28964ION     NA49244  13.929  13.095  12.020  0.2348 -0.2331 -0.0582
28965ION     NA49245   6.266   0.635  12.203 -0.1738 -0.2043  0.1101
28966ION     NA49246   3.969   5.636   5.343 -0.2386  0.1334  0.2309
28967ION     NA49247  10.217  10.034  13.933  0.2268 -0.2001  0.0525
28968ION     NA49248   1.737   2.448  12.908 -0.1155 -0.2028  0.0455
28969ION     NA49249  16.151  14.735  10.848 -0.2929  0.0712 -0.0587
28970ION     NA49250  15.829   5.606  10.805 -0.1656  0.1210 -0.1051
28971ION     NA49251  14.394   0.732  10.564  0.0753  0.0257  0.0212
28972ION     NA49252  15.737   6.557  11.105  0.0425 -0.2034 -0.2725
28973ION     NA49253   1.814   7.526  10.698  0.0399 -0.0826 -0.0560
28974ION     NA49254   2.354   8.879   0.307 -0.0903 -0.0705  0.0683
28975ION     NA49255   8.714   2.029  13.672  0.0450  0.1901  0.0756
28976ION     NA49256  10.302  12.992  12.178  0.1598 -0.2891 -0.1460
28977ION     NA49257  18.193   6.198  12.429 -0.1649  0.0809 -0.2308
28978ION     NA49258  14.442  16.744  15.487  0.0966  0.1982 -0.1882
28979ION     NA49259   7.466  10.275   3.144 -0.1020  0.0680 -0.0200
28980ION     NA49260  16.687   4.453   1.184  0.0655 -0.1023 -0.1269
28981ION     NA49261   6.810  15.902  13.043  0.1896 -0.0183 -0.1415
28982ION     NA49262  14.951  13.449   1.064 -0.3273 -0.1452 -0.1209
28983ION     NA49263  13.018  16.981  10.759  0.1239 -0.1986  0.0158
28984ION     NA49264   3.381  16.992  10.955  0.0471  0.0123  0.0217
28985ION     NA49265   8.945  13.671  10.921  0.0870  0.0156  0.3174
28986ION     NA49266  16.176   8.565   1.774  0.0363 -0.1216  0.1241
28987ION     NA49267  16.583  18.140  15.151  0.1509  0.1111  0.0112
28988ION     NA49268  11.246   5.509   1.576 -0.3287  0.0846  0.0406
28989ION     NA49269  16.585   6.919   3.620 -0.2066 -0.2798  0.1561
28990ION     NA49270  16.236   9.666  11.207 -0.0867  0.0771 -0.0033
28991ION     NA49271   3.135  10.393  14.377 -0.0214  0.0436 -0.3376
28992ION     NA49272  17.221   6.887  10.894 -0.0904  0.2053  0.2473
28993ION     NA49273   4.157  15.635  14.245  0.1138 -0.4112 -0.0225
28994ION     NA49274   3.361   8.063  15.182  0.2986  0.2286 -0.0242
28995ION     NA49275  10.656   0.542   2.478  0.2352  0.0607 -0.1805
28996ION     NA49276   3.028  16.139  10.086 -0.1433 -0.1940  0.0576
28997ION     NA49277  15.700   6.042  12.824  0.2524 -0.0935 -0.2794
28998ION     NA49278  14.088   1.406   5.329  0.3695  0.1061  0.0573
28999ION     NA49279  12.890  11.369  12.277 -0.1576  0.1440  0.0035
29000ION     NA49280   1.181   8.022  15.292  0.1294  0.0266 -0.0334
29001ION     NA49281   2.013   1.012  10.907 -0.0464 -0.3521  0.0447
29002ION     NA49282  13.874   8.052  11.303  0.0647  0.0079  0.0122
29003ION     NA49283   0.763   0.927   5.324  0.0238 -0.1338  0.1306
29004ION     NA49284   3.817   0.375  10.545 -0.3573 -0.1248  0.1979
29005ION     NA49285   6.192  16.692   4.538  0.0640 -0.0051  0.1609
29006ION     NA49286  10.918  16.318  12.036 -0.0592 -0.0425  0.1456
29007ION     NA49287   3.201   9.505  12.736 -0.1481  0.0157  0.0396
29008ION     NA49288  11.060   8.166   5.365 -0.3725 -0.2698  0.2403
29009ION     NA49289  12.204   7.182   5.604  0.2471  0.2564 -0.0442
29010ION     NA49290   4.857  15.140   4.950 -0.1439 -0.1964 -0.3155
29011ION     NA49291   1.507  17.063   1.986 -0.0393 -0.0151  0.0315
29012ION     NA49292   7.522   4.960   5.490 -0.1491 -0.0986 -0.0311
29013ION     NA49293   9.077   2.063   2.605  0.0144  0.0483 -0.0283
29014ION     NA49294  13.290  14.916   5.735 -0.0017 -0.3374 -0.1543
29015ION     NA49295  13.609  14.620   5.464  0.0948  0.1473 -0.2586
29016ION     NA49296   8.323   3.932   2.691 -0.0211 -0.2167 -0.2112
29017ION     NA49297   5.644   0.228   3.457  0.0916 -0.1284 -0.0995
29018ION     NA49298   3.692  17.840  10.290  0.0583  0.1319  0.1566
29019ION     NA49299   7.042   7.247  13.650 -0.1843  0.2579  0.1084
29020ION     NA49300   1.998  11.445  10.770 -0.1799  0.2957  0.2957
29021ION     NA49301   1.583   6.300   4.227  0.0689 -0.1181  0.0247
29022ION     NA49302  16.478  18.213  10.743 -0.1718 -0.1545  0.1873
29023ION     NA49303  11.350  18.205   5.373 -0.0110 -0.2251  0.2662
29024ION     NA49304   8.888  15.570   2.103 -0.0671  0.1542 -0.2695
29025ION     NA49305  17.277  12.032   5.410 -0.1733  0.0488 -0.1000
29026ION     NA49306   0.565   2.670   1.182  0.0976 -0.0506  0.0638
29027ION     NA49307   6.955   3.260  11.633 -0.2969 -0.1872  0.0648
29028ION     NA49308   4.399   4.710   0.791  0.2380 -0.1653  0.2496
29029ION     NA49309   5.373  14.782   5.109  0.2514 -0.1556  0.1092
29030ION     NA49310   8.353  13.424  12.029 -0.0523 -0.0981  0.0782
29031ION     NA49311   4.674  12.864   5.206  0.0881  0.0061 -0.1338
29032ION     NA49312   9.090   9.047  10.438  0.1745 -0.2442 -0.0409
29033ION     NA49313   0.872  13.079  12.945  0.1188  0.1810 -0.1168
29034ION     NA49314   2.000   9.778  11.736 -0.0637  0.0025  0.0557
29035ION     NA49315   9.488  13.284   0.275 -0.3650 -0.2494  0.0355
29036ION     NA49316   4.601   7.919   1.032  0.1484 -0.1389  0.1698
29037ION     NA49317  12.678  13.261  10.606 -0.0242 -0.1326  0.0706
29038ION     NA49318  15.641   4.462  12.353 -0.1248  0.2581 -0.0344
29039ION     NA49319   9.351   9.127  14.050 -0.1869 -0.0818 -0.1727
29040ION     NA49320  14.134  11.086  15.198  0.1490 -0.0692  0.2108
29041ION     NA49321  11.564   4.386  14.373  0.0687  0.0816 -0.0136
29042ION     NA49322   2.248   9.930   1.867 -0.0405  0.0554  0.1406
29043ION     NA49323   9.725  16.079  13.387 -0.1117  0.0698  0.0102
29044ION     NA49324  11.833   4.547   1.471  0.0788 -0.2555  0.0365
29045ION     NA49325  15.215  13.219  11.359  0.1413 -0.1551 -0.0016
29046ION     NA49326   7.535   3.829   5.560 -0.1037  0.0493  0.0666
29047ION     NA49327   4.622   1.099   5.079 -0.0365 -0.2754  0.0965
29048ION     NA49328   5.575   8.786  11.596  0.4434 -0.0989 -0.1226
29049ION     NA49329   5.670   6.795  14.038 -0.1595  0.0726 -0.0332
29050ION     NA49330   3.326   2.735  15.023  0.0656 -0.3210  0.1090
29051ION     NA49331  10.266   0.005  14.598  0.0132 -0.1583 -0.1686
29052ION     NA49332  17.163   6.622  14.554  0.1337 -0.0136  0.0385
29053ION     NA49333  12.963  15.762  10.597 -0.0033  0.0612  0.0634
29054ION     NA49334  17.355  18.065   3.467 -0.5246 -0.1696 -0.0688
29055ION     NA49335  12.864  11.991   5.536 -0.2544 -0.0161 -0.0696
29056ION     NA49336  11.114   5.824  15.335  0.2396 -0.0134  0.2413
29057ION     NA49337   1.574  10.176   2.396  0.1301 -0.1508  0.0475
29058ION     NA49338   7.052  14.033   2.479 -0.1557 -0.2671 -0.3740
29059ION     NA49339  15.624   2.320   5.084  0.1161 -0.0006 -0.0664
29060ION     NA49340  17.764   2.519  10.423  0.2489  0.1406  0.1367
29061ION     NA49341   9.584   9.599   4.233 -0.1434 -0.1375 -0.1238
29062ION     NA49342   1.432   0.981  13.826  0.0486 -0.1511  0.0358
29063ION     NA49343   8.507   0.748  15.528  0.1939 -0.3097 -0.2432
29064ION     NA49344   0.651   9.262  11.443 -0.1078 -0.1221 -0.0287
29065ION     NA49345  14.819  17.719  15.617 -0.1432 -0.1221  0.0406
29066ION     NA49346  16.058  16.355  14.212 -0.0971  0.0319  0.3469
29067ION     NA49347  17.032   9.842  11.172 -0.0473 -0.3263 -0.0433
29068ION     NA49348  16.893  11.453   3.391 -0.1103  0.0528  0.0246
29069ION     NA49349   6.945   4.363   5.408 -0.0504  0.0651  0.0428
29070ION     NA49350   5.915  10.401  10.568  0.1004  0.0605 -0.1161
29071ION     NA49351   3.800  16.130  10.518 -0.3412 -0.0392 -0.1429
29072ION     NA49352  13.208  17.980  10.571 -0.0846  0.0555  0.0194
29073ION     NA49353  15.588   3.409  14.999 -0.1879  0.0461 -0.0230
29074ION     NA49354   0.104   1.312   4.979  0.0714 -0.1101  0.1330
29075ION     NA49355  15.773   5.795  13.838  0.0211  0.1020 -0.1773
29076ION     NA49356  17.368  10.783  11.036  0.1114 -0.0916  0.1397
29077ION     NA49357   3.165  15.223   1.458  0.2221 -0.0223 -0.1783
29078ION     NA49358  12.915   1.568  10.597 -0.0214 -0.1103 -0.0687
29079ION     NA49359  12.676   5.862  13.376  0.0768 -0.0483  0.4135
29080ION     NA49360   1.496  16.976  14.461 -0.0464 -0.0059  0.1545
29081ION     NA49361  10.007   0.823   0.628  0.1286 -0.0075 -0.1491
29082ION     NA49362  10.362  14.051  13.555  0.1820 -0.0634 -0.2521
29083ION     NA49363   6.066   1.466  10.520 -0.2770  0.3147 -0.0907
29084ION     NA49364  13.205   1.413  15.915  0.0245  0.1645  0.0389
29085ION     NA49365  13.705  11.713  10.829 -0.1627 -0.3295  0.0836
29086ION     NA49366  13.906  12.177  12.944  0.0266 -0.0348 -0.1537
29087ION     NA49367  15.963  18.258   5.259  0.1164  0.0993  0.2550
29088ION     NA49368   3.981   9.964   1.901 -0.1322 -0.0838  0.3010
29089ION     NA49369   8.936   3.153   4.132  0.0660 -0.3720  0.2190
29090ION     NA49370   8.062   7.918   5.098  0.1375  0.0797 -0.2990
29091ION     NA49371  17.867   3.894   0.233 -0.1197  0.2309 -0.1780
29092ION     NA49372   6.308   0.937  14.915  0.1120  0.1267  0.1078
29093ION     NA49373   6.348  12.942  10.607  0.2067  0.0124  0.0266
29094ION     NA49374  18.137  15.674  10.540  0.2418  0.0601  0.1119
29095ION     NA49375   2.088   3.425   2.708  0.0740 -0.0733 -0.0076
29096ION     NA49376  17.667  16.986   0.317  0.0218  0.0750  0.0133
29097ION     NA49377   4.838  16.000  10.311  0.0758  0.3355 -0.1190
29098ION     NA49378   7.663   2.438   0.315 -0.2067 -0.0753 -0.4016
29099ION     NA49379   6.211   2.981  11.977 -0.1944  0.1677  0.1096
29100ION     NA49380   2.074   7.747  14.836  0.0108  0.2263 -0.0799
29101ION     NA49381  12.866   7.408   0.899 -0.1916 -0.0425 -0.0133
29102ION     NA49382   5.684   9.386  14.559  0.0569  0.0015  0.2822
29103ION     NA49383  15.436   0.978   5.093 -0.2650 -0.0033 -0.0804
29104ION     NA49384  12.020   2.541  13.882 -0.2258 -0.2529 -0.0017
29105ION     NA49385  16.128  13.927  10.625  0.1166  0.2199  0.1657
29106ION     NA49386  17.908  14.139  10.992  0.3367 -0.3894  0.1542
29107ION     NA49387   3.725  16.071   0.527 -0.1195  0.1430 -0.0718
29108ION     NA49388  14.862   7.306  10.904 -0.0956 -0.2131 -0.0377
29109ION     NA49389   1.339  14.456  10.776 -0.0120 -0.2553  0.0888
29110ION     NA49390   5.212   0.829  10.463  0.0970  0.0738 -0.0583
29111ION     NA49391   3.098  14.528  11.959  0.1528  0.2265  0.1193
29112ION     NA49392   0.925   6.480  11.222  0.2541  0.0006  0.3279
29113ION     NA49393   9.595   7.616   4.350 -0.0160  0.0851  0.0935
29114ION     NA49394   0.864  15.235  10.725 -0.2102  0.1062  0.1130
29115ION     NA49395  15.951  12.389  14.643  0.1565  0.1315  0.0007
29116ION     NA49396   8.323   5.245   2.484  0.3245 -0.0535  0.0526
29117ION     NA49397   5.689   4.985   5.337 -0.0394 -0.2785  0.0732
29118ION     NA49398   2.652  15.833  10.989 -0.1865 -0.1507  0.1860
29119ION     NA49399  10.090  10.215  15.551 -0.2793 -0.1935  0.1945
29120ION     NA49400  10.077  12.487  15.503 -0.1278  0.3437 -0.1121
29121ION     NA49401   2.223  10.221  13.332  0.6158 -0.1394 -0.1945
29122ION     NA49402  12.278   5.486   1.654  0.0657  0.0606 -0.1383
29123ION     NA49403  14.437  14.269   5.549 -0.0208  0.0240 -0.2026
29124ION     NA49404   9.174   9.872  12.190  0.1990 -0.0007  0.0176
29125ION     NA49405   8.426   1.022   3.389 -0.1358  0.0149 -0.1460
29126ION     NA49406   1.917   2.478   1.096  0.1423 -0.0852  0.0457
29127ION     NA49407  12.034  10.189  13.168  0.0638  0.2232 -0.3059
29128ION     NA49408   4.760   9.267  10.371  0.1954  0.0841 -0.1608
29129ION     NA49409   4.237   3.617   2.508  0.1323  0.1032 -0.2519
29130ION     NA49410   7.374  13.029  11.931  0.0935 -0.0421  0.1482
29131ION     NA49411   6.890  17.699  15.517  0.2787  0.1225  0.0329
29132ION     NA49412   5.567   2.291  10.537 -0.0211  0.1067 -0.2147
29133ION     NA49413  12.122   7.024  10.914 -0.4044  0.0834 -0.1477
29134ION     NA49414   5.391  16.563  12.708  0.0377  0.1383 -0.1511
29135ION     NA49415   3.588  10.145  15.737  0.4743  0.4923  0.2183
29136ION     NA49416   7.531  16.629  12.963 -0.0768  0.0925  0.1514
29137ION     NA49417   9.170   6.544   1.955 -0.0935  0.4005  0.1479
29138ION     NA49418  17.542  12.585  13.155  0.1158 -0.0595  0.0721
29139ION     NA49419   8.231   7.649   2.590  0.0020  0.1118  0.0146
29140ION     NA49420   7.371   6.853  15.332  0.0670 -0.1808  0.0245
29141ION     NA49421  17.392  12.761  11.702 -0.1032 -0.2444  0.3992
29142ION     NA49422   9.732   6.289  10.837  0.0751 -0.1734 -0.0541
29143ION     NA49423   5.595  14.797  12.536  0.1554 -0.2184  0.0121
29144ION     NA49424  11.185   9.704  14.806 -0.0703  0.1991  0.0391
29145ION     NA49425  12.938  10.478  15.391  0.0673 -0.1951  0.0421
29146ION     NA49426   7.652   5.046   4.326 -0.0395  0.0264  0.3869
29147ION     NA49427   2.908  15.092  13.419  0.0892 -0.1678  0.1044
29148ION     NA49428  16.944  17.988  10.640  0.0614  0.1276  0.4742
29149ION     NA49429  12.707  16.346   1.866  0.1568  0.1527 -0.1510
29150ION     NA49430  16.316  14.322   0.106  0.0190  0.1644  0.2509
29151ION     NA49431   5.542  11.242   1.091  0.0835 -0.2376 -0.1027
29152ION     NA49432   2.754   4.650  10.618  0.1693 -0.2064  0.0898
29153ION     NA49433  11.273   3.319   5.367 -0.1043 -0.0237 -0.6253
29154ION     NA49434   8.421   8.336  10.312  0.1442  0.1009 -0.0234
29155ION     NA49435   1.983  13.811   0.338 -0.0470 -0.0155  0.0891
29156ION     NA49436   7.692  14.460   5.234  0.0452 -0.0555  0.0919
29157ION     NA49437   5.831  15.296   4.125  0.1275 -0.1751  0.2928
29158ION     NA49438  10.686  11.402  14.260  0.2690 -0.1094  0.0222
29159ION     NA49439   3.996   5.954   1.607 -0.0924 -0.0509 -0.0809
29160ION     NA49440  12.694  10.385   1.195 -0.0038 -0.1884  0.3796
29161ION     NA49441   7.238  11.017   0.640  0.1151 -0.0482  0.0674
29162ION     NA49442  15.143  10.748  13.734 -0.0255  0.2055 -0.0736
29163ION     NA49443   6.284  12.913  14.998 -0.1442  0.0356  0.0747
29164ION     NA49444   1.385  14.633  14.474  0.3212  0.2804  0.2859
29165ION     NA49445  14.547  14.283  10.480 -0.0859  0.0889 -0.0417
29166ION     NA49446   0.713   9.184  13.344  0.0811 -0.2817  0.2040
29167ION     NA49447  12.026  10.704   0.786 -0.1821  0.2381 -0.3131
29168ION     NA49448  17.310  16.762   5.339 -0.0252 -0.1080 -0.1112
29169ION     NA49449   8.031  14.050  10.689 -0.0370  0.0723 -0.0943
29170ION     NA49450   4.690   6.078  11.379 -0.0066  0.2978 -0.2820
29171ION     NA49451   4.598  14.623   3.006 -0.0995 -0.1581 -0.0600
29172ION     NA49452  16.507   7.375  15.391  0.2481  0.1233 -0.1823
29173ION     NA49453   8.291   5.053   5.006  0.1973 -0.0200 -0.3134
29174ION     NA49454  17.306   7.696  11.056  0.1161 -0.0461 -0.0176
29175ION     NA49455  17.553   1.895   5.369 -0.1192  0.0889  0.2455
29176ION     NA49456   7.901   1.783  13.118 -0.2032 -0.1182 -0.1618
29177ION     NA49457  11.294  17.126  10.811 -0.0558 -0.2708  0.2478
29178ION     NA49458  12.578   2.384   0.300 -0.0486 -0.0168 -0.5049
29179ION     NA49459   5.462  16.139   2.153 -0.0132 -0.1822  0.0693
29180ION     NA49460  10.334   8.240   0.318  0.0206  0.2876 -0.1112
29181ION     NA49461   4.473  10.782  10.508 -0.2270 -0.0922 -0.4072
29182ION     NA49462   5.830   0.906  14.087 -0.0945 -0.1140 -0.1447
29183ION     NA49463  18.170  11.483  10.866  0.5137  0.0195 -0.0119
29184ION     NA49464   4.799   8.890  15.860  0.2195  0.0753 -0.0751
29185ION     NA49465  14.596   1.329  13.930  0.2142  0.0023  0.3253
29186ION     NA49466  12.032  16.801  12.662  0.2476  0.1648  0.0204
29187ION     NA49467   4.064  10.022  11.376 -0.0038  0.1138 -0.2789
29188ION     NA49468   2.171  13.404   3.619  0.0326  0.3021  0.0393
29189ION     NA49469  11.723  13.272   0.248 -0.0054 -0.0183 -0.0127
29190ION     NA49470   0.218   9.428  11.270 -0.0924 -0.1490  0.0618
29191ION     NA49471   2.626  12.680  10.583 -0.3533 -0.1546  0.0513
29192ION     NA49472   4.087  12.269   5.314  0.0533  0.1355 -0.1102
29193ION     NA49473   9.681  17.880  14.014  0.0374 -0.1741  0.0580
29194ION     NA49474  11.720   2.062  12.568  0.2758  0.1619 -0.0209
29195ION     NA49475   4.885   1.744   3.754 -0.3468 -0.2057  0.1061
29196ION     NA49476  10.034   1.765   5.570 -0.1018 -0.0945 -0.0810
29197ION     NA49477  15.174   9.916  13.551 -0.1186  0.1343  0.2090
29198ION     NA49478   1.728  11.974   0.948  0.0248 -0.1859  0.2695
29199ION     NA49479  15.400   9.097  15.536  0.0081 -0.1446  0.0915
29200ION     NA49480   5.241   3.757   1.411 -0.1762  0.2234  0.4028
29201ION     NA49481   3.859   4.961  14.315 -0.0924  0.2320 -0.0659
29202ION     NA49482  17.479   0.949  14.742 -0.1170 -0.2306  0.0607
29203ION     NA49483  10.122   5.941  13.897  0.0719 -0.0111 -0.0877
29204ION     NA49484   1.788   2.099   5.363  0.0238  0.1400 -0.1165
29205ION     NA49485  17.001   3.887  12.827  0.0082 -0.5265 -0.0807
29206ION     NA49486   1.528   8.851  10.953  0.4088 -0.0232 -0.0167
29207ION     NA49487   6.459   3.080   1.385 -0.3327  0.1566  0.4320
29208ION     NA49488  15.994   5.112   1.720  0.1036 -0.0026  0.0017
29209ION     NA49489  17.001   5.680  12.727 -0.0380 -0.2407  0.1964
29210ION     NA49490   3.738   7.710  11.731 -0.0310 -0.0919 -0.0283
29211ION     NA49491   1.975   4.906   4.835  0.0555  0.0303  0.2470
29212ION     NA49492   5.892  17.819   1.163 -0.0637 -0.0423  0.1983
29213ION     NA49493  15.843   6.975   0.347  0.2176  0.0084  0.1441
29214ION     NA49494  12.639   9.961   2.083  0.0075 -0.3012  0.2208
29215ION     NA49495  15.730   4.586  10.800  0.0599  0.2218 -0.1091
29216ION     NA49496   9.365   4.840  14.594  0.1692  0.0405 -0.2476
29217ION     NA49497   7.940   9.679   4.786  0.1693  0.1362 -0.0777
29218ION     NA49498   7.757   2.223  10.690  0.5158  0.0803  0.1741
29219ION     NA49499   4.606   0.281   4.649 -0.2419 -0.1248 -0.3405
29220ION     NA49500   9.889  11.574  12.539 -0.2693 -0.0048  0.0143
29221ION     NA49501  10.364  10.914  10.337  0.0788  0.2226 -0.0717
29222ION     NA49502  10.675   4.587   4.911 -0.3012 -0.0585 -0.3086
29223ION     NA49503   6.428  11.745   5.369 -0.1989 -0.0491  0.0847
29224ION     NA49504  13.632   1.260  13.542 -0.2082 -0.1950 -0.2037
29225ION     NA49505   3.827  17.017   3.446  0.5879  0.1549 -0.0519
29226ION     NA49506   3.344   0.752  15.659 -0.2138 -0.1663  0.2578
29227ION     NA49507  16.508  16.405   4.869  0.0325 -0.1360  0.1141
29228ION     NA49508  16.776  12.267  10.784  0.2304 -0.5283 -0.0057
29229ION     NA49509  17.331  15.069  13.615  0.2162  0.3641 -0.0753
29230ION     NA49510   8.777  17.578  10.741  0.1461 -0.3234  0.0872
29231ION     NA49511   0.671  12.137   5.167 -0.0770  0.2734  0.0749
29232ION     NA49512   9.684  16.123  14.616 -0.0811 -0.1590 -0.4226
29233ION     NA49513   0.721   3.053  10.696  0.0285  0.1773 -0.0256
29234ION     NA49514   0.285   5.035  13.238 -0.0375  0.5002 -0.0912
29235ION     NA49515   7.632  12.191   1.489 -0.1823  0.0521  0.0127
29236ION     NA49516   2.920   9.563  10.777  0.0229  0.1041 -0.2773
29237ION     NA49517  14.161   2.351  10.633 -0.0862 -0.0927  0.1185
29238ION     NA49518  16.769  16.758  12.109 -0.2613 -0.1904  0.0322
29239ION     NA49519   8.235   2.137  15.522  0.2702 -0.0542  0.1128
29240ION     NA49520  13.089   8.745   2.701 -0.2352  0.1003  0.1483
29241ION     NA49521  16.559   2.660   1.477 -0.2589 -0.0526 -0.3167
29242ION     NA49522   8.842   2.947   5.108 -0.0328  0.0842  0.0737
29243ION     NA49523  15.854  16.295   0.859 -0.2514  0.0699  0.3990
29244ION     NA49524   0.046   9.093   5.470 -0.1418  0.1173  0.0819
29245ION     NA49525   5.407   0.205   1.723 -0.1942 -0.1133 -0.1827
29246ION     NA49526  18.240  17.626   1.025  0.4199  0.0268 -0.3060
29247ION     NA49527  11.223  12.181  10.738 -0.1513  0.1072 -0.4016
29248ION     NA49528   7.236  12.675   5.763 -0.1240  0.2054  0.0280
29249ION     NA49529  16.575   3.259  12.070 -0.0935  0.1278 -0.0351
29250ION     NA49530   0.990   8.611   3.157 -0.1674 -0.0520  0.2457
29251ION     NA49531  11.275   3.035  12.682  0.0529  0.0844  0.1125
29252ION     NA49532   3.757   8.282   5.226 -0.0435 -0.1107  0.1459
29253ION     NA49533  15.439  16.879   0.156  0.0643  0.2200  0.2156
29254ION     NA49534   7.795  13.227   5.747 -0.0960 -0.2549 -0.3410
29255ION     NA49535  15.147   3.787   5.140  0.0566  0.0930 -0.0739
29256ION     NA49536  15.356  15.161  10.807 -0.1731  0.0640 -0.2855
29257ION     NA49537  14.021   5.455   0.102 -0.1481  0.1581 -0.0375
29258ION     NA49538   7.019   4.584   1.034  0.0405 -0.0395  0.1222
29259ION     NA49539   9.055  15.097  10.843  0.2411  0.2192 -0.0620
29260ION     NA49540  12.115  15.185  10.678  0.1908 -0.3460 -0.2134
29261ION     NA49541   0.536  10.941  14.263  0.0366 -0.1138 -0.2033
29262ION     NA49542  11.395   5.012  13.045 -0.2146  0.1641 -0.3221
29263ION     NA49543  10.281   6.093  12.517  0.1109 -0.0540  0.2307
29264ION     NA49544  11.829  14.993   2.282  0.1962 -0.2608  0.1179
29265ION     NA49545   5.660   3.411  10.494  0.2156 -0.1005 -0.0921
29266ION     NA49546  10.284  13.706  11.225 -0.3020 -0.1772 -0.2657
29267ION     NA49547  13.872  18.005  11.456 -0.1396 -0.0366  0.1442
29268ION     NA49548   5.347   6.850   2.876 -0.0167 -0.2071  0.2366
29269ION     NA49549   7.099  16.965  14.965 -0.2274 -0.0861 -0.1534
29270ION     NA49550   2.500   5.519   4.752 -0.1171  0.0438 -0.0923
29271ION     NA49551   3.980  11.229   5.436 -0.2780  0.1480 -0.0274
29272ION     NA49552  11.635  16.134  10.714  0.1078 -0.1425 -0.2476
29273ION     NA49553   5.194   2.923  14.477 -0.0397  0.0921  0.1939
29274ION     NA49554   9.791   8.566   5.177  0.3024  0.2950 -0.3024
29275ION     NA49555   8.364   5.472  12.664 -0.0953  0.0309 -0.1874
29276ION     NA49556  15.417  14.053  10.720 -0.1732 -0.1608 -0.2187
29277ION     NA49557  14.538  14.065   0.387 -0.0841 -0.2402 -0.0492
29278ION     NA49558  16.094   6.927   4.369 -0.1911 -0.2215  0.2081
29279ION     NA49559   5.357   6.304  10.665  0.0796  0.2346 -0.2098
29280ION     NA49560   9.680  13.061  14.070  0.0344  0.0108 -0.1188
29281ION     NA49561  17.977   8.082   2.118  0.0154 -0.0059 -0.0944
29282ION     NA49562  18.201   0.863   5.370 -0.1597  0.3414  0.2987
29283ION     NA49563   8.420   6.603   1.392 -0.1664 -0.0119  0.0713
29284ION     NA49564   3.499   8.996  14.254 -0.0356 -0.2582 -0.0516
29285ION     NA49565   7.462  12.377   3.410 -0.1150  0.1291 -0.2194
29286ION     NA49566   6.811  10.830  15.447 -0.0340  0.1525 -0.0647
29287ION     NA49567  10.695  14.757  12.511  0.2127  0.4663  0.0683
29288ION     NA49568   9.266   9.412   5.294 -0.2948 -0.0174 -0.2103
29289ION     NA49569   8.287   5.322  14.886  0.0705  0.0367  0.4456
29290ION     NA49570  17.194  13.895   3.464 -0.1926  0.1035 -0.1040
29291ION     NA49571   6.170  15.369   5.159  0.0558 -0.0021 -0.3226
29292ION     NA49572   7.296  12.408  15.538  0.3160  0.0539 -0.0988
29293ION     NA49573   4.207  14.901  11.048  0.1769  0.1191 -0.2221
29294ION     NA49574  16.126  12.060  13.390 -0.2105 -0.0460 -0.0121
29295ION     NA49575  16.890  14.292   2.562 -0.1929 -0.2064  0.1249
29296ION     NA49576   2.853   4.958   0.859  0.1452  0.3335 -0.0740
29297ION     NA49577  11.255   3.575   3.693  0.0998  0.0209 -0.4056
29298ION     NA49578  13.318   2.531  13.507 -0.1543 -0.1013  0.1289
29299ION     NA49579   3.153  11.646  13.346 -0.0109  0.0138 -0.0131
29300ION     NA49580  17.073  13.849   5.214 -0.1760 -0.0710 -0.0814
29301ION     NA49581  16.267  15.669  10.737  0.1459 -0.0648  0.0614
29302ION     NA49582  16.089   9.036  11.083  0.1061 -0.0654  0.0421
29303ION     NA49583   5.383   0.618  15.545  0.0594 -0.3941 -0.2721
29304ION     NA49584   7.716   2.632   4.324  0.2813  0.1800 -0.1856
29305ION     NA49585  17.061   8.946  11.394 -0.2553 -0.1356 -0.3343
29306ION     NA49586   2.977   8.841  11.553  0.4049  0.3577 -0.0393
29307ION     NA49587  16.376   0.582  12.807  0.0294 -0.1124  0.0492
29308ION     NA49588   4.060  15.719   4.674  0.2770  0.2101 -0.1496
29309ION     NA49589   6.439  10.542  12.220 -0.1898  0.0708 -0.0431
29310ION     NA49590  14.457   3.482  14.865 -0.1689 -0.2798 -0.0269
29311ION     NA49591  17.153   4.038   2.030 -0.0148 -0.2606 -0.1607
29312ION     NA49592   1.514   5.035   2.709 -0.2110  0.0144  0.3304
29313ION     NA49593   8.604   6.092   2.442 -0.1605  0.2322  0.2558
29314ION     NA49594  17.573   5.416   3.891 -0.2698  0.1716  0.0816
29315ION     NA49595  12.867  14.226  10.646 -0.3012  0.3750  0.1746
29316ION     NA49596   7.436   3.395   3.126 -0.1102 -0.0811  0.0477
29317ION     NA49597   6.958  10.181   2.270 -0.0677  0.0151  0.0061
29318ION     NA49598   0.118  13.715  15.695 -0.2001  0.1561 -0.2410
29319ION     NA49599  16.512   6.165  14.806  0.0997  0.2241  0.1662
29320ION     NA49600  13.844  11.446  13.603  0.0268  0.1861 -0.1051
29321ION     NA49601  17.552   2.698   1.706 -0.1628 -0.1666 -0.0930
29322ION     NA49602  17.989   0.705  11.781 -0.0032 -0.1423  0.1405
29323ION     NA49603   3.308  14.621   0.626  0.3016  0.1826 -0.0312
29324ION     NA49604   1.694   5.219  14.970 -0.0989  0.1294  0.0783
29325ION     NA49605  14.587   6.944   1.047 -0.1164  0.0163 -0.0400
29326ION     NA49606  14.313  11.831   5.640  0.0940  0.0847  0.0761
29327ION     NA49607   2.177  17.079  13.040 -0.0938 -0.0725  0.2743
29328ION     NA49608  14.960   0.297  15.919  0.0655  0.2569  0.0932
29329ION     NA49609   0.096   8.592   5.545 -0.1489  0.1041  0.0335
29330ION     NA49610  18.274   4.961  11.274  0.1597 -0.2291 -0.0118
29331ION     NA49611   4.540   9.892  11.655 -0.0746 -0.0324 -0.0269
29332ION     NA49612  10.504  11.889   5.551 -0.0485 -0.0858  0.1263
29333ION     NA49613  15.719   9.782  12.670 -0.2005  0.1184 -0.1969
29334ION     NA49614   8.205  11.882   1.838 -0.1735 -0.0369  0.0349
29335ION     NA49615   1.370   6.600   3.261 -0.0829 -0.1190 -0.1189
29336ION     NA49616  13.539  10.061   0.530  0.2457 -0.0625 -0.1175
29337ION     NA49617   1.014  15.713   5.341  0.0892 -0.1248 -0.1492
29338ION     NA49618  11.381   9.918   2.141 -0.0730 -0.0384 -0.1705
29339ION     NA49619   7.143   1.955   4.505  0.0448 -0.1039  0.1855
29340ION     NA49620  16.489   2.366  10.472  0.2010  0.3069  0.0128
29341ION     NA49621  14.972   3.896  10.514 -0.2093  0.2081 -0.0593
29342ION     NA49622   4.496   3.114  12.261  0.2252  0.2728 -0.1490
29343ION     NA49623   8.084  12.394  10.662 -0.2298  0.1617  0.0861
29344ION     NA49624   8.928   8.445   5.176 -0.1896  0.1441  0.1562
29345ION     NA49625   7.254   3.019   5.449  0.0900 -0.1795 -0.2804
29346ION     NA49626  16.013   9.751   5.810  0.0498  0.1851  0.0656
29347ION     NA49627   4.225  15.120   4.852  0.2345  0.0095 -0.1295
29348ION     NA49628   0.176  11.158   1.247  0.1215 -0.1916 -0.1167
29349ION     NA49629   2.042   4.910  15.700 -0.1565  0.4303  0.0275
29350ION     NA49630  17.683   4.657   5.388  0.1547  0.1425 -0.4259
29351ION     NA49631   8.145  10.812   1.034 -0.1167  0.0177  0.0504
29352ION     NA49632   7.513   7.080  14.866  0.1585 -0.1076  0.0306
29353ION     NA49633   4.970  16.116   4.851 -0.2554 -0.0429  0.1692
29354ION     NA49634   4.216   2.790   3.178  0.0576 -0.1859 -0.1558
29355ION     NA49635   4.714  12.131  12.522 -0.0327  0.1097 -0.0530
29356ION     NA49636  11.546  10.844   2.452 -0.2909  0.2667  0.0209
29357ION     NA49637   6.174  14.997  10.714 -0.0726  0.2918  0.2865
29358ION     NA49638   3.273  15.612   5.014 -0.1990  0.0075 -0.1628
29359ION     NA49639  14.512  15.846   3.003  0.2405 -0.2346  0.0221
29360ION     NA49640   4.638   5.462  14.207  0.0785  0.2321  0.3583
29361ION     NA49641  12.142   0.838   3.699  0.1696  0.1185  0.2242
29362ION     NA49642  16.239   3.841  10.772 -0.1884  0.0641  0.1040
29363ION     NA49643   5.359   9.039  12.979 -0.0818  0.2333  0.0039
29364ION     NA49644  14.712  15.857  11.032 -0.0002 -0.0739 -0.2128
29365ION     NA49645  11.113  17.044   4.201  0.3136  0.1057 -0.2899
29366ION     NA49646   6.471  16.612  10.428  0.2270  0.1708  0.1782
29367ION     NA49647  15.150   6.095  10.934 -0.0209  0.0516  0.1439
29368ION     NA49648  12.921   5.167  15.083 -0.2437 -0.1764 -0.3925
29369ION     NA49649  17.468  14.454  15.838  0.0095 -0.1187 -0.1695
29370ION     NA49650  10.299  17.981   1.396 -0.2287  0.0007  0.1248
29371ION     NA49651   3.571  13.996  10.838  0.0899  0.0464 -0.0740
29372ION     NA49652   7.752   7.939  14.533 -0.0143  0.1383 -0.0430
29373ION     NA49653   6.266  18.029   3.130 -0.1919 -0.2306 -0.0114
29374ION     NA49654   2.139  17.685   0.167 -0.1523  0.1072  0.0246
29375ION     NA49655  10.583  15.029  10.746  0.2134  0.1405  0.0710
29376ION     NA49656  15.851   1.766  14.564  0.2149 -0.2433  0.0038
29377ION     NA49657  10.542   2.192  10.307 -0.0585  0.2283  0.3529
29378ION     NA49658   0.069   0.488   3.363  0.0551  0.1834  0.0939
29379ION     NA49659   2.106   4.307  11.715 -0.0419 -0.1385  0.1318
29380ION     NA49660  11.918  11.792  10.692 -0.1850 -0.0262  0.1400
29381ION     NA49661  14.004   0.059   4.785  0.1086 -0.1236 -0.0402
29382ION     NA49662   6.423   8.865   4.437  0.1175 -0.1705  0.2535
29383ION     NA49663   7.257   8.135   5.306 -0.0506  0.1362 -0.0608
29384ION     NA49664   3.923  11.238  15.025 -0.1902 -0.1041 -0.0598
29385ION     NA49665   2.106  15.098   5.110  0.2699  0.4120 -0.0331
29386ION     NA49666   7.370   3.148  13.143  0.0496 -0.2164 -0.1074
29387ION     NA49667   9.902   1.632   1.112  0.0461  0.0718  0.0453
29388ION     NA49668   3.298  16.685   1.281  0.1974 -0.1385  0.1032
29389ION     NA49669  15.964  11.339  15.584  0.3396  0.2939  0.0382
29390ION     NA49670  14.567  12.522   5.363 -0.1883  0.3173  0.0421
29391ION     NA49671  15.895   3.019  10.800  0.1081 -0.2237 -0.0827
29392ION     NA49672   2.440  10.232  15.410 -0.2016  0.0160  0.1210
29393ION     NA49673  17.442  12.981  10.903 -0.0816  0.0708  0.1253
29394ION     NA49674  10.826  15.895   1.709 -0.1921 -0.0618  0.0743
29395ION     NA49675   1.346  14.465   5.414 -0.4132 -0.1006  0.0699
  18.33628  18.33628  15.93869
