INSANE! Membrane UpperLeaflet>loPI=1.0 LowerLeaflet>PSPI:POPI:POPS:YOPS:POPE:YOPE:POPC:YOPC:ERGO=6.0:14.0:21.0:9.0:9.0:21.0:12.0:48.0:60.0
49877
    1loPI    C1    1  13.097   2.051  10.052  0.2146  0.2183 -0.0954
    1loPI    C2    2  13.056   2.217  10.414  0.0575  0.0363 -0.0276
    1loPI    C3    3  12.934   1.841  10.352  0.1796  0.0307 -0.2437
    1loPI   PO4    4  13.354   2.147   9.927 -0.1286  0.0766  0.0162
    1loPI   GL1    5  13.288   2.279   9.519  0.0714 -0.3345 -0.1557
    1loPI   GL2    6  13.347   2.018   9.252 -0.0301 -0.1418  0.0395
    1loPI   C1A    7  13.162   2.516   9.070  0.2692 -0.0856 -0.3433
    1loPI   C2A    8  13.103   2.773   8.662 -0.1496 -0.5652 -0.3775
    1loPI   C3A    9  13.000   2.618   8.212  0.2514 -0.2087  0.0458
    1loPI   C4A   10  13.147   2.542   7.907 -0.1953  0.2144  0.1459
    1loPI   C5A   11  13.359   2.514   7.468 -0.3702 -0.1003 -0.1751
    1loPI   C6A   12  13.728   2.562   7.282 -0.2479 -0.1100  0.3564
    1loPI   C1B   13  13.136   1.919   8.852  0.2366 -0.0115  0.4878
    1loPI   C2B   14  13.106   1.664   8.488  0.1382 -0.1547 -0.1033
    1loPI   C3B   15  13.420   1.690   8.215  0.2418  0.0648  0.0359
    1loPI   C4B   16  13.828   1.766   8.003  0.0496  0.2385  0.1269
    2loPI    C1   17  18.156   5.672   9.759 -0.1250 -0.0007  0.0819
    2loPI    C2   18  18.062   5.346   9.971 -0.0461 -0.0390  0.0586
    2loPI    C3   19  18.424   5.511  10.009 -0.0340 -0.0425 -0.0421
    2loPI   PO4   20  18.050   5.582   9.566 -0.0065  0.1284  0.0081
    2loPI   GL1   21  18.111   5.469   9.154 -0.1270  0.0189  0.1247
    2loPI   GL2   22  18.317   5.765   9.191  0.3050  0.2956  0.1028
    2loPI   C1A   23  18.019   5.510   8.662  0.2184  0.0763  0.0257
    2loPI   C2A   24  17.847   5.392   8.195  0.3168  0.0787  0.2274
    2loPI   C3A   25  17.497   5.327   7.884  0.0585  0.1890 -0.3483
    2loPI   C4A   26  17.247   5.139   7.717  0.1479  0.2053 -0.2365
    2loPI   C5A   27  17.442   4.995   7.393 -0.3612 -0.1266 -0.1194
    2loPI   C6A   28  17.764   5.143   7.028 -0.1766  0.5648  0.1123
    2loPI   C1B   29  18.061   5.989   8.786  0.1843 -0.0085 -0.3904
    2loPI   C2B   30  18.079   5.886   8.340  0.2122 -0.0514 -0.0138
    2loPI   C3B   31  18.379   5.655   8.086  0.0461 -0.0446 -0.3102
    2loPI   C4B   32  18.588   5.626   7.650 -0.0197 -0.0085  0.0019
    3loPI    C1   33  16.114  12.312   9.816 -0.0519 -0.2065 -0.0832
    3loPI    C2   34  16.145  11.929   9.927  0.0815 -0.1721  0.0009
    3loPI    C3   35  16.160  12.219  10.202 -0.2159 -0.1147 -0.0407
    3loPI   PO4   36  16.061  12.285   9.533 -0.1714 -0.0525 -0.0725
    3loPI   GL1   37  16.076  12.256   9.039  0.2182  0.0990  0.0539
    3loPI   GL2   38  16.313  12.403   9.055  0.0749 -0.4692  0.0393
    3loPI   C1A   39  15.907  12.074   8.708 -0.3993  0.0480  0.1411
    3loPI   C2A   40  15.715  11.921   8.392  0.0487  0.1118  0.1947
    3loPI   C3A   41  15.698  11.649   8.067  0.3393 -0.3081 -0.1801
    3loPI   C4A   42  15.649  11.640   7.603 -0.2102  0.0956 -0.0916
    3loPI   C5A   43  15.908  11.776   7.310 -0.1455 -0.0926  0.2115
    3loPI   C6A   44  15.781  12.061   7.076  0.2137  0.0775  0.0982
    3loPI   C1B   45  16.297  12.365   8.595  0.0526  0.0631  0.1938
    3loPI   C2B   46  16.279  12.490   8.056 -0.2150  0.3101 -0.2372
    3loPI   C3B   47  16.460  12.559   7.638  0.1917 -0.2752 -0.0787
    3loPI   C4B   48  16.782  12.934   7.484 -0.1701  0.3147 -0.1466
    4loPI    C1   49   3.794  10.906   9.189  0.2308  0.2707  0.1591
    4loPI    C2   50   3.678  10.647   9.472  0.2574  0.1253  0.0383
    4loPI    C3   51   3.757  11.027   9.569  0.3199  0.0629  0.2358
    4loPI   PO4   52   3.918  10.746   9.005 -0.3758  0.0229  0.1640
    4loPI   GL1   53   3.974  10.620   8.670  0.0517  0.1194  0.0463
    4loPI   GL2   54   4.260  10.804   8.604 -0.0582  0.0739 -0.1554
    4loPI   C1A   55   3.820  10.406   8.286 -0.1574  0.2162 -0.4098
    4loPI   C2A   56   3.857  10.512   7.838  0.0438  0.3369 -0.0172
    4loPI   C3A   57   4.064  10.492   7.468  0.2516 -0.1680  0.2607
    4loPI   C4A   58   4.181  10.349   7.125  0.0213 -0.3094  0.0358
    4loPI   C5A   59   4.428  10.178   6.849  0.2093 -0.0655  0.1608
    4loPI   C6A   60   4.879  10.378   6.819  0.0086 -0.0507 -0.0711
    4loPI   C1B   61   4.518  10.854   8.232  0.3226 -0.0950  0.0268
    4loPI   C2B   62   4.668  11.099   7.872  0.0714  0.3380  0.1780
    4loPI   C3B   63   4.702  11.030   7.418 -0.1148  0.2667  0.1232
    4loPI   C4B   64   4.843  10.915   6.967 -0.1996 -0.0283  0.1039
    5loPI    C1   65   7.074  19.881   9.189  0.3803  0.1153  0.0602
    5loPI    C2   66   6.814  20.135   9.355 -0.0934 -0.1792 -0.2051
    5loPI    C3   67   7.039  19.899   9.587  0.1628  0.2862  0.0351
    5loPI   PO4   68   7.211  20.114   8.913 -0.0174 -0.0961 -0.1258
    5loPI   GL1   69   7.343  20.159   8.563  0.2239 -0.0149 -0.0751
    5loPI   GL2   70   7.573  20.447   8.418  0.0440  0.1290  0.0907
    5loPI   C1A   71   7.380  19.984   8.154  0.0475  0.0389 -0.0264
    5loPI   C2A   72   7.479  20.075   7.788  0.1022 -0.0816 -0.0553
    5loPI   C3A   73   7.462  20.332   7.348 -0.1248 -0.3297  0.2896
    5loPI   C4A   74   7.324  20.347   6.911  0.3249  0.2334 -0.2215
    5loPI   C5A   75   7.332  20.206   6.514 -0.0232  0.1428 -0.0743
    5loPI   C6A   76   7.309  19.826   6.244 -0.1936  0.1796 -0.1816
    5loPI   C1B   77   7.676  20.514   7.996 -0.2811 -0.2218 -0.2144
    5loPI   C2B   78   7.685  20.733   7.602 -0.0983 -0.1572 -0.2449
    5loPI   C3B   79   7.535  20.822   7.140  0.1979  0.0963 -0.2517
    5loPI   C4B   80   7.305  20.814   6.750  0.5230  0.1283  0.2386
    6loPI    C1   81  10.471   2.907   9.791  0.2174 -0.0004  0.1011
    6loPI    C2   82  10.615   2.540   9.719 -0.0181 -0.0747 -0.0001
    6loPI    C3   83  10.368   2.601  10.028  0.0778  0.0137  0.0596
    6loPI   PO4   84  10.464   2.989   9.536 -0.4295  0.0347  0.4296
    6loPI   GL1   85  10.573   2.800   9.202  0.0050 -0.0649 -0.1867
    6loPI   GL2   86  10.950   2.656   9.241 -0.0413  0.4583 -0.1638
    6loPI   C1A   87  10.497   2.609   8.770 -0.0851  0.0500 -0.2325
    6loPI   C2A   88  10.457   2.661   8.323  0.1066  0.1693  0.3093
    6loPI   C3A   89  10.412   2.750   7.888  0.1476 -0.2052 -0.0571
    6loPI   C4A   90  10.275   2.794   7.504 -0.1612  0.1652  0.3860
    6loPI   C5A   91  10.147   2.536   7.154  0.2064  0.3011 -0.2637
    6loPI   C6A   92   9.869   2.402   6.785  0.2710 -0.0940 -0.1660
    6loPI   C1B   93  10.893   2.874   8.815 -0.2211 -0.0495 -0.2174
    6loPI   C2B   94  10.758   3.127   8.471 -0.2561  0.1172  0.1009
    6loPI   C3B   95  10.777   3.209   8.019  0.0322  0.3335  0.0194
    6loPI   C4B   96  10.900   3.040   7.580 -0.3215  0.0095 -0.0393
    7loPI    C1   97  16.728  19.018   9.718 -0.0966 -0.1052 -0.0408
    7loPI    C2   98  16.802  19.267   9.414 -0.0821 -0.1344 -0.0610
    7loPI    C3   99  16.505  19.347   9.671 -0.0724 -0.0922 -0.0630
    7loPI   PO4  100  16.621  18.781   9.540  0.1541 -0.2023  0.0503
    7loPI   GL1  101  16.387  18.685   9.089  0.3138  0.0326  0.1391
    7loPI   GL2  102  16.343  18.444   8.992 -0.3457 -0.0055 -0.3773
    7loPI   C1A  103  16.472  18.790   8.591 -0.0952  0.1157 -0.0598
    7loPI   C2A  104  16.380  18.929   8.162 -0.1900 -0.2762  0.1115
    7loPI   C3A  105  16.248  18.885   7.715 -0.0047 -0.0171  0.1318
    7loPI   C4A  106  16.123  18.775   7.329  0.1938  0.2012  0.0587
    7loPI   C5A  107  15.845  18.634   6.985  0.2928 -0.2535  0.0182
    7loPI   C6A  108  15.666  18.944   6.628 -0.1290  0.0599  0.1877
    7loPI   C1B  109  16.232  18.076   8.662  0.2372 -0.0728  0.1272
    7loPI   C2B  110  16.161  18.057   8.335 -0.0742 -0.0757 -0.3206
    7loPI   C3B  111  16.457  18.126   7.895  0.1902  0.3846  0.0305
    7loPI   C4B  112  16.978  18.212   7.778 -0.0038 -0.0950  0.3026
    8loPI    C1  113  12.147  15.670   9.385  0.0689  0.3321  0.0992
    8loPI    C2  114  12.278  15.587   9.754 -0.0118  0.1259  0.0827
    8loPI    C3  115  11.887  15.568   9.671  0.0301 -0.0761 -0.0753
    8loPI   PO4  116  12.421  15.833   9.341  0.0578  0.0360  0.1869
    8loPI   GL1  117  12.574  15.687   8.950  0.3313 -0.1902 -0.1368
    8loPI   GL2  118  12.335  15.744   8.847 -0.1460  0.1099 -0.1631
    8loPI   C1A  119  12.587  15.905   8.500  0.2109 -0.1206  0.2264
    8loPI   C2A  120  12.705  16.067   7.947 -0.2046 -0.0928  0.1249
    8loPI   C3A  121  12.765  15.858   7.530 -0.3095 -0.0349 -0.2394
    8loPI   C4A  122  12.737  15.725   7.117 -0.3169 -0.0706 -0.1781
    8loPI   C5A  123  12.361  15.550   6.898 -0.4797  0.0803  0.0402
    8loPI   C6A  124  11.973  15.244   6.873 -0.1359 -0.0985 -0.2429
    8loPI   C1B  125  12.098  15.660   8.354 -0.0122 -0.2055 -0.3298
    8loPI   C2B  126  11.858  15.619   8.000 -0.0212 -0.1561 -0.2594
    8loPI   C3B  127  11.923  15.724   7.531  0.1465 -0.1588 -0.1435
    8loPI   C4B  128  11.848  15.707   7.133 -0.1052  0.1856  0.0384
    9loPI    C1  129  19.833  16.129   9.491  0.0521  0.0195  0.2634
    9loPI    C2  130  19.730  15.743   9.507 -0.0776  0.0437  0.0603
    9loPI    C3  131  19.738  15.963   9.842 -0.1057 -0.1081  0.1616
    9loPI   PO4  132  19.877  16.166   9.180  0.0469 -0.0487  0.0360
    9loPI   GL1  133  19.766  16.283   8.830  0.1989  0.0772 -0.4773
    9loPI   GL2  134  20.038  15.913   8.738 -0.0560  0.2847  0.2760
    9loPI   C1A  135  19.443  16.421   8.539 -0.1813 -0.2031  0.1792
    9loPI   C2A  136  19.469  16.447   8.077  0.0380  0.0259 -0.0731
    9loPI   C3A  137  19.391  16.318   7.640  0.2959 -0.2338  0.0828
    9loPI   C4A  138  19.538  16.256   7.176  0.0983  0.0348 -0.3259
    9loPI   C5A  139  19.435  16.391   6.690  0.2969  0.1295 -0.0976
    9loPI   C6A  140  19.779  16.485   6.477 -0.0509  0.1041 -0.1711
    9loPI   C1B  141  19.849  16.013   8.385 -0.3122 -0.2188 -0.2412
    9loPI   C2B  142  19.576  16.008   8.137 -0.0743 -0.1231 -0.0522
    9loPI   C3B  143  19.361  15.872   7.848  0.2318 -0.1255 -0.2904
    9loPI   C4B  144  19.154  15.996   7.389  0.0457  0.1430  0.1472
   10loPI    C1  145   7.232   5.249   9.563 -0.1111 -0.0759  0.0441
   10loPI    C2  146   7.530   5.471   9.711  0.0045 -0.2045  0.0057
   10loPI    C3  147   7.294   5.263   9.958 -0.2670  0.1620  0.0619
   10loPI   PO4  148   7.371   5.168   9.248 -0.0389 -0.0027  0.1737
   10loPI   GL1  149   7.513   4.910   8.878 -0.4196  0.2615  0.2664
   10loPI   GL2  150   7.215   5.102   8.795 -0.0208 -0.5003  0.0479
   10loPI   C1A  151   7.904   4.700   8.675  0.0394 -0.0906  0.1220
   10loPI   C2A  152   7.824   4.823   8.167  0.0827  0.3671  0.1805
   10loPI   C3A  153   7.973   4.833   7.695 -0.0551  0.1414 -0.1776
   10loPI   C4A  154   8.197   4.623   7.334 -0.0632 -0.2930 -0.0253
   10loPI   C5A  155   8.252   4.393   6.902  0.1719 -0.4563  0.2222
   10loPI   C6A  156   8.100   4.574   6.462 -0.2915  0.2717 -0.2075
   10loPI   C1B  157   7.461   4.937   8.398 -0.3031  0.2942 -0.1140
   10loPI   C2B  158   7.466   4.918   7.900 -0.6069  0.0876 -0.2121
   10loPI   C3B  159   7.673   5.204   7.647 -0.1551  0.0689 -0.2582
   10loPI   C4B  160   7.864   5.177   7.314 -0.1607  0.0540 -0.0738
   11loPI    C1  161   1.322  11.251   9.276 -0.0451  0.0723  0.4087
   11loPI    C2  162   1.127  10.907   9.340 -0.0651  0.0399  0.1833
   11loPI    C3  163   1.489  10.966   9.501 -0.0507 -0.0970  0.2019
   11loPI   PO4  164   1.254  11.323   8.999 -0.0173  0.0675 -0.1928
   11loPI   GL1  165   1.102  11.262   8.574 -0.3351  0.2715 -0.0164
   11loPI   GL2  166   1.208  11.556   8.393  0.0594 -0.2392  0.1801
   11loPI   C1A  167   1.102  11.037   8.166  0.1280  0.1470  0.0342
   11loPI   C2A  168   0.982  11.116   7.702 -0.1551 -0.1072  0.1957
   11loPI   C3A  169   0.945  11.208   7.282  0.2435  0.0651 -0.2070
   11loPI   C4A  170   0.796  11.448   6.977  0.0544 -0.1320 -0.4900
   11loPI   C5A  171   0.678  11.778   6.686  0.3243 -0.2729 -0.4011
   11loPI   C6A  172   0.945  11.591   6.384  0.1832  0.0620  0.5120
   11loPI   C1B  173   1.194  11.559   7.924 -0.1603  0.2574  0.1102
   11loPI   C2B  174   1.048  11.758   7.456 -0.2960  0.1236  0.0058
   11loPI   C3B  175   1.128  11.808   7.012  0.1284 -0.0847  0.3502
   11loPI   C4B  176   1.241  12.003   6.631 -0.0162 -0.0228 -0.0631
   12loPI    C1  177   3.466   7.945   9.003 -0.0003 -0.1782 -0.0089
   12loPI    C2  178   3.501   8.329   9.112 -0.0887 -0.1360 -0.1271
   12loPI    C3  179   3.627   8.039   9.357  0.0872 -0.0277 -0.0878
   12loPI   PO4  180   3.434   8.029   8.637 -0.2603  0.2114  0.1572
   12loPI   GL1  181   3.568   8.187   8.328 -0.0392  0.3148 -0.0085
   12loPI   GL2  182   3.866   8.265   8.414 -0.0755 -0.0934  0.0978
   12loPI   C1A  183   3.599   8.386   7.847 -0.2893  0.1608 -0.2164
   12loPI   C2A  184   3.731   8.372   7.433 -0.2983  0.0940 -0.0951
   12loPI   C3A  185   3.881   8.512   7.079  0.0046 -0.1383  0.1267
   12loPI   C4A  186   4.209   8.709   6.879 -0.0370  0.3020 -0.1179
   12loPI   C5A  187   4.629   8.526   6.728  0.0215 -0.1165 -0.1319
   12loPI   C6A  188   4.869   8.255   6.762 -0.2174  0.0836  0.1184
   12loPI   C1B  189   4.035   8.220   8.071  0.2718  0.2710  0.3374
   12loPI   C2B  190   4.082   8.122   7.661 -0.0401 -0.3847 -0.3789
   12loPI   C3B  191   4.140   8.082   7.150  0.1974 -0.1224  0.1895
   12loPI   C4B  192   4.253   8.205   6.826  0.4207 -0.2011  0.1123
   13loPI    C1  193   5.378  16.935   9.201  0.2071  0.0176  0.0334
   13loPI    C2  194   5.630  17.174   9.002 -0.2442  0.3383 -0.1697
   13loPI    C3  195   5.511  17.272   9.371  0.1395  0.0411  0.0400
   13loPI   PO4  196   5.093  16.914   9.116 -0.1388  0.2156 -0.2276
   13loPI   GL1  197   4.848  16.701   8.664  0.0104 -0.1720  0.2957
   13loPI   GL2  198   4.939  16.458   8.497 -0.0676  0.1276  0.1995
   13loPI   C1A  199   4.679  16.672   8.148  0.2917  0.0503 -0.0371
   13loPI   C2A  200   4.715  16.763   7.773  0.1541  0.1854  0.2076
   13loPI   C3A  201   4.875  16.774   7.400  0.1477 -0.1996 -0.2543
   13loPI   C4A  202   4.649  16.969   6.915  0.0055 -0.2617 -0.0464
   13loPI   C5A  203   4.347  16.717   6.592  0.2233 -0.0568  0.1114
   13loPI   C6A  204   3.931  16.555   6.635 -0.0364  0.2652 -0.0606
   13loPI   C1B  205   5.104  16.365   8.066 -0.1828  0.1187 -0.0981
   13loPI   C2B  206   4.995  16.384   7.648  0.0130 -0.1918 -0.1924
   13loPI   C3B  207   4.967  16.322   7.163  0.1737  0.1837 -0.0096
   13loPI   C4B  208   4.567  16.444   6.971 -0.0590  0.0433 -0.2690
   14loPI    C1  209  19.646  11.664   9.796  0.1278  0.1212  0.0140
   14loPI    C2  210  19.823  11.821  10.118  0.1427  0.1771 -0.0214
   14loPI    C3  211  19.576  11.509  10.158  0.0878  0.2297  0.0531
   14loPI   PO4  212  19.464  11.768   9.514  0.3420 -0.1929 -0.2386
   14loPI   GL1  213  19.460  11.719   9.066  0.0953  0.0458 -0.0671
   14loPI   GL2  214  19.737  11.539   8.794  0.0595  0.0742  0.0732
   14loPI   C1A  215  19.201  11.749   8.720 -0.1531 -0.0777  0.0532
   14loPI   C2A  216  18.951  11.690   8.305 -0.0334  0.1784 -0.1494
   14loPI   C3A  217  18.879  11.815   7.828 -0.2614 -0.0899  0.1137
   14loPI   C4A  218  19.108  11.850   7.570  0.3984 -0.6753  0.4056
   14loPI   C5A  219  19.051  11.823   7.105 -0.3259 -0.1246  0.0469
   14loPI   C6A  220  18.723  11.687   6.753  0.0288  0.0871  0.0331
   14loPI   C1B  221  19.589  11.353   8.525  0.2720 -0.1811 -0.3217
   14loPI   C2B  222  19.501  11.542   8.136 -0.2464 -0.1501  0.0289
   14loPI   C3B  223  19.504  11.406   7.720 -0.1218  0.0756  0.0061
   14loPI   C4B  224  19.624  11.102   7.433 -0.2002  0.2279 -0.1648
   15loPI    C1  225   9.396   4.020   9.471 -0.2828 -0.0848 -0.0008
   15loPI    C2  226   9.593   4.304   9.673 -0.2291 -0.3150  0.2778
   15loPI    C3  227   9.219   4.371   9.547 -0.1124 -0.0146  0.0790
   15loPI   PO4  228   9.574   3.970   9.291 -0.0759 -0.0974 -0.0332
   15loPI   GL1  229   9.351   3.981   8.909 -0.1259 -0.0809  0.5802
   15loPI   GL2  230   9.462   3.687   8.923 -0.3051 -0.0448 -0.1446
   15loPI   C1A  231   9.094   4.100   8.567 -0.0412  0.1258 -0.2100
   15loPI   C2A  232   9.082   4.184   8.184  0.1002  0.3025  0.1918
   15loPI   C3A  233   9.113   4.057   7.759  0.0049 -0.1142  0.0830
   15loPI   C4A  234   9.150   4.243   7.339  0.0201 -0.1389  0.3608
   15loPI   C5A  235   9.359   4.075   6.986  0.1774  0.1078  0.1209
   15loPI   C6A  236   9.607   4.074   6.544 -0.3317  0.0993  0.2034
   15loPI   C1B  237   9.269   3.627   8.513  0.1479  0.1244 -0.1106
   15loPI   C2B  238   9.236   3.548   8.086  0.0600  0.0256  0.0479
   15loPI   C3B  239   9.237   3.592   7.638 -0.0091  0.0880  0.2852
   15loPI   C4B  240   9.261   3.701   7.282 -0.1460  0.0275 -0.2752
   16loPI    C1  241   0.690   7.467   9.175  0.0979 -0.1362  0.0337
   16loPI    C2  242   0.937   7.420   8.864  0.0659  0.2521 -0.0554
   16loPI    C3  243   0.922   7.142   9.151  0.1866 -0.0506 -0.3352
   16loPI   PO4  244   0.652   7.689   9.216  0.0579  0.2212  0.2280
   16loPI   GL1  245   0.370   7.743   8.915  0.1115 -0.2221  0.1639
   16loPI   GL2  246   0.167   7.485   8.995 -0.0586 -0.3878 -0.1977
   16loPI   C1A  247   0.607   7.650   8.563 -0.0722 -0.2362 -0.2167
   16loPI   C2A  248   0.529   7.717   8.070 -0.1981  0.2562 -0.2015
   16loPI   C3A  249   0.524   7.617   7.645  0.0479  0.0531 -0.1350
   16loPI   C4A  250   0.238   7.474   7.351 -0.0467  0.3115 -0.3859
   16loPI   C5A  251   0.086   7.514   6.900 -0.1395 -0.0184  0.4245
   16loPI   C6A  252   0.034   7.873   6.515  0.3875 -0.2872 -0.1246
   16loPI   C1B  253   0.064   7.538   8.485  0.5843  0.2620 -0.1906
   16loPI   C2B  254  -0.013   7.399   8.044  0.1615  0.2072  0.1800
   16loPI   C3B  255  -0.181   7.327   7.675  0.2199 -0.2899 -0.0124
   16loPI   C4B  256  -0.243   7.125   7.254  0.1390 -0.0632 -0.0984
   17loPI    C1  257   0.704  13.717   9.125  0.0111  0.0648  0.2628
   17loPI    C2  258   0.509  14.038   9.263  0.0243  0.0592  0.2944
   17loPI    C3  259   0.839  13.909   9.449  0.0424  0.0520  0.2573
   17loPI   PO4  260   0.689  13.765   8.847  0.2551  0.2405  0.2852
   17loPI   GL1  261   0.820  13.961   8.494 -0.0974 -0.0577  0.1578
   17loPI   GL2  262   1.102  14.044   8.607  0.2907 -0.0077  0.5132
   17loPI   C1A  263   1.043  13.935   8.093 -0.0401  0.0761 -0.2190
   17loPI   C2A  264   1.018  14.012   7.680  0.0509 -0.3337  0.1216
   17loPI   C3A  265   0.889  13.886   7.237  0.0198  0.1939 -0.2019
   17loPI   C4A  266   0.672  14.133   6.991  0.0675 -0.2181  0.4001
   17loPI   C5A  267   0.329  14.290   6.746 -0.1367  0.1214  0.0845
   17loPI   C6A  268  -0.019  14.514   6.539 -0.1074 -0.0668  0.0809
   17loPI   C1B  269   1.019  14.406   8.294  0.2327  0.2159  0.0105
   17loPI   C2B  270   0.880  14.484   7.878 -0.0210 -0.2191  0.1473
   17loPI   C3B  271   0.680  14.340   7.494  0.4096  0.1416 -0.0164
   17loPI   C4B  272   0.352  14.447   7.277  0.0317 -0.0949 -0.2039
   18loPI    C1  273   5.693  18.367   9.256  0.0966  0.0669  0.1276
   18loPI    C2  274   5.475  18.059   9.124  0.1010  0.1387 -0.0491
   18loPI    C3  275   5.380  18.238   9.469  0.0615 -0.0209  0.0235
   18loPI   PO4  276   5.700  18.503   9.007 -0.0762 -0.1523 -0.0729
   18loPI   GL1  277   5.494  18.283   8.580 -0.0383 -0.1880 -0.1336
   18loPI   GL2  278   5.669  17.951   8.675  0.3558 -0.0428 -0.1298
   18loPI   C1A  279   5.766  18.347   8.205 -0.0164  0.0917 -0.2725
   18loPI   C2A  280   5.777  18.205   7.773 -0.2649 -0.3583  0.0669
   18loPI   C3A  281   5.674  18.366   7.410 -0.1841 -0.3330 -0.3476
   18loPI   C4A  282   5.396  18.510   7.076 -0.4256 -0.0925 -0.1446
   18loPI   C5A  283   5.275  18.896   6.965  0.3404  0.0630 -0.0850
   18loPI   C6A  284   5.414  19.347   6.902 -0.0653  0.2751 -0.0681
   18loPI   C1B  285   5.786  17.776   8.210  0.1072  0.2352  0.1877
   18loPI   C2B  286   5.786  17.722   7.726  0.2787 -0.0896 -0.1850
   18loPI   C3B  287   5.881  17.897   7.390  0.1150 -0.0822 -0.1317
   18loPI   C4B  288   5.919  18.162   7.031  0.4742  0.0329 -0.4568
   19loPI    C1  289   8.257  18.767   8.831  0.0299 -0.2007 -0.0893
   19loPI    C2  290   8.577  19.008   8.817  0.1036 -0.2788  0.1831
   19loPI    C3  291   8.253  19.118   9.023 -0.0825 -0.1604 -0.1649
   19loPI   PO4  292   8.365  18.583   8.672 -0.0114  0.1324 -0.2253
   19loPI   GL1  293   8.292  18.538   8.393  0.0460 -0.0470  0.1397
   19loPI   GL2  294   8.391  18.925   8.320  0.1703 -0.3420  0.4186
   19loPI   C1A  295   8.207  18.533   7.963  0.2919 -0.2052 -0.1645
   19loPI   C2A  296   8.233  18.740   7.583  0.0035  0.1019  0.0248
   19loPI   C3A  297   8.120  18.958   7.333  0.3952 -0.2368 -0.0015
   19loPI   C4A  298   7.680  19.071   7.102 -0.0016  0.1367  0.1855
   19loPI   C5A  299   7.563  19.097   6.607  0.0294 -0.1380  0.0688
   19loPI   C6A  300   7.328  19.281   6.291 -0.0963  0.0777 -0.0746
   19loPI   C1B  301   8.508  18.909   7.927 -0.1732 -0.0842  0.3161
   19loPI   C2B  302   8.587  19.044   7.449  0.2572  0.0010 -0.0970
   19loPI   C3B  303   8.428  19.126   7.001 -0.2522 -0.2848  0.0575
   19loPI   C4B  304   8.421  18.896   6.713  0.0376 -0.1017 -0.0057
   20loPI    C1  305  18.091   1.515   9.576 -0.2445  0.1505  0.3636
   20loPI    C2  306  18.464   1.633   9.656 -0.0805 -0.1173  0.0262
   20loPI    C3  307  18.242   1.464   9.943  0.1341 -0.1543  0.1736
   20loPI   PO4  308  17.884   1.754   9.478  0.1767 -0.3098 -0.2443
   20loPI   GL1  309  17.991   1.724   9.119  0.0244 -0.0966  0.0322
   20loPI   GL2  310  17.988   1.435   8.954  0.0980  0.2377 -0.0200
   20loPI   C1A  311  17.614   1.708   8.898 -0.0303 -0.1868 -0.2952
   20loPI   C2A  312  17.542   1.599   8.393 -0.2836 -0.1410 -0.0639
   20loPI   C3A  313  17.590   1.805   8.035 -0.1710  0.1017  0.0251
   20loPI   C4A  314  17.473   1.983   7.635  0.1333 -0.1358 -0.1398
   20loPI   C5A  315  17.433   1.960   7.286  0.0339  0.2687 -0.2354
   20loPI   C6A  316  17.072   1.767   7.167  0.2582  0.1687 -0.0402
   20loPI   C1B  317  17.614   1.240   8.716  0.0489  0.2156 -0.0558
   20loPI   C2B  318  17.767   1.118   8.388  0.1696  0.1701  0.2663
   20loPI   C3B  319  17.549   1.247   7.948  0.3692 -0.0026 -0.0660
   20loPI   C4B  320  17.420   1.468   7.530 -0.1507  0.1540  0.1186
   21loPI    C1  321  12.088   9.739   9.305  0.0999  0.2132  0.2970
   21loPI    C2  322  12.149   9.380   9.469  0.1767  0.0389 -0.1012
   21loPI    C3  323  11.777   9.500   9.385  0.1518  0.0490  0.0205
   21loPI   PO4  324  12.193   9.846   9.106 -0.1022 -0.2529 -0.1066
   21loPI   GL1  325  12.278   9.796   8.755  0.0268 -0.2070  0.2954
   21loPI   GL2  326  12.534   9.792   8.597 -0.0480  0.2063 -0.2788
   21loPI   C1A  327  12.000   9.749   8.395 -0.0547  0.1587  0.1368
   21loPI   C2A  328  12.110   9.860   7.924 -0.2703  0.2006 -0.0234
   21loPI   C3A  329  11.940   9.955   7.567  0.1385  0.0871  0.2521
   21loPI   C4A  330  11.912   9.871   7.151 -0.1871 -0.0277 -0.0473
   21loPI   C5A  331  11.853   9.808   6.793 -0.1347 -0.1470  0.0176
   21loPI   C6A  332  12.180   9.806   6.529 -0.0066 -0.0585  0.2279
   21loPI   C1B  333  12.570   9.940   8.119  0.0318 -0.1387 -0.3872
   21loPI   C2B  334  12.621   9.892   7.667 -0.2751 -0.0210  0.2472
   21loPI   C3B  335  12.585   9.938   7.256 -0.2745 -0.1077  0.1585
   21loPI   C4B  336  12.345   9.687   6.955  0.1161 -0.1925 -0.0688
   22loPI    C1  337  14.420  12.987   9.524 -0.3560  0.0086 -0.0863
   22loPI    C2  338  14.208  12.707   9.715 -0.0726 -0.0673  0.1242
   22loPI    C3  339  14.377  13.005   9.922  0.1522 -0.0929 -0.0204
   22loPI   PO4  340  14.464  12.772   9.281  0.2386  0.0259 -0.0871
   22loPI   GL1  341  14.556  12.695   9.012  0.0122  0.2396  0.2019
   22loPI   GL2  342  14.540  12.309   8.986 -0.2025 -0.0017 -0.1637
   22loPI   C1A  343  14.350  12.803   8.625 -0.1368  0.2919 -0.0006
   22loPI   C2A  344  14.465  12.725   8.146  0.0653 -0.4122 -0.0169
   22loPI   C3A  345  14.573  12.558   7.703 -0.1084 -0.1545 -0.1532
   22loPI   C4A  346  14.658  12.438   7.332 -0.2449 -0.1023 -0.1939
   22loPI   C5A  347  14.426  12.380   6.963 -0.0380 -0.0424  0.1274
   22loPI   C6A  348  14.358  11.997   6.705  0.1562  0.0257 -0.1943
   22loPI   C1B  349  14.484  12.276   8.642  0.1927  0.0903  0.1233
   22loPI   C2B  350  14.470  12.146   8.262 -0.2158 -0.2269 -0.1136
   22loPI   C3B  351  14.329  12.163   7.881 -0.2014 -0.2940  0.2151
   22loPI   C4B  352  14.288  12.117   7.411 -0.3934  0.1394  0.2549
   23loPI    C1  353   9.206  14.129   9.409  0.2176  0.0152  0.5097
   23loPI    C2  354   9.533  14.300   9.253  0.0533 -0.0100  0.1277
   23loPI    C3  355   9.561  14.083   9.588  0.4901 -0.2879 -0.0802
   23loPI   PO4  356   9.046  14.265   9.169  0.0699  0.1180  0.2231
   23loPI   GL1  357   9.204  14.451   8.733  0.4830 -0.2242  0.1870
   23loPI   GL2  358   9.508  14.629   8.584 -0.2716  0.3664  0.4482
   23loPI   C1A  359   9.019  14.475   8.367 -0.1182 -0.0042  0.1858
   23loPI   C2A  360   9.090  14.360   7.883 -0.0237 -0.3661  0.0793
   23loPI   C3A  361   9.041  14.119   7.450 -0.3354  0.2533  0.0651
   23loPI   C4A  362   8.757  14.152   7.142 -0.2253 -0.0156 -0.0862
   23loPI   C5A  363   8.643  14.549   6.881 -0.0087  0.1322 -0.4952
   23loPI   C6A  364   8.571  14.950   6.603 -0.0366 -0.2757 -0.0549
   23loPI   C1B  365   9.424  14.677   8.185 -0.0709  0.2146 -0.3016
   23loPI   C2B  366   9.609  14.528   7.724 -0.0859 -0.0149 -0.1247
   23loPI   C3B  367   9.386  14.527   7.388 -0.1654 -0.2633 -0.0161
   23loPI   C4B  368   9.100  14.505   7.005 -0.2199  0.1473 -0.0611
   24loPI    C1  369  12.904  17.055   9.482  0.4337 -0.0473  0.2724
   24loPI    C2  370  13.109  16.851   9.206  0.0364  0.0231 -0.0851
   24loPI    C3  371  13.038  16.688   9.564  0.5463 -0.0745 -0.0214
   24loPI   PO4  372  12.818  17.304   9.245 -0.0252  0.0656  0.2369
   24loPI   GL1  373  13.183  17.391   8.939 -0.0655  0.1990 -0.1684
   24loPI   GL2  374  13.330  17.699   9.011 -0.3715  0.0220 -0.2950
   24loPI   C1A  375  13.307  17.289   8.555 -0.0131  0.0972 -0.1431
   24loPI   C2A  376  13.472  17.270   8.197  0.4396  0.0212 -0.0682
   24loPI   C3A  377  13.554  17.110   7.826 -0.0571 -0.0688  0.0208
   24loPI   C4A  378  13.634  17.087   7.304 -0.0809  0.2544  0.0207
   24loPI   C5A  379  13.451  17.523   7.129 -0.1046 -0.0223  0.0865
   24loPI   C6A  380  13.001  17.791   6.977  0.1029 -0.0718  0.0890
   24loPI   C1B  381  13.327  17.732   8.634  0.1305  0.1750 -0.2413
   24loPI   C2B  382  13.338  17.731   8.250  0.0601  0.0727  0.4017
   24loPI   C3B  383  13.144  18.051   7.906  0.0991 -0.0768 -0.0306
   24loPI   C4B  384  13.060  18.192   7.505  0.0251  0.0472 -0.4058
   25loPI    C1  385  19.072   8.680   9.808  0.2038  0.0573 -0.2796
   25loPI    C2  386  18.998   8.298   9.716  0.1361  0.0683 -0.2723
   25loPI    C3  387  19.256   8.388  10.009 -0.2320  0.0167  0.0768
   25loPI   PO4  388  18.810   8.730   9.720 -0.0219 -0.0566 -0.0179
   25loPI   GL1  389  18.500   8.651   9.419  0.1823  0.3308 -0.0387
   25loPI   GL2  390  18.907   8.698   9.254 -0.2259  0.3168  0.4824
   25loPI   C1A  391  18.430   8.671   9.061  0.0172  0.0726  0.0072
   25loPI   C2A  392  18.400   8.485   8.693  0.2419 -0.4168  0.0699
   25loPI   C3A  393  18.344   8.505   8.174  0.1048  0.0939 -0.0478
   25loPI   C4A  394  18.261   8.658   7.858  0.3124  0.0797  0.1535
   25loPI   C5A  395  18.068   8.519   7.507 -0.0856 -0.0387 -0.3424
   25loPI   C6A  396  18.151   8.658   7.030  0.0469 -0.3510 -0.0579
   25loPI   C1B  397  18.905   8.675   8.816 -0.0871 -0.2452  0.1559
   25loPI   C2B  398  18.779   8.662   8.369 -0.0549  0.0629 -0.1170
   25loPI   C3B  399  18.717   8.767   7.974  0.0130 -0.0348 -0.0951
   25loPI   C4B  400  18.734   8.896   7.450 -0.0345  0.1479  0.1765
   26loPI    C1  401   8.617  15.517   9.320 -0.1502  0.1678  0.1183
   26loPI    C2  402   8.328  15.472   9.593 -0.2451  0.2000  0.0240
   26loPI    C3  403   8.440  15.839   9.478  0.0698  0.1981  0.3083
   26loPI   PO4  404   8.593  15.449   9.117 -0.0648  0.2296  0.3041
   26loPI   GL1  405   8.689  15.236   8.823 -0.0179  0.0667 -0.2092
   26loPI   GL2  406   8.795  15.535   8.638 -0.1108  0.5107 -0.1663
   26loPI   C1A  407   8.586  14.987   8.426 -0.3011 -0.4364 -0.0877
   26loPI   C2A  408   8.281  14.887   8.083 -0.0872 -0.0507 -0.6281
   26loPI   C3A  409   8.248  14.797   7.682 -0.0641  0.4953 -0.0015
   26loPI   C4A  410   8.111  14.750   7.338 -0.1540 -0.0125  0.0904
   26loPI   C5A  411   8.172  14.461   7.061 -0.0789 -0.2029 -0.1693
   26loPI   C6A  412   7.809  14.394   6.746 -0.0326 -0.0005  0.1550
   26loPI   C1B  413   8.627  15.374   8.170 -0.0713  0.1627  0.1742
   26loPI   C2B  414   8.757  15.116   7.852  0.1545 -0.1632 -0.0892
   26loPI   C3B  415   8.727  14.753   7.841  0.0634 -0.1932  0.4930
   26loPI   C4B  416   8.895  14.590   7.473  0.1080  0.2049 -0.1213
   27loPI    C1  417   9.482  12.873   9.328 -0.2259  0.1470 -0.0089
   27loPI    C2  418   9.436  12.913   9.724 -0.1799  0.0712  0.0044
   27loPI    C3  419   9.301  13.197   9.477 -0.3537  0.0424  0.0647
   27loPI   PO4  420   9.652  12.588   9.280 -0.2829  0.0752 -0.0119
   27loPI   GL1  421   9.967  12.503   9.018  0.4946 -0.0711  0.0565
   27loPI   GL2  422  10.212  12.674   8.915  0.1637 -0.1846 -0.3379
   27loPI   C1A  423   9.978  12.395   8.594 -0.2562  0.0377 -0.1971
   27loPI   C2A  424   9.920  12.292   8.154 -0.1138  0.2506  0.0352
   27loPI   C3A  425  10.084  12.144   7.703 -0.0135  0.0723  0.2716
   27loPI   C4A  426  10.010  12.138   7.195  0.0684  0.0003  0.2024
   27loPI   C5A  427   9.789  12.114   6.845  0.2941 -0.0320 -0.0209
   27loPI   C6A  428   9.322  12.328   7.031  0.4754  0.0179  0.1140
   27loPI   C1B  429  10.537  12.958   8.705 -0.3847 -0.1229  0.0105
   27loPI   C2B  430  10.405  13.207   8.346 -0.1568  0.0778 -0.0715
   27loPI   C3B  431  10.283  13.341   7.914  0.0190 -0.0019 -0.1841
   27loPI   C4B  432  10.307  13.741   7.633 -0.0790 -0.2740 -0.2428
   28loPI    C1  433   9.986   7.576   9.162  0.1672 -0.1857 -0.0816
   28loPI    C2  434  10.361   7.717   9.149  0.0507  0.1322 -0.0827
   28loPI    C3  435  10.225   7.538   9.481  0.1471  0.1744 -0.0199
   28loPI   PO4  436   9.994   7.412   8.984  0.1436 -0.4074  0.2206
   28loPI   GL1  437   9.977   6.952   8.831 -0.1727  0.4886 -0.0526
   28loPI   GL2  438  10.379   6.839   8.724 -0.1532 -0.2566  0.1043
   28loPI   C1A  439   9.866   6.631   8.528 -0.1249  0.1317 -0.1875
   28loPI   C2A  440   9.931   6.804   8.099 -0.5232  0.1541  0.1766
   28loPI   C3A  441  10.069   6.778   7.616 -0.2940  0.0272  0.0095
   28loPI   C4A  442  10.047   6.777   7.241  0.2507  0.1027  0.1613
   28loPI   C5A  443  10.092   6.663   6.836  0.0524  0.0895 -0.0814
   28loPI   C6A  444  10.248   6.599   6.496  0.2659 -0.1328 -0.2438
   28loPI   C1B  445  10.397   6.791   8.259 -0.2812  0.1181 -0.3463
   28loPI   C2B  446  10.507   6.861   7.888 -0.4701 -0.0877  0.4465
   28loPI   C3B  447  10.548   6.791   7.381  0.1596 -0.1866 -0.1451
   28loPI   C4B  448  10.546   6.802   6.995 -0.2732  0.1468 -0.1167
   29loPI    C1  449   2.983   9.811   9.320  0.1313 -0.0716 -0.0924
   29loPI    C2  450   2.964   9.413   9.361  0.4291 -0.0641  0.1489
   29loPI    C3  451   3.161   9.633   9.631  0.4042  0.2326 -0.0698
   29loPI   PO4  452   3.074   9.730   8.972  0.0397  0.0403 -0.2625
   29loPI   GL1  453   2.876   9.846   8.601  0.0413  0.0977 -0.0011
   29loPI   GL2  454   2.675   9.502   8.500 -0.1240 -0.0220  0.0494
   29loPI   C1A  455   2.886  10.072   8.245  0.0623  0.1504 -0.1598
   29loPI   C2A  456   3.025  10.112   7.839  0.3230  0.2833 -0.1203
   29loPI   C3A  457   3.040  10.393   7.472 -0.2418  0.0949  0.3753
   29loPI   C4A  458   3.274  10.669   7.037 -0.0548  0.3715  0.0047
   29loPI   C5A  459   3.204  10.441   6.695  0.0853 -0.1280 -0.2836
   29loPI   C6A  460   2.990  10.129   6.471  0.0738  0.0952  0.3776
   29loPI   C1B  461   2.527   9.337   8.174  0.0966 -0.0484 -0.2735
   29loPI   C2B  462   2.362   9.069   7.794 -0.1124 -0.0902  0.2852
   29loPI   C3B  463   2.176   9.263   7.520  0.0797 -0.0332 -0.1535
   29loPI   C4B  464   1.772   9.325   7.507  0.0555  0.1914  0.2610
   30loPI    C1  465  10.187   8.474   9.655  0.2150 -0.2759  0.2211
   30loPI    C2  466   9.943   8.671   9.903 -0.0649 -0.1315 -0.1582
   30loPI    C3  467   9.987   8.275   9.938  0.1475 -0.0728  0.3182
   30loPI   PO4  468  10.148   8.586   9.415  0.1607 -0.1335 -0.0030
   30loPI   GL1  469  10.010   8.619   8.941 -0.0227  0.0105 -0.1568
   30loPI   GL2  470  10.054   8.888   8.838 -0.2182 -0.1035 -0.1417
   30loPI   C1A  471   9.991   8.581   8.465  0.0273  0.2402 -0.2332
   30loPI   C2A  472   9.909   8.755   8.096 -0.0861  0.0548 -0.1022
   30loPI   C3A  473   9.820   9.136   7.954  0.0197  0.0800  0.0736
   30loPI   C4A  474   9.482   9.184   7.601  0.2257 -0.3994 -0.3214
   30loPI   C5A  475   9.471   9.358   7.197 -0.0723 -0.0648 -0.0160
   30loPI   C6A  476   9.404   9.480   6.778 -0.0929  0.1100  0.0968
   30loPI   C1B  477  10.220   9.122   8.390  0.0650 -0.2431 -0.0813
   30loPI   C2B  478  10.422   9.259   7.951  0.2081  0.5598 -0.3184
   30loPI   C3B  479  10.203   9.192   7.560  0.0969 -0.1688  0.0435
   30loPI   C4B  480   9.857   9.004   7.385 -0.2765  0.3315 -0.0641
   31loPI    C1  481  19.232  16.985   9.454  0.0301  0.0109 -0.2776
   31loPI    C2  482  19.138  16.597   9.472  0.0847  0.0118  0.0895
   31loPI    C3  483  19.181  16.809   9.809 -0.1817  0.3962 -0.1107
   31loPI   PO4  484  19.440  16.978   9.287 -0.1151 -0.5489  0.1085
   31loPI   GL1  485  19.641  17.194   8.871  0.0505  0.0333 -0.0768
   31loPI   GL2  486  19.528  17.548   8.981 -0.1214  0.0654 -0.2465
   31loPI   C1A  487  19.481  16.906   8.552 -0.0203  0.0491 -0.1043
   31loPI   C2A  488  19.195  16.814   8.222  0.0445  0.2308  0.1676
   31loPI   C3A  489  19.232  16.803   7.699  0.2774  0.1128  0.1238
   31loPI   C4A  490  19.297  16.675   7.261  0.1493  0.0043 -0.0089
   31loPI   C5A  491  19.002  16.648   6.757 -0.1803  0.0144 -0.2055
   31loPI   C6A  492  18.538  16.620   6.718  0.0410 -0.3336 -0.2397
   31loPI   C1B  493  19.632  17.667   8.501  0.0396 -0.0128  0.1016
   31loPI   C2B  494  19.813  17.641   8.109 -0.1195 -0.3493  0.1026
   31loPI   C3B  495  19.891  17.579   7.713  0.6675 -0.0352 -0.2236
   31loPI   C4B  496  19.850  17.505   7.320 -0.0569 -0.1126 -0.2631
   32loPI    C1  497   9.974   4.732   9.257 -0.0522 -0.1442  0.1100
   32loPI    C2  498   9.678   4.861   9.494  0.0098  0.3770 -0.0841
   32loPI    C3  499  10.044   5.018   9.528  0.1769  0.0015 -0.0993
   32loPI   PO4  500   9.890   4.784   9.012  0.1778 -0.1388 -0.1543
   32loPI   GL1  501   9.651   4.559   8.674 -0.0598 -0.2723 -0.4480
   32loPI   GL2  502   9.403   4.494   8.714 -0.1664 -0.0501 -0.2863
   32loPI   C1A  503   9.985   4.423   8.326  0.0442 -0.2616  0.1316
   32loPI   C2A  504  10.014   4.221   7.831 -0.0682 -0.0959  0.2141
   32loPI   C3A  505  10.040   4.216   7.473 -0.0916  0.0070  0.0229
   32loPI   C4A  506  10.401   4.060   7.217 -0.1580  0.0859  0.2628
   32loPI   C5A  507  10.761   3.756   7.014 -0.2023 -0.1101  0.0688
   32loPI   C6A  508  11.001   3.356   7.150 -0.4406  0.3233 -0.0572
   32loPI   C1B  509   9.512   4.416   8.230 -0.0638  0.0058  0.0968
   32loPI   C2B  510   9.511   4.324   7.848 -0.1717  0.2690 -0.2427
   32loPI   C3B  511   9.595   4.484   7.357  0.0231  0.2117  0.2441
   32loPI   C4B  512   9.608   4.487   6.914 -0.2176 -0.0575  0.1460
   33loPI    C1  513  10.381  11.732   9.457  0.3526 -0.1252 -0.1895
   33loPI    C2  514  10.669  12.006   9.503  0.0421  0.1958 -0.1108
   33loPI    C3  515  10.319  12.051   9.691 -0.0720 -0.1754 -0.2265
   33loPI   PO4  516  10.255  11.656   9.233 -0.0776 -0.1216 -0.0473
   33loPI   GL1  517  10.102  11.592   8.837  0.2553  0.1306  0.2754
   33loPI   GL2  518   9.946  11.309   8.708  0.4247 -0.2402 -0.1392
   33loPI   C1A  519  10.196  11.543   8.306 -0.1801  0.1972 -0.1457
   33loPI   C2A  520  10.618  11.492   8.020  0.0134  0.1768  0.1916
   33loPI   C3A  521  10.655  11.342   7.654  0.2336  0.0229  0.2374
   33loPI   C4A  522  10.685  11.232   7.166 -0.0857  0.0645  0.2782
   33loPI   C5A  523  10.969  10.981   6.944  0.0829 -0.2948 -0.5297
   33loPI   C6A  524  11.284  10.704   6.759 -0.1499 -0.0492 -0.1768
   33loPI   C1B  525   9.698  11.425   8.367 -0.2387 -0.0791  0.0348
   33loPI   C2B  526   9.385  11.703   8.185  0.0420  0.1184 -0.2266
   33loPI   C3B  527   9.313  11.839   7.715  0.0947  0.2983 -0.0240
   33loPI   C4B  528   9.034  12.215   7.563 -0.0095 -0.1118  0.1711
   34loPI    C1  529   7.253  19.402   9.003  0.1956  0.2097  0.1628
   34loPI    C2  530   7.542  19.220   8.795  0.1658 -0.0092  0.3104
   34loPI    C3  531   7.428  19.074   9.150 -0.0417  0.1466  0.3096
   34loPI   PO4  532   7.015  19.408   8.838 -0.2083 -0.1822 -0.0641
   34loPI   GL1  533   7.059  19.758   8.422  0.0357 -0.0992  0.1101
   34loPI   GL2  534   6.927  19.787   8.048 -0.0298  0.1872  0.1047
   34loPI   C1A  535   7.368  19.488   8.223 -0.1683 -0.0219 -0.0590
   34loPI   C2A  536   7.358  19.208   7.895  0.1718  0.1836 -0.3660
   34loPI   C3A  537   7.546  19.385   7.456 -0.1894  0.0625 -0.2995
   34loPI   C4A  538   7.556  19.501   7.021  0.0441  0.1717  0.1152
   34loPI   C5A  539   7.627  19.629   6.579  0.1205 -0.0246 -0.2867
   34loPI   C6A  540   7.760  19.682   6.205  0.2409  0.1910 -0.0551
   34loPI   C1B  541   7.115  19.662   7.772 -0.0260  0.2153  0.0023
   34loPI   C2B  542   6.977  19.581   7.317 -0.1186  0.2029  0.0045
   34loPI   C3B  543   6.778  19.636   6.969 -0.3260  0.1592  0.0372
   34loPI   C4B  544   6.410  19.576   6.783  0.0245  0.0114  0.2538
   35loPI    C1  545  17.642  18.524   9.868 -0.0744 -0.0213 -0.1724
   35loPI    C2  546  18.033  18.530   9.783 -0.0039 -0.3078  0.1116
   35loPI    C3  547  17.909  18.576  10.161 -0.2555 -0.0773  0.0053
   35loPI   PO4  548  17.565  18.326   9.647 -0.0644  0.1307 -0.0650
   35loPI   GL1  549  17.407  18.610   9.223 -0.0945  0.4200 -0.1353
   35loPI   GL2  550  17.415  18.245   9.191 -0.1386  0.1723  0.0300
   35loPI   C1A  551  17.506  18.875   8.846  0.1562 -0.1855 -0.2121
   35loPI   C2A  552  17.216  19.032   8.590  0.1907 -0.1507  0.2807
   35loPI   C3A  553  16.972  19.025   8.198  0.0309  0.0647 -0.1820
   35loPI   C4A  554  16.840  18.917   7.814 -0.1061 -0.1134  0.1471
   35loPI   C5A  555  16.790  18.668   7.651  0.0116 -0.1640 -0.2797
   35loPI   C6A  556  16.903  18.354   7.319  0.0092  0.0613 -0.0805
   35loPI   C1B  557  17.641  18.268   8.777  0.2904 -0.1452  0.0521
   35loPI   C2B  558  17.543  18.119   8.466  0.1199  0.3164 -0.1184
   35loPI   C3B  559  17.492  18.060   7.931  0.2699  0.1029 -0.0580
   35loPI   C4B  560  17.354  18.064   7.462  0.0521 -0.0370 -0.1406
   36loPI    C1  561  13.590  10.206   9.507 -0.1111 -0.0913 -0.0522
   36loPI    C2  562  13.812  10.536   9.467 -0.0996 -0.0883  0.0321
   36loPI    C3  563  13.785  10.356   9.823 -0.2104 -0.1045  0.0159
   36loPI   PO4  564  13.720  10.063   9.228 -0.0503 -0.0715 -0.2103
   36loPI   GL1  565  13.849  10.246   8.805 -0.1768 -0.3104 -0.2209
   36loPI   GL2  566  14.092  10.084   8.833 -0.0337 -0.0298 -0.4325
   36loPI   C1A  567  13.609  10.281   8.445 -0.1164  0.2385  0.0863
   36loPI   C2A  568  13.493  10.289   8.068  0.2414  0.3133  0.2803
   36loPI   C3A  569  13.445  10.445   7.615  0.1712 -0.1260 -0.0009
   36loPI   C4A  570  13.404  10.552   7.233 -0.1656  0.0934  0.1668
   36loPI   C5A  571  13.175  10.509   6.847  0.3961  0.1198 -0.1813
   36loPI   C6A  572  12.959  10.175   6.611 -0.1466 -0.1232 -0.0650
   36loPI   C1B  573  14.126  10.169   8.377 -0.2104 -0.0503 -0.1429
   36loPI   C2B  574  14.006  10.287   8.039 -0.6589 -0.0240 -0.0956
   36loPI   C3B  575  14.049  10.583   7.762 -0.2335 -0.3142  0.1073
   36loPI   C4B  576  13.915  10.523   7.353  0.0632  0.2163 -0.3176
   37loPI    C1  577   3.650  14.889   9.378  0.1556  0.1177 -0.3124
   37loPI    C2  578   3.756  15.242   9.534 -0.2179  0.0666  0.0757
   37loPI    C3  579   3.893  14.902   9.696 -0.0564  0.0255 -0.1434
   37loPI   PO4  580   3.766  14.832   9.066 -0.0430 -0.1962  0.0237
   37loPI   GL1  581   3.884  14.973   8.619 -0.1461  0.0958  0.1477
   37loPI   GL2  582   3.841  15.201   8.428  0.3094 -0.0505  0.0505
   37loPI   C1A  583   3.646  14.782   8.205  0.1700  0.0535 -0.0094
   37loPI   C2A  584   3.339  14.610   8.034  0.1429 -0.0102  0.0292
   37loPI   C3A  585   2.895  14.697   7.869  0.0565 -0.1159 -0.0026
   37loPI   C4A  586   2.805  14.754   7.370 -0.2648 -0.3293 -0.0058
   37loPI   C5A  587   2.820  14.579   6.960 -0.4151 -0.1598 -0.0928
   37loPI   C6A  588   2.402  14.613   6.710 -0.0023 -0.0296  0.2818
   37loPI   C1B  589   4.198  15.197   8.112  0.0574  0.4979 -0.1373
   37loPI   C2B  590   4.324  15.141   7.629  0.2448  0.2270 -0.1244
   37loPI   C3B  591   4.375  15.135   7.210 -0.2664 -0.1101 -0.0487
   37loPI   C4B  592   4.725  15.037   6.849  0.0864 -0.2214 -0.2853
   38loPI    C1  593   9.486  19.836   9.399 -0.1284 -0.2286  0.1113
   38loPI    C2  594   9.378  19.816   9.783  0.1958  0.0569  0.2222
   38loPI    C3  595   9.365  20.166   9.590 -0.2374 -0.1349 -0.1145
   38loPI   PO4  596   9.372  19.679   9.195  0.1288 -0.1283 -0.0172
   38loPI   GL1  597   9.105  19.672   8.726  0.0735 -0.0744  0.1265
   38loPI   GL2  598   8.766  19.945   8.615 -0.2394  0.1342 -0.1055
   38loPI   C1A  599   9.094  19.545   8.342  0.0208  0.1955  0.1000
   38loPI   C2A  600   9.176  19.486   7.915 -0.0188 -0.1365 -0.0176
   38loPI   C3A  601   9.371  19.577   7.489  0.3041  0.2335  0.3810
   38loPI   C4A  602   9.501  19.357   7.178  0.1350 -0.2545  0.2088
   38loPI   C5A  603   9.951  19.312   6.960  0.0141  0.2006  0.0092
   38loPI   C6A  604  10.080  19.034   6.615  0.1874 -0.0244 -0.2205
   38loPI   C1B  605   8.761  19.836   8.151 -0.2726  0.1056  0.0943
   38loPI   C2B  606   8.862  19.936   7.798 -0.0378  0.2427  0.0184
   38loPI   C3B  607   8.814  20.105   7.360 -0.0913 -0.0417  0.0067
   38loPI   C4B  608   8.866  20.397   7.188  0.0743 -0.0673  0.0682
   39loPI    C1  609  11.762   2.098   9.459 -0.0343  0.0803  0.1963
   39loPI    C2  610  11.861   1.851   9.758 -0.1986 -0.1461  0.0660
   39loPI    C3  611  11.481   1.875   9.635 -0.2018  0.2453  0.1407
   39loPI   PO4  612  11.896   2.301   9.503  0.1061  0.0363 -0.5062
   39loPI   GL1  613  12.258   2.359   9.109  0.1317  0.1218  0.1240
   39loPI   GL2  614  11.991   2.687   9.134 -0.2189  0.1959 -0.1936
   39loPI   C1A  615  12.208   2.175   8.600  0.1090  0.1903 -0.0229
   39loPI   C2A  616  12.138   2.203   8.085  0.0650  0.2367 -0.2641
   39loPI   C3A  617  11.769   2.279   7.851 -0.1939 -0.0174 -0.1291
   39loPI   C4A  618  11.608   2.244   7.455 -0.0489  0.0841  0.2995
   39loPI   C5A  619  11.686   2.115   6.988 -0.3230  0.0647 -0.1256
   39loPI   C6A  620  11.928   2.316   6.652  0.0957  0.0894 -0.1681
   39loPI   C1B  621  12.239   2.688   8.786 -0.1271 -0.0653 -0.0131
   39loPI   C2B  622  12.058   2.696   8.466  0.0482  0.2307  0.1094
   39loPI   C3B  623  11.902   2.669   8.066 -0.0658  0.1653 -0.0903
   39loPI   C4B  624  12.183   2.576   7.733 -0.2741  0.0159  0.4286
   40loPI    C1  625   5.076  15.305   9.430 -0.0539 -0.0633 -0.2702
   40loPI    C2  626   5.461  15.398   9.486 -0.0891 -0.0288 -0.0796
   40loPI    C3  627   5.183  15.535   9.739 -0.1844 -0.3542 -0.0026
   40loPI   PO4  628   5.067  15.282   9.119 -0.0678  0.1329  0.1672
   40loPI   GL1  629   5.111  15.381   8.614 -0.1522 -0.2862  0.0872
   40loPI   GL2  630   5.478  15.420   8.420  0.0187 -0.1654  0.1575
   40loPI   C1A  631   5.069  15.536   8.241  0.2634  0.0284  0.3396
   40loPI   C2A  632   5.100  15.504   7.876 -0.3990 -0.2362 -0.0920
   40loPI   C3A  633   5.228  15.306   7.414  0.1624 -0.1160 -0.4379
   40loPI   C4A  634   5.157  15.355   6.960 -0.0499 -0.3675  0.3507
   40loPI   C5A  635   5.210  15.610   6.649 -0.1260 -0.2348  0.0180
   40loPI   C6A  636   4.880  15.748   6.402  0.0345 -0.1822 -0.1524
   40loPI   C1B  637   5.537  15.390   8.065  0.0945 -0.0520 -0.0520
   40loPI   C2B  638   5.717  15.240   7.653  0.1388  0.3107  0.0358
   40loPI   C3B  639   5.736  15.140   7.231 -0.0969  0.1953  0.1591
   40loPI   C4B  640   5.771  14.752   6.960 -0.1616  0.3006 -0.1511
   41loPI    C1  641  14.570   8.381  10.027  0.0835  0.1347 -0.0029
   41loPI    C2  642  14.845   8.500  10.292 -0.1193  0.1545  0.2023
   41loPI    C3  643  14.456   8.528  10.382 -0.1803 -0.4021  0.1450
   41loPI   PO4  644  14.595   8.503   9.725 -0.0909 -0.0905  0.0272
   41loPI   GL1  645  14.563   8.404   9.291 -0.1166 -0.0199  0.1800
   41loPI   GL2  646  14.572   8.050   9.083  0.0690 -0.2648  0.4786
   41loPI   C1A  647  14.288   8.559   8.980  0.0305  0.0405  0.3824
   41loPI   C2A  648  14.227   8.499   8.453  0.3111  0.0606 -0.2087
   41loPI   C3A  649  14.435   8.567   7.976  0.0032 -0.1480 -0.0826
   41loPI   C4A  650  14.574   8.251   7.694  0.2313 -0.3478  0.1443
   41loPI   C5A  651  14.466   8.079   7.235 -0.3794 -0.1561  0.0687
   41loPI   C6A  652  14.113   8.144   7.079 -0.4676 -0.0860  0.1233
   41loPI   C1B  653  14.599   8.098   8.586  0.1964 -0.0669 -0.2277
   41loPI   C2B  654  14.553   8.178   8.222  0.2867 -0.0829 -0.1538
   41loPI   C3B  655  14.425   7.880   7.991  0.0357 -0.2089  0.5571
   41loPI   C4B  656  14.442   7.630   7.725 -0.0409  0.2003  0.0620
   42loPI    C1  657  18.293  17.756   9.931 -0.2063 -0.1082  0.0937
   42loPI    C2  658  18.459  18.120   9.911 -0.0364 -0.1946 -0.1129
   42loPI    C3  659  18.241  18.016  10.230 -0.0584  0.0758 -0.0379
   42loPI   PO4  660  18.174  17.677   9.664 -0.0750  0.1343  0.1258
   42loPI   GL1  661  18.102  17.971   9.395 -0.2066 -0.0035  0.1812
   42loPI   GL2  662  17.815  17.904   9.431 -0.1648 -0.0340 -0.1845
   42loPI   C1A  663  18.126  18.067   8.973  0.1299  0.1734 -0.1005
   42loPI   C2A  664  18.031  17.980   8.469  0.4537 -0.5615  0.2608
   42loPI   C3A  665  17.953  18.030   7.958 -0.0760 -0.0716 -0.1102
   42loPI   C4A  666  17.964  17.877   7.477 -0.2656  0.0006 -0.0266
   42loPI   C5A  667  18.292  17.680   7.263 -0.1458 -0.0676  0.1786
   42loPI   C6A  668  18.549  17.836   6.941 -0.0783 -0.0057 -0.5772
   42loPI   C1B  669  17.717  17.744   9.074  0.0719  0.1731 -0.2458
   42loPI   C2B  670  17.707  17.575   8.709 -0.1357  0.3559 -0.1581
   42loPI   C3B  671  17.723  17.691   8.231  0.3991  0.1263  0.1354
   42loPI   C4B  672  17.867  17.531   7.878  0.3240  0.1416  0.0310
   43loPI    C1  673  10.917   8.955   9.271  0.0625 -0.2759  0.0337
   43loPI    C2  674  10.622   8.773   9.470  0.0803 -0.1230  0.2031
   43loPI    C3  675  10.821   9.074   9.641 -0.0445  0.1526 -0.1253
   43loPI   PO4  676  10.852   8.945   9.026  0.2395  0.0514  0.0180
   43loPI   GL1  677  10.562   8.920   8.686  0.3007  0.2115 -0.0130
   43loPI   GL2  678  10.748   9.208   8.589 -0.0496  0.0401  0.2306
   43loPI   C1A  679  10.899   8.855   8.311 -0.1567 -0.3151  0.0973
   43loPI   C2A  680  10.858   9.067   7.943  0.2198  0.1296  0.3648
   43loPI   C3A  681  10.742   9.133   7.577 -0.3479  0.0749 -0.4445
   43loPI   C4A  682  10.706   9.154   7.204  0.1682  0.1295  0.0900
   43loPI   C5A  683  10.676   9.278   6.820 -0.3483  0.1049 -0.0200
   43loPI   C6A  684  10.271   9.516   6.625  0.1890 -0.0027  0.0585
   43loPI   C1B  685  10.906   9.493   8.220  0.4859 -0.0488 -0.0014
   43loPI   C2B  686  10.902   9.562   7.760 -0.0168  0.2559 -0.3272
   43loPI   C3B  687  11.069   9.473   7.366  0.3442 -0.1596  0.1768
   43loPI   C4B  688  11.048   9.557   6.870  0.0780 -0.1956  0.0734
   44loPI    C1  689   5.446  14.981   9.159 -0.2619  0.0277 -0.1149
   44loPI    C2  690   5.322  14.901   9.530 -0.2679  0.1900 -0.0808
   44loPI    C3  691   5.127  14.747   9.217  0.0328 -0.3573 -0.0117
   44loPI   PO4  692   5.673  14.912   9.080  0.0828 -0.0523  0.1008
   44loPI   GL1  693   5.812  14.728   8.632 -0.1882  0.0847  0.2510
   44loPI   GL2  694   5.780  14.990   8.599  0.1599  0.0153 -0.4595
   44loPI   C1A  695   5.670  14.459   8.389  0.1556  0.4762  0.0811
   44loPI   C2A  696   5.566  14.338   8.014  0.1245  0.0206 -0.1725
   44loPI   C3A  697   5.322  14.393   7.671 -0.0379  0.3213 -0.1189
   44loPI   C4A  698   5.072  14.460   7.379  0.0748  0.1428 -0.0513
   44loPI   C5A  699   4.885  14.534   6.881 -0.2030 -0.3181  0.0148
   44loPI   C6A  700   4.737  14.747   6.424  0.0121  0.3928 -0.1490
   44loPI   C1B  701   5.662  14.893   8.123 -0.5149 -0.0862  0.1122
   44loPI   C2B  702   5.719  14.728   7.779 -0.2265  0.0052  0.0741
   44loPI   C3B  703   5.439  14.823   7.501  0.1927  0.3476  0.2159
   44loPI   C4B  704   5.220  14.800   7.095  0.4415 -0.1325 -0.2081
   45loPI    C1  705   6.016  18.057   8.999 -0.0643  0.0338  0.2404
   45loPI    C2  706   6.168  18.374   8.808  0.2098 -0.2088  0.0470
   45loPI    C3  707   6.214  18.338   9.204  0.1242  0.0205  0.0795
   45loPI   PO4  708   6.116  17.713   8.868 -0.0859  0.1982  0.2043
   45loPI   GL1  709   6.207  17.490   8.417  0.1229  0.1081 -0.0115
   45loPI   GL2  710   6.480  17.577   8.285 -0.0680 -0.0261  0.0966
   45loPI   C1A  711   6.126  17.417   7.947 -0.1283 -0.1303  0.1288
   45loPI   C2A  712   6.446  17.340   7.678 -0.3083  0.0607  0.0616
   45loPI   C3A  713   6.931  17.431   7.505  0.4456  0.3851 -0.1538
   45loPI   C4A  714   7.107  17.284   7.090 -0.1676 -0.3232 -0.0456
   45loPI   C5A  715   7.058  17.218   6.683 -0.4066 -0.2971 -0.0099
   45loPI   C6A  716   6.735  17.104   6.319 -0.4027  0.0501  0.0382
   45loPI   C1B  717   6.779  17.596   7.969  0.0869  0.0688  0.1761
   45loPI   C2B  718   6.892  17.889   7.713  0.1318 -0.4162 -0.0229
   45loPI   C3B  719   7.040  17.883   7.292  0.3379 -0.0877 -0.0356
   45loPI   C4B  720   6.948  17.738   6.797  0.1216  0.3165 -0.0191
   46loPI    C1  721  13.821   2.400   9.892 -0.0942 -0.1744  0.0867
   46loPI    C2  722  13.659   2.369  10.257 -0.1664  0.0872  0.0782
   46loPI    C3  723  14.050   2.446  10.217 -0.1050 -0.2050  0.0985
   46loPI   PO4  724  13.650   2.557   9.770 -0.1341 -0.3043 -0.0661
   46loPI   GL1  725  13.602   2.615   9.327  0.0864  0.4618  0.4445
   46loPI   GL2  726  14.019   2.510   9.363  0.2212  0.0926 -0.4921
   46loPI   C1A  727  13.653   2.810   8.916 -0.0254  0.6221  0.2173
   46loPI   C2A  728  13.639   2.718   8.460  0.0239  0.0948 -0.1257
   46loPI   C3A  729  13.576   2.776   7.983  0.2108 -0.2729  0.0659
   46loPI   C4A  730  13.941   2.815   7.627 -0.2205  0.0452 -0.0639
   46loPI   C5A  731  14.284   3.108   7.487 -0.0455  0.0589  0.1373
   46loPI   C6A  732  14.441   3.498   7.690  0.1636 -0.3331  0.0282
   46loPI   C1B  733  14.213   2.783   9.013  0.2618 -0.1548  0.2388
   46loPI   C2B  734  14.109   2.638   8.632 -0.1203 -0.1833 -0.0494
   46loPI   C3B  735  14.036   2.570   8.167 -0.0629  0.2461 -0.1260
   46loPI   C4B  736  13.915   2.273   7.823  0.1817 -0.1947 -0.0877
   47loPI    C1  737  17.619  15.983   9.580 -0.2159  0.2091 -0.0228
   47loPI    C2  738  17.497  15.641   9.746  0.0417  0.1839  0.1202
   47loPI    C3  739  17.483  15.981   9.957  0.0048  0.2210  0.0582
   47loPI   PO4  740  17.850  15.914   9.453 -0.1034  0.1899  0.1437
   47loPI   GL1  741  18.026  15.861   9.087  0.0072 -0.0517 -0.0572
   47loPI   GL2  742  17.953  15.607   9.041 -0.2671  0.5034 -0.0468
   47loPI   C1A  743  18.105  16.201   8.774  0.2778  0.3506  0.2627
   47loPI   C2A  744  18.137  16.230   8.366 -0.3680  0.1035 -0.1918
   47loPI   C3A  745  18.027  16.218   7.954 -0.0877 -0.0906 -0.0363
   47loPI   C4A  746  17.994  16.153   7.511 -0.0771  0.2282  0.0425
   47loPI   C5A  747  17.801  16.317   7.231  0.0778 -0.0989 -0.0417
   47loPI   C6A  748  17.350  16.342   7.270 -0.2479 -0.1284 -0.0883
   47loPI   C1B  749  17.921  15.704   8.571 -0.1624 -0.3906  0.0056
   47loPI   C2B  750  17.827  15.711   8.199  0.2291 -0.2473 -0.2573
   47loPI   C3B  751  17.825  15.768   7.775  0.0097 -0.1358  0.2515
   47loPI   C4B  752  17.757  15.726   7.369  0.0679  0.0324  0.0099
   48loPI    C1  753  12.913  13.048   9.731  0.0260 -0.2033 -0.0615
   48loPI    C2  754  13.083  13.168  10.073 -0.0693 -0.3940  0.0542
   48loPI    C3  755  12.724  13.310   9.968  0.2679  0.2205 -0.3245
   48loPI   PO4  756  13.054  13.248   9.530 -0.1179  0.1884  0.3143
   48loPI   GL1  757  13.142  13.462   9.111 -0.1059 -0.2009  0.4424
   48loPI   GL2  758  13.407  13.644   9.094 -0.2025 -0.1295  0.3052
   48loPI   C1A  759  13.145  13.178   8.636  0.0514 -0.3268 -0.1418
   48loPI   C2A  760  13.057  13.062   8.279  0.2445  0.0417  0.0728
   48loPI   C3A  761  13.427  12.953   8.004  0.1832  0.0555  0.0865
   48loPI   C4A  762  13.694  12.894   7.686  0.0800  0.1522  0.0841
   48loPI   C5A  763  13.622  13.045   7.319  0.1524 -0.1569 -0.0993
   48loPI   C6A  764  13.568  13.131   6.883  0.1613  0.1343 -0.0243
   48loPI   C1B  765  13.373  13.609   8.706  0.1493  0.0949  0.1238
   48loPI   C2B  766  13.569  13.414   8.481  0.0762  0.2244  0.1629
   48loPI   C3B  767  13.782  13.459   8.050 -0.2292 -0.3264  0.0073
   48loPI   C4B  768  13.948  13.347   7.648  0.2505  0.3303 -0.0920
   49loPI    C1  769  16.620  12.373   9.553 -0.3557  0.0463  0.0083
   49loPI    C2  770  16.593  12.710   9.339 -0.0298 -0.0425 -0.1790
   49loPI    C3  771  16.755  12.718   9.704 -0.4281  0.0781  0.0012
   49loPI   PO4  772  16.708  12.208   9.367  0.3605  0.1730 -0.2080
   49loPI   GL1  773  16.540  11.938   9.004 -0.0539 -0.2244  0.0642
   49loPI   GL2  774  16.699  12.125   8.766 -0.0184 -0.1255  0.0321
   49loPI   C1A  775  16.376  11.821   8.630 -0.2076  0.1298  0.1312
   49loPI   C2A  776  16.176  12.007   8.234 -0.3643  0.1057  0.3230
   49loPI   C3A  777  16.044  12.089   7.786  0.4252 -0.0085  0.4244
   49loPI   C4A  778  16.031  12.353   7.438  0.0231  0.0533  0.1286
   49loPI   C5A  779  16.196  12.830   7.175 -0.0494 -0.1227  0.3002
   49loPI   C6A  780  16.394  13.264   7.293 -0.1509 -0.1317  0.1503
   49loPI   C1B  781  16.793  12.304   8.407 -0.1521 -0.1221 -0.0725
   49loPI   C2B  782  16.687  12.101   8.025  0.1640 -0.0623  0.0374
   49loPI   C3B  783  16.478  11.746   7.813 -0.0613 -0.1562  0.0539
   49loPI   C4B  784  16.151  11.542   7.795  0.0224  0.3594 -0.1449
   50loPI    C1  785  11.879  14.409   9.509  0.1144  0.2102 -0.2151
   50loPI    C2  786  12.254  14.281   9.456  0.0491 -0.0037 -0.1708
   50loPI    C3  787  11.960  14.017   9.519 -0.0793  0.1728 -0.0202
   50loPI   PO4  788  11.939  14.660   9.358  0.1252  0.1260 -0.0052
   50loPI   GL1  789  12.196  14.714   9.113 -0.3345 -0.1966 -0.0039
   50loPI   GL2  790  12.427  14.820   9.016 -0.2805 -0.2026 -0.0078
   50loPI   C1A  791  12.245  14.345   8.760  0.0575  0.1133 -0.1120
   50loPI   C2A  792  12.514  14.066   8.582 -0.1248  0.2673  0.2768
   50loPI   C3A  793  12.497  13.984   8.207  0.0707  0.2382  0.2902
   50loPI   C4A  794  12.688  13.750   7.927 -0.0613 -0.0762 -0.3252
   50loPI   C5A  795  12.590  13.844   7.503  0.2908  0.0020 -0.5840
   50loPI   C6A  796  12.819  14.146   7.298  0.0631  0.1357 -0.1772
   50loPI   C1B  797  12.225  14.849   8.604  0.1023 -0.1383  0.0145
   50loPI   C2B  798  12.033  14.946   8.227  0.0514  0.2951 -0.2109
   50loPI   C3B  799  12.072  15.189   7.852  0.2120  0.0126  0.1279
   50loPI   C4B  800  11.946  15.200   7.432 -0.0631  0.0203  0.2861
   51loPI    C1  801  16.721   2.217   9.731 -0.2183 -0.1869 -0.1785
   51loPI    C2  802  16.975   1.914   9.670  0.1060  0.0616 -0.0898
   51loPI    C3  803  17.025   2.157   9.984 -0.4421 -0.0830  0.1215
   51loPI   PO4  804  16.647   2.319   9.519 -0.1018  0.2361 -0.2542
   51loPI   GL1  805  16.325   2.575   9.400  0.3078  0.1304 -0.0745
   51loPI   GL2  806  16.084   2.380   9.405 -0.3195 -0.0359  0.0677
   51loPI   C1A  807  16.213   2.460   8.956 -0.0086  0.1838 -0.1728
   51loPI   C2A  808  16.389   2.372   8.560 -0.0825  0.1994 -0.0642
   51loPI   C3A  809  16.595   2.292   8.191  0.0499 -0.4510  0.0552
   51loPI   C4A  810  16.522   2.459   7.796  0.1561  0.0690 -0.1297
   51loPI   C5A  811  16.458   2.255   7.462  0.0345 -0.0367 -0.1582
   51loPI   C6A  812  16.500   2.219   6.951  0.0644  0.2751 -0.0483
   51loPI   C1B  813  16.074   1.996   9.180 -0.2542 -0.0355  0.0509
   51loPI   C2B  814  16.214   1.937   8.806  0.1453 -0.2085  0.1871
   51loPI   C3B  815  16.209   1.978   8.358  0.1879 -0.0483 -0.2797
   51loPI   C4B  816  16.135   2.042   7.824  0.1220 -0.0736  0.2583
   52loPI    C1  817  12.090   8.664   8.871  0.0449 -0.0065 -0.1417
   52loPI    C2  818  11.936   8.472   9.186  0.2032  0.0825 -0.0077
   52loPI    C3  819  12.064   8.265   8.868  0.2212 -0.0218  0.0670
   52loPI   PO4  820  11.818   8.921   8.806  0.1245  0.0536 -0.0321
   52loPI   GL1  821  11.707   9.013   8.402 -0.3148  0.2366 -0.0968
   52loPI   GL2  822  11.900   9.246   8.306  0.0838 -0.0299  0.0589
   52loPI   C1A  823  11.717   8.776   8.036 -0.0159  0.3798 -0.1501
   52loPI   C2A  824  12.006   8.682   7.799 -0.1674 -0.0141  0.2144
   52loPI   C3A  825  12.049   8.605   7.390  0.2238  0.0843 -0.0924
   52loPI   C4A  826  12.142   8.325   6.956  0.0466  0.0061 -0.0465
   52loPI   C5A  827  12.317   7.960   6.752 -0.2702 -0.2142  0.1027
   52loPI   C6A  828  12.753   7.897   6.755  0.0412 -0.0980 -0.3121
   52loPI   C1B  829  11.932   9.194   7.842  0.1134 -0.0165  0.1752
   52loPI   C2B  830  11.797   9.037   7.456  0.0307  0.1664 -0.1627
   52loPI   C3B  831  11.793   8.693   6.979 -0.1624 -0.4219 -0.2871
   52loPI   C4B  832  11.663   8.775   6.502 -0.2894  0.1560  0.0337
   53loPI    C1  833   8.748   4.219   9.408  0.0728  0.0723 -0.1586
   53loPI    C2  834   8.430   4.155   9.174  0.0197  0.0080 -0.0696
   53loPI    C3  835   8.565   4.527   9.231 -0.0893  0.0438 -0.0432
   53loPI   PO4  836   8.890   3.993   9.357  0.1061  0.2104 -0.0508
   53loPI   GL1  837   8.782   3.933   8.960 -0.1837 -0.0026 -0.0844
   53loPI   GL2  838   8.828   3.676   8.852 -0.0401  0.0251  0.2895
   53loPI   C1A  839   8.569   4.049   8.592  0.0626  0.0532 -0.4106
   53loPI   C2A  840   8.445   4.146   8.224  0.0496 -0.2714 -0.0312
   53loPI   C3A  841   8.546   4.182   7.831 -0.0121 -0.0272 -0.1372
   53loPI   C4A  842   8.646   4.312   7.461 -0.0314 -0.0146 -0.0601
   53loPI   C5A  843   8.660   4.612   7.110 -0.0495  0.1991  0.5143
   53loPI   C6A  844   8.359   4.867   6.808 -0.1701  0.0295  0.3837
   53loPI   C1B  845   8.845   3.753   8.323  0.2071 -0.2201 -0.3861
   53loPI   C2B  846   8.713   3.711   7.833 -0.2432  0.1273  0.2044
   53loPI   C3B  847   8.771   3.862   7.430 -0.0042 -0.1079  0.2322
   53loPI   C4B  848   8.745   3.617   7.068 -0.0806 -0.2810  0.1209
   54loPI    C1  849   2.934   7.614   8.890 -0.0431  0.2504 -0.1128
   54loPI    C2  850   2.553   7.688   8.987 -0.1235 -0.1588 -0.1003
   54loPI    C3  851   2.801   7.527   9.257  0.1539  0.4109 -0.0017
   54loPI   PO4  852   3.024   7.831   8.745 -0.1088 -0.0793 -0.4230
   54loPI   GL1  853   3.215   7.787   8.291  0.0857 -0.1985 -0.4539
   54loPI   GL2  854   3.501   7.519   8.434 -0.0572 -0.2353 -0.0039
   54loPI   C1A  855   3.323   8.003   7.934 -0.2274 -0.0591  0.0089
   54loPI   C2A  856   3.389   7.992   7.461  0.0119 -0.0551  0.1629
   54loPI   C3A  857   3.370   8.225   7.081  0.0326 -0.2533 -0.1633
   54loPI   C4A  858   3.509   8.389   6.716 -0.1856  0.3080 -0.0945
   54loPI   C5A  859   3.857   8.712   6.550  0.0825 -0.2927  0.2251
   54loPI   C6A  860   4.325   8.709   6.406  0.0135  0.1181  0.2218
   54loPI   C1B  861   3.481   7.430   7.957  0.2923 -0.1166  0.1879
   54loPI   C2B  862   3.372   7.498   7.626 -0.2373 -0.1934  0.0909
   54loPI   C3B  863   3.252   7.479   7.187 -0.2078  0.1984  0.1727
   54loPI   C4B  864   3.231   7.737   6.770  0.2372 -0.2736 -0.0859
   55loPI    C1  865   0.255   4.315   9.458  0.2074 -0.0019  0.1405
   55loPI    C2  866   0.333   4.530   9.786 -0.1145  0.2040  0.0864
   55loPI    C3  867  -0.038   4.398   9.717  0.0127 -0.0927 -0.0473
   55loPI   PO4  868   0.484   4.226   9.339  0.1212 -0.0517 -0.0411
   55loPI   GL1  869   0.529   4.073   8.895 -0.0307 -0.2949 -0.0540
   55loPI   GL2  870   0.623   3.746   8.820 -0.2028  0.0267  0.2194
   55loPI   C1A  871   0.372   4.209   8.449 -0.4470 -0.2859 -0.1543
   55loPI   C2A  872   0.280   4.251   8.060 -0.0819 -0.0326 -0.1400
   55loPI   C3A  873   0.280   4.260   7.618 -0.1990 -0.1961 -0.0840
   55loPI   C4A  874   0.215   4.285   7.150 -0.0157  0.1861  0.1201
   55loPI   C5A  875   0.146   4.587   6.952 -0.1980 -0.2922 -0.2981
   55loPI   C6A  876   0.433   4.951   6.848  0.2560 -0.2752 -0.1425
   55loPI   C1B  877   0.772   3.920   8.437 -0.0468  0.2429 -0.0408
   55loPI   C2B  878   0.764   4.149   8.057  0.2292  0.0912  0.2212
   55loPI   C3B  879   0.748   4.174   7.656 -0.1688 -0.3507  0.0900
   55loPI   C4B  880   0.796   4.063   7.243  0.1495  0.1649  0.4992
   56loPI    C1  881  11.694   7.089   9.187 -0.4090  0.0309 -0.0328
   56loPI    C2  882  11.898   7.432   9.162 -0.4050  0.0310  0.0010
   56loPI    C3  883  11.579   7.406   9.402 -0.2593 -0.0616  0.1869
   56loPI   PO4  884  11.581   7.049   8.936  0.0047 -0.2263  0.0904
   56loPI   GL1  885  11.770   6.926   8.547  0.0393 -0.1850  0.2562
   56loPI   GL2  886  11.731   7.334   8.577  0.0383 -0.1819 -0.2405
   56loPI   C1A  887  11.686   6.704   8.152  0.0201 -0.0464 -0.2414
   56loPI   C2A  888  11.450   6.454   7.865 -0.1360 -0.1311  0.0348
   56loPI   C3A  889  11.378   6.580   7.450 -0.0430 -0.0456 -0.0429
   56loPI   C4A  890  11.353   6.552   7.037 -0.1796  0.4240  0.2806
   56loPI   C5A  891  11.601   6.168   6.870 -0.0647 -0.0622  0.2011
   56loPI   C6A  892  11.747   5.800   7.149 -0.1632  0.2004 -0.1549
   56loPI   C1B  893  11.718   7.244   8.113 -0.0844 -0.1414 -0.2651
   56loPI   C2B  894  11.667   6.995   7.737 -0.2298 -0.0760  0.2388
   56loPI   C3B  895  11.905   6.671   7.471  0.0163 -0.0106  0.0360
   56loPI   C4B  896  11.881   6.581   6.987 -0.1202 -0.1169 -0.0072
   57loPI    C1  897  15.003   6.963   9.856  0.0657 -0.2176 -0.1384
   57loPI    C2  898  15.116   7.122  10.205  0.1558 -0.0105 -0.2599
   57loPI    C3  899  14.765   6.932  10.175  0.0820  0.0978 -0.0931
   57loPI   PO4  900  15.225   6.862   9.772 -0.3347  0.1596  0.0568
   57loPI   GL1  901  15.482   6.580   9.297 -0.2345  0.1812  0.0602
   57loPI   GL2  902  15.271   6.724   9.312  0.3183 -0.0981  0.0801
   57loPI   C1A  903  15.512   6.364   8.904  0.2874  0.0332 -0.3015
   57loPI   C2A  904  15.403   6.354   8.485  0.0754  0.2247  0.1093
   57loPI   C3A  905  15.616   6.526   8.120 -0.0435 -0.1911  0.1485
   57loPI   C4A  906  15.459   6.592   7.707  0.2816 -0.0200 -0.3087
   57loPI   C5A  907  15.495   6.913   7.505  0.1854 -0.4002  0.4988
   57loPI   C6A  908  15.602   7.089   7.050  0.1880 -0.0594 -0.0610
   57loPI   C1B  909  15.082   6.822   8.945  0.5380  0.0739 -0.0257
   57loPI   C2B  910  15.014   6.689   8.557  0.2213  0.1797  0.1170
   57loPI   C3B  911  15.101   6.460   8.121  0.1996  0.0061  0.1009
   57loPI   C4B  912  15.232   6.075   8.059  0.2684  0.1886  0.2578
   58loPI    C1  913   0.545   4.986   8.991  0.1238  0.0605 -0.1619
   58loPI    C2  914   0.560   4.586   8.990 -0.1763  0.0473 -0.1865
   58loPI    C3  915   0.526   4.784   9.336 -0.1499  0.0465 -0.1833
   58loPI   PO4  916   0.735   5.048   8.727  0.0454  0.0813  0.2612
   58loPI   GL1  917   0.760   5.410   8.456 -0.0640 -0.1218  0.2272
   58loPI   GL2  918   0.649   5.643   8.401 -0.2139  0.0382 -0.1462
   58loPI   C1A  919   0.741   5.243   8.061 -0.2095 -0.2028  0.0110
   58loPI   C2A  920   0.790   5.100   7.704  0.1242  0.1661  0.0398
   58loPI   C3A  921   0.912   5.079   7.189 -0.0874  0.1237 -0.1531
   58loPI   C4A  922   0.906   4.959   6.906  0.5329 -0.1172 -0.0644
   58loPI   C5A  923   0.760   4.789   6.504 -0.1844 -0.4837  0.5006
   58loPI   C6A  924   0.803   4.407   6.200 -0.0694  0.1120 -0.1135
   58loPI   C1B  925   0.256   5.575   8.197 -0.3711  0.0105  0.2311
   58loPI   C2B  926   0.038   5.730   7.830  0.2558  0.0962 -0.3227
   58loPI   C3B  927   0.070   5.575   7.422 -0.0315 -0.1469  0.1188
   58loPI   C4B  928   0.101   5.421   6.973 -0.2615  0.1716  0.2840
   59loPI    C1  929  15.513   0.705   9.696 -0.1007 -0.2467  0.2177
   59loPI    C2  930  15.255   1.009   9.733 -0.0661 -0.1693 -0.1361
   59loPI    C3  931  15.615   1.030   9.906 -0.1123 -0.0649 -0.0518
   59loPI   PO4  932  15.517   0.665   9.438  0.0361  0.2123  0.0845
   59loPI   GL1  933  15.591   0.520   8.989 -0.2045 -0.0257 -0.2788
   59loPI   GL2  934  15.319   0.690   8.921  0.0877  0.1264 -0.0786
   59loPI   C1A  935  15.520   0.243   8.640 -0.1272 -0.1730 -0.2080
   59loPI   C2A  936  15.566   0.303   8.156  0.0554 -0.0855 -0.0998
   59loPI   C3A  937  15.535   0.310   7.741  0.0504 -0.2547 -0.1503
   59loPI   C4A  938  15.598   0.469   7.282  0.1460 -0.1719  0.1835
   59loPI   C5A  939  15.660   0.319   6.818  0.3077 -0.1023  0.1357
   59loPI   C6A  940  15.600  -0.012   6.584  0.0404 -0.4517  0.0040
   59loPI   C1B  941  15.555   0.685   8.509 -0.1545  0.2810  0.0745
   59loPI   C2B  942  15.557   0.758   8.280 -0.0437 -0.1218 -0.3260
   59loPI   C3B  943  15.689   0.746   7.908  0.2505  0.1264  0.2493
   59loPI   C4B  944  15.703   0.875   7.510 -0.0092 -0.0046  0.0166
   60loPI    C1  945   5.525   4.749   9.129  0.0772 -0.1625  0.1910
   60loPI    C2  946   5.520   4.993   9.447  0.0154 -0.1562  0.1852
   60loPI    C3  947   5.838   4.987   9.204 -0.0662  0.0679  0.0704
   60loPI   PO4  948   5.258   4.788   9.074 -0.1573 -0.3538  0.2799
   60loPI   GL1  949   5.023   4.934   8.710 -0.2119  0.1283 -0.0984
   60loPI   GL2  950   4.736   4.742   8.705  0.0391 -0.0451  0.0000
   60loPI   C1A  951   5.058   4.695   8.324  0.2535  0.0414  0.0300
   60loPI   C2A  952   5.034   4.553   7.949  0.2040  0.1474 -0.0399
   60loPI   C3A  953   5.052   4.310   7.564 -0.3924  0.1606 -0.1731
   60loPI   C4A  954   5.030   4.330   6.995  0.2362 -0.3390 -0.3845
   60loPI   C5A  955   5.220   4.113   6.586  0.0301 -0.1554 -0.3492
   60loPI   C6A  956   5.238   3.876   6.286 -0.4789 -0.3242 -0.3248
   60loPI   C1B  957   4.477   4.605   8.286  0.1417  0.0963  0.0256
   60loPI   C2B  958   4.360   4.544   7.931 -0.1592 -0.2424  0.1466
   60loPI   C3B  959   4.363   4.477   7.507  0.1656 -0.0456 -0.2408
   60loPI   C4B  960   4.306   4.424   7.029 -0.2361  0.2526 -0.4294
   61loPI    C1  961   1.421   9.148   9.277  0.0177 -0.0252  0.0708
   61loPI    C2  962   1.161   9.403   9.443  0.1035 -0.0507  0.2468
   61loPI    C3  963   1.234   9.051   9.617  0.2765 -0.0323  0.2137
   61loPI   PO4  964   1.414   9.078   8.917  0.0731 -0.2562  0.4227
   61loPI   GL1  965   1.190   9.234   8.501 -0.3882  0.3000  0.0282
   61loPI   GL2  966   1.499   9.240   8.348  0.1231 -0.2300  0.1880
   61loPI   C1A  967   0.991   9.234   8.102 -0.0104 -0.1719  0.2053
   61loPI   C2A  968   0.758   9.159   7.823  0.0372 -0.0138 -0.0758
   61loPI   C3A  969   0.779   9.265   7.385  0.1176 -0.0291  0.0797
   61loPI   C4A  970   0.937   9.183   7.041 -0.0782 -0.0391 -0.2434
   61loPI   C5A  971   1.295   9.141   6.791  0.1115 -0.0802 -0.0954
   61loPI   C6A  972   1.482   8.949   6.454 -0.2452  0.0454  0.2349
   61loPI   C1B  973   1.440   9.240   7.890  0.1626 -0.2211 -0.0779
   61loPI   C2B  974   1.244   9.113   7.571  0.4445  0.3882  0.1006
   61loPI   C3B  975   1.259   8.934   7.331 -0.0933  0.1298  0.3219
   61loPI   C4B  976   1.365   8.644   7.045 -0.0710  0.0582 -0.2524
   62loPI    C1  977   6.121  17.212   8.901 -0.2220 -0.2142  0.1328
   62loPI    C2  978   6.423  17.104   9.140  0.1750  0.0796 -0.2206
   62loPI    C3  979   6.141  17.354   9.274  0.0514 -0.2396  0.1300
   62loPI   PO4  980   6.102  17.050   8.783  0.0033 -0.1530  0.0989
   62loPI   GL1  981   5.907  16.987   8.472  0.0308 -0.2012  0.1442
   62loPI   GL2  982   6.250  16.999   8.287  0.2169 -0.1855 -0.2803
   62loPI   C1A  983   5.736  17.218   8.180  0.2166 -0.2046 -0.1413
   62loPI   C2A  984   5.741  17.240   7.741 -0.3133  0.0631 -0.0232
   62loPI   C3A  985   5.998  17.374   7.428 -0.1994  0.0441 -0.1512
   62loPI   C4A  986   6.085  17.514   7.131 -0.0616 -0.1852  0.2210
   62loPI   C5A  987   5.947  17.369   6.670  0.0984  0.0813 -0.0194
   62loPI   C6A  988   6.024  17.611   6.212  0.0111  0.2534 -0.2051
   62loPI   C1B  989   6.286  16.941   7.903  0.2171 -0.1542  0.1061
   62loPI   C2B  990   6.364  16.838   7.654  0.3561  0.1444 -0.0649
   62loPI   C3B  991   6.345  17.054   7.284 -0.2349 -0.5229 -0.2053
   62loPI   C4B  992   6.594  17.220   7.090  0.1866 -0.1953  0.2332
   63loPI    C1  993   7.882   7.121   9.502 -0.1452 -0.0262  0.1433
   63loPI    C2  994   7.683   7.431   9.346 -0.1355  0.1017  0.3806
   63loPI    C3  995   7.489   7.160   9.568 -0.1949 -0.2068 -0.0351
   63loPI   PO4  996   8.128   7.217   9.573 -0.1064  0.1417  0.1744
   63loPI   GL1  997   8.346   7.167   9.205  0.0160  0.0476  0.0401
   63loPI   GL2  998   8.064   7.210   8.977 -0.1555  0.1252 -0.0454
   63loPI   C1A  999   8.502   7.406   8.891  0.1228 -0.0959  0.1221
   63loPI   C2A 1000   8.576   7.342   8.468 -0.1507 -0.3851 -0.1296
   63loPI   C3A 1001   8.633   7.249   8.013  0.2905  0.0509 -0.0614
   63loPI   C4A 1002   8.585   7.122   7.577 -0.0586 -0.2486 -0.1597
   63loPI   C5A 1003   8.320   6.905   7.326 -0.1533  0.3195 -0.1525
   63loPI   C6A 1004   8.360   6.865   6.967  0.0329  0.1548 -0.2199
   63loPI   C1B 1005   7.957   7.211   8.532  0.0817 -0.3310  0.0884
   63loPI   C2B 1006   7.774   7.250   8.079 -0.1520 -0.0440  0.1590
   63loPI   C3B 1007   7.640   7.239   7.657  0.1909 -0.2544 -0.3254
   63loPI   C4B 1008   7.436   7.354   7.250 -0.1225  0.1294  0.0556
   64loPI    C1 1009   0.031   5.031   8.996 -0.4216 -0.0305  0.2476
   64loPI    C2 1010   0.035   4.954   9.389  0.4282 -0.1319  0.2380
   64loPI    C3 1011   0.073   4.655   9.126 -0.0526 -0.0547  0.0693
   64loPI   PO4 1012  -0.225   5.073   8.849 -0.0897 -0.0553  0.0969
   64loPI   GL1 1013  -0.712   5.172   8.895  0.4015  0.0850 -0.3030
   64loPI   GL2 1014  -0.991   5.079   8.824 -0.2311  0.0666  0.2814
   64loPI   C1A 1015  -0.727   5.233   8.457  0.0604 -0.0747  0.0261
   64loPI   C2A 1016  -0.746   5.068   8.032  0.1784 -0.2244  0.1605
   64loPI   C3A 1017  -0.951   4.981   7.629 -0.3875 -0.2084  0.0832
   64loPI   C4A 1018  -1.117   4.957   7.222 -0.2346  0.2779  0.0838
   64loPI   C5A 1019  -0.957   4.847   6.815 -0.1947 -0.1127 -0.0469
   64loPI   C6A 1020  -1.095   4.569   6.512 -0.1687 -0.2972 -0.0208
   64loPI   C1B 1021  -1.119   4.948   8.466 -0.0519  0.0060  0.0988
   64loPI   C2B 1022  -1.259   4.735   8.009 -0.2947  0.0333 -0.0819
   64loPI   C3B 1023  -1.247   4.581   7.587  0.2924 -0.1126  0.0279
   64loPI   C4B 1024  -0.941   4.456   7.228  0.0123 -0.2194  0.1061
   65loPI    C1 1025   6.488   5.480   9.063 -0.2406 -0.0994  0.1798
   65loPI    C2 1026   6.766   5.522   9.347  0.0064  0.1754 -0.0957
   65loPI    C3 1027   6.761   5.194   9.119  0.1383  0.1911 -0.1222
   65loPI   PO4 1028   6.486   5.660   8.969  0.2609  0.0476 -0.0697
   65loPI   GL1 1029   6.605   5.917   8.731 -0.1676 -0.1869  0.0519
   65loPI   GL2 1030   6.956   5.773   8.510  0.0881 -0.0670 -0.0109
   65loPI   C1A 1031   6.494   6.294   8.334  0.1940 -0.0972 -0.1283
   65loPI   C2A 1032   6.608   6.295   7.932  0.2192  0.2044 -0.0075
   65loPI   C3A 1033   6.735   6.052   7.580 -0.4798  0.0464 -0.2686
   65loPI   C4A 1034   6.949   5.742   7.275  0.0992 -0.1462 -0.2626
   65loPI   C5A 1035   7.205   5.611   6.899  0.0723  0.0963 -0.3381
   65loPI   C6A 1036   7.168   5.362   6.605  0.2015 -0.1180  0.1032
   65loPI   C1B 1037   7.148   5.373   8.285  0.2752 -0.1278 -0.0992
   65loPI   C2B 1038   7.304   5.376   7.904 -0.2112 -0.0629  0.0949
   65loPI   C3B 1039   7.378   5.530   7.462 -0.0015 -0.0002 -0.0332
   65loPI   C4B 1040   7.686   5.802   7.095 -0.3108 -0.0498  0.0411
   66loPI    C1 1041   8.202   3.761   9.634  0.0876 -0.0178 -0.0828
   66loPI    C2 1042   8.552   3.905   9.763 -0.0042  0.2404 -0.1145
   66loPI    C3 1043   8.227   3.935   9.994 -0.0129  0.0254 -0.0963
   66loPI   PO4 1044   8.113   3.783   9.396 -0.3863 -0.2408  0.0559
   66loPI   GL1 1045   8.033   3.548   9.058 -0.1375  0.2782  0.2036
   66loPI   GL2 1046   8.284   3.751   8.914  0.0331  0.0106 -0.0372
   66loPI   C1A 1047   7.861   3.378   8.751 -0.0144 -0.1225 -0.1474
   66loPI   C2A 1048   7.807   3.424   8.285 -0.1388 -0.0120  0.0424
   66loPI   C3A 1049   7.927   3.489   7.805 -0.1597  0.2887 -0.1799
   66loPI   C4A 1050   7.900   3.577   7.374  0.1859  0.1696  0.0869
   66loPI   C5A 1051   7.852   3.870   7.075  0.1936 -0.0634  0.0292
   66loPI   C6A 1052   7.957   4.010   6.765 -0.2695  0.0034  0.1737
   66loPI   C1B 1053   8.117   3.742   8.535 -0.0568 -0.2401  0.1331
   66loPI   C2B 1054   8.080   3.830   8.149  0.0046 -0.0552 -0.1108
   66loPI   C3B 1055   8.242   3.836   7.741  0.0258 -0.0707 -0.0905
   66loPI   C4B 1056   8.275   4.030   7.309 -0.0084  0.2367 -0.0807
   67loPI    C1 1057  17.744   9.061   9.920 -0.0572  0.2801 -0.0862
   67loPI    C2 1058  17.995   9.333  10.071  0.0037  0.1946 -0.0322
   67loPI    C3 1059  17.686   9.203  10.289  0.1497 -0.0038  0.0592
   67loPI   PO4 1060  17.729   9.167   9.596 -0.1812  0.0227  0.0563
   67loPI   GL1 1061  17.517   8.938   9.294 -0.0096 -0.5101 -0.1461
   67loPI   GL2 1062  17.704   8.678   9.224 -0.1023 -0.0300  0.4333
   67loPI   C1A 1063  17.535   9.008   8.876 -0.1922 -0.3041  0.0179
   67loPI   C2A 1064  17.470   8.902   8.480  0.2950 -0.0590  0.1049
   67loPI   C3A 1065  17.383   8.930   8.049  0.0070 -0.0627  0.1824
   67loPI   C4A 1066  17.310   8.918   7.706 -0.0660  0.0129  0.1212
   67loPI   C5A 1067  17.547   9.094   7.294  0.2097 -0.1931 -0.0451
   67loPI   C6A 1068  17.559   9.091   6.806 -0.1289  0.2199 -0.1805
   67loPI   C1B 1069  17.424   8.501   8.879  0.1091 -0.1456  0.2182
   67loPI   C2B 1070  17.263   8.472   8.381 -0.1907  0.1490 -0.0225
   67loPI   C3B 1071  17.163   8.492   7.957  0.0538 -0.1305  0.0020
   67loPI   C4B 1072  17.145   8.366   7.520 -0.0296 -0.0528 -0.5121
   68loPI    C1 1073  12.341   7.315   9.462  0.0612 -0.1401  0.1480
   68loPI    C2 1074  12.669   7.321   9.690  0.1174 -0.4141  0.0781
   68loPI    C3 1075  12.309   7.381   9.855  0.2164  0.1116  0.1205
   68loPI   PO4 1076  12.511   7.361   9.182 -0.0017  0.1006 -0.2883
   68loPI   GL1 1077  12.560   7.445   8.800 -0.0221  0.0496 -0.1573
   68loPI   GL2 1078  12.238   7.420   8.773 -0.1324  0.0713  0.2202
   68loPI   C1A 1079  12.636   7.319   8.380  0.0760  0.3146  0.2796
   68loPI   C2A 1080  12.553   7.366   7.927  0.1100  0.1601  0.1093
   68loPI   C3A 1081  12.631   7.492   7.533  0.1427  0.0975 -0.0094
   68loPI   C4A 1082  12.410   7.578   7.113  0.2866  0.2570 -0.0324
   68loPI   C5A 1083  12.378   7.382   6.717 -0.0759  0.0353 -0.2320
   68loPI   C6A 1084  12.286   7.218   6.293 -0.2422 -0.0044 -0.3448
   68loPI   C1B 1085  12.227   7.145   8.448  0.2170  0.2705  0.0362
   68loPI   C2B 1086  12.231   6.975   8.014  0.0473 -0.0181  0.2172
   68loPI   C3B 1087  12.295   7.063   7.591  0.0137 -0.0130  0.1748
   68loPI   C4B 1088  12.330   7.014   7.139 -0.1483 -0.4074  0.0392
   69loPI    C1 1089   7.589  17.924   8.907 -0.0867 -0.2722  0.1193
   69loPI    C2 1090   7.984  17.886   8.957 -0.0586 -0.2076 -0.0477
   69loPI    C3 1091   7.735  17.615   9.115  0.0278 -0.0411  0.3888
   69loPI   PO4 1092   7.547  17.979   8.773 -0.2021 -0.0723 -0.1558
   69loPI   GL1 1093   7.646  17.808   8.363  0.1555  0.3277  0.2074
   69loPI   GL2 1094   7.923  17.814   8.247  0.1209 -0.1575  0.3825
   69loPI   C1A 1095   7.487  17.748   7.829 -0.0886  0.0681  0.2975
   69loPI   C2A 1096   7.446  17.620   7.421  0.0351  0.2607 -0.1513
   69loPI   C3A 1097   7.460  17.686   6.943  0.0624  0.4076  0.0508
   69loPI   C4A 1098   7.432  17.629   6.506  0.3080  0.1331 -0.2720
   69loPI   C5A 1099   7.776  17.455   6.209  0.2004 -0.1534 -0.0004
   69loPI   C6A 1100   7.881  17.084   6.165 -0.0118  0.0496  0.0876
   69loPI   C1B 1101   8.032  17.694   7.846  0.2665  0.0907 -0.0816
   69loPI   C2B 1102   8.074  17.480   7.438 -0.2050 -0.1821 -0.3645
   69loPI   C3B 1103   7.977  17.472   7.006 -0.0477  0.1996 -0.0311
   69loPI   C4B 1104   7.964  17.771   6.649 -0.0910  0.1588  0.3456
   70loPI    C1 1105   6.794   3.087   9.341 -0.1656 -0.2463 -0.1822
   70loPI    C2 1106   6.489   3.113   9.599 -0.0720 -0.1150 -0.0833
   70loPI    C3 1107   6.848   2.990   9.726 -0.0588 -0.1755 -0.1789
   70loPI   PO4 1108   6.536   3.119   9.075  0.2340 -0.0744 -0.1874
   70loPI   GL1 1109   6.213   3.163   8.770 -0.1493 -0.1275  0.0748
   70loPI   GL2 1110   6.143   2.850   8.838  0.0514  0.0651  0.2430
   70loPI   C1A 1111   6.501   3.271   8.410 -0.0298 -0.3306 -0.1166
   70loPI   C2A 1112   6.607   3.491   8.006 -0.0554 -0.2917 -0.0353
   70loPI   C3A 1113   6.461   3.548   7.635 -0.0302  0.1609  0.1026
   70loPI   C4A 1114   6.497   3.597   7.101  0.1661 -0.1216 -0.0649
   70loPI   C5A 1115   6.464   3.271   6.815 -0.2747 -0.1765  0.1896
   70loPI   C6A 1116   6.338   3.332   6.400 -0.1246  0.4091  0.0456
   70loPI   C1B 1117   6.032   2.956   8.354 -0.0564  0.3068 -0.1550
   70loPI   C2B 1118   6.106   3.171   8.014 -0.1185 -0.4571  0.1642
   70loPI   C3B 1119   6.085   3.212   7.542 -0.1558 -0.0393  0.1961
   70loPI   C4B 1120   6.041   3.392   7.157  0.0203  0.1661 -0.0137
   71loPI    C1 1121   7.116  13.312   9.541  0.2785 -0.2791  0.0028
   71loPI    C2 1122   6.765  13.295   9.349  0.0547  0.3350  0.3308
   71loPI    C3 1123   6.800  13.139   9.716  0.2494 -0.0924  0.1375
   71loPI   PO4 1124   7.316  13.419   9.454 -0.2191  0.2472 -0.3343
   71loPI   GL1 1125   7.380  13.532   8.968  0.2772 -0.1142 -0.0300
   71loPI   GL2 1126   7.637  13.325   8.918  0.1149  0.3215 -0.2358
   71loPI   C1A 1127   7.118  13.457   8.737  0.0071  0.2901  0.0038
   71loPI   C2A 1128   6.964  13.409   8.286  0.1150 -0.0474 -0.0504
   71loPI   C3A 1129   6.959  13.409   7.852  0.2949 -0.1705  0.0951
   71loPI   C4A 1130   7.016  13.395   7.377  0.0791  0.1937 -0.0070
   71loPI   C5A 1131   6.981  13.602   7.000 -0.0023 -0.0091  0.1244
   71loPI   C6A 1132   7.178  13.726   6.654 -0.0352 -0.1122  0.2375
   71loPI   C1B 1133   7.552  13.511   8.481  0.1334  0.0387  0.0378
   71loPI   C2B 1134   7.616  13.685   8.033  0.3560  0.0477 -0.1948
   71loPI   C3B 1135   7.715  13.781   7.651  0.0856  0.1806  0.4128
   71loPI   C4B 1136   7.965  13.472   7.353 -0.1018  0.1980  0.0108
   72loPI    C1 1137   6.743   4.767   9.796  0.0568  0.0149  0.0026
   72loPI    C2 1138   6.682   5.122   9.622 -0.1202 -0.1292 -0.2347
   72loPI    C3 1139   6.617   5.078  10.014  0.1054  0.1519 -0.1626
   72loPI   PO4 1140   7.084   4.729   9.635 -0.1140  0.0145  0.2249
   72loPI   GL1 1141   7.251   4.641   9.223 -0.1105  0.0229  0.3214
   72loPI   GL2 1142   7.542   4.420   9.027 -0.3740  0.1163 -0.0619
   72loPI   C1A 1143   7.104   4.625   8.726  0.0860 -0.1274  0.3572
   72loPI   C2A 1144   7.007   4.663   8.313 -0.0864 -0.4800 -0.2670
   72loPI   C3A 1145   6.985   4.961   7.936  0.0049  0.1143 -0.0463
   72loPI   C4A 1146   6.992   4.799   7.599 -0.4618  0.0052  0.1253
   72loPI   C5A 1147   7.107   4.710   7.260  0.2189 -0.2378 -0.0131
   72loPI   C6A 1148   7.222   4.583   6.829 -0.2951 -0.1789  0.3232
   72loPI   C1B 1149   7.516   4.364   8.518 -0.3030  0.0191 -0.4183
   72loPI   C2B 1150   7.451   4.468   8.099 -0.2425  0.3295 -0.0418
   72loPI   C3B 1151   7.492   4.496   7.650  0.5736  0.0704 -0.1941
   72loPI   C4B 1152   7.612   4.691   7.352  0.2282  0.1358 -0.1164
   73loPI    C1 1153   8.598   7.010   9.571 -0.4089 -0.1263 -0.1044
   73loPI    C2 1154   8.757   6.721   9.797  0.3041  0.2058 -0.1525
   73loPI    C3 1155   8.599   7.045   9.970 -0.0402  0.0226 -0.1143
   73loPI   PO4 1156   8.730   6.879   9.336 -0.0243 -0.1246 -0.4027
   73loPI   GL1 1157   9.158   6.904   9.042 -0.0028  0.0492  0.1251
   73loPI   GL2 1158   8.888   7.006   8.800 -0.0477  0.1772  0.0918
   73loPI   C1A 1159   9.390   6.829   8.700  0.4288 -0.1897 -0.0339
   73loPI   C2A 1160   9.413   6.752   8.223 -0.3864 -0.3602 -0.0596
   73loPI   C3A 1161   9.602   6.690   7.823  0.0470  0.1075 -0.0292
   73loPI   C4A 1162   9.532   6.582   7.362 -0.1306  0.2162 -0.4029
   73loPI   C5A 1163   9.790   6.382   7.079 -0.3002 -0.1094  0.0967
   73loPI   C6A 1164   9.975   5.960   7.094 -0.1350  0.0722 -0.1002
   73loPI   C1B 1165   8.800   6.948   8.382  0.0653  0.2846 -0.1517
   73loPI   C2B 1166   8.798   6.666   7.967 -0.0505  0.5120  0.3011
   73loPI   C3B 1167   8.548   6.548   7.610  0.0124  0.1646  0.4010
   73loPI   C4B 1168   8.592   6.455   7.168 -0.0617  0.1314  0.1478
   74loPI    C1 1169   3.740   7.034   9.442 -0.0547 -0.1765  0.0001
   74loPI    C2 1170   3.705   6.651   9.550  0.0538 -0.1738  0.0458
   74loPI    C3 1171   3.960   6.891   9.743  0.0513 -0.1009 -0.0409
   74loPI   PO4 1172   3.667   7.049   9.258  0.1151  0.3043 -0.4379
   74loPI   GL1 1173   3.458   6.914   8.913 -0.1379 -0.0817 -0.2871
   74loPI   GL2 1174   3.203   6.685   8.890 -0.1351 -0.1955  0.0163
   74loPI   C1A 1175   3.531   6.773   8.507 -0.0932 -0.6118 -0.2368
   74loPI   C2A 1176   3.746   7.107   8.251 -0.0812  0.1880  0.4572
   74loPI   C3A 1177   3.940   7.225   7.822  0.3484 -0.1874  0.1239
   74loPI   C4A 1178   3.998   7.255   7.387  0.0721 -0.0606  0.1417
   74loPI   C5A 1179   3.977   7.340   6.974 -0.2185  0.1567  0.0101
   74loPI   C6A 1180   4.094   7.672   6.514  0.0895  0.1218 -0.0004
   74loPI   C1B 1181   3.078   6.536   8.519 -0.1043 -0.0576  0.0191
   74loPI   C2B 1182   3.005   6.446   8.025 -0.0998 -0.1289 -0.1722
   74loPI   C3B 1183   3.128   6.524   7.580 -0.3871 -0.0262 -0.0704
   74loPI   C4B 1184   3.010   6.518   7.139  0.3196  0.0877  0.0998
   75loPI    C1 1185   0.568   5.906   9.220  0.4493  0.4257 -0.0660
   75loPI    C2 1186   0.618   6.156   9.528  0.0308 -0.0595  0.4176
   75loPI    C3 1187   0.691   5.765   9.574 -0.1613 -0.1597 -0.0654
   75loPI   PO4 1188   0.541   6.158   8.953 -0.2618  0.2503  0.1000
   75loPI   GL1 1189   0.336   6.498   8.831 -0.1997 -0.0349 -0.1833
   75loPI   GL2 1190   0.068   6.552   8.710  0.3001  0.3554  0.2309
   75loPI   C1A 1191   0.412   6.556   8.362 -0.1120 -0.1650 -0.0398
   75loPI   C2A 1192   0.423   6.601   7.962  0.3421  0.0098  0.1426
   75loPI   C3A 1193   0.483   6.577   7.545 -0.1373 -0.3199 -0.1385
   75loPI   C4A 1194   0.603   6.287   7.260 -0.2878  0.2800  0.5588
   75loPI   C5A 1195   0.374   6.329   6.934  0.2253 -0.0677 -0.0609
   75loPI   C6A 1196   0.370   6.640   6.619 -0.1608 -0.2539  0.0144
   75loPI   C1B 1197  -0.106   6.419   8.375 -0.2411 -0.1046  0.0823
   75loPI   C2B 1198  -0.047   6.407   7.966  0.3835  0.0934  0.4251
   75loPI   C3B 1199  -0.124   6.474   7.628  0.1181 -0.0516 -0.1381
   75loPI   C4B 1200   0.000   6.504   7.330 -0.3182 -0.2954 -0.0155
   76loPI    C1 1201   7.627   3.804   9.251 -0.4020  0.2534  0.0476
   76loPI    C2 1202   7.681   3.827   9.646 -0.0419 -0.0229  0.0194
   76loPI    C3 1203   7.769   4.140   9.414 -0.1938  0.1181  0.1499
   76loPI   PO4 1204   7.365   3.757   9.165  0.1497 -0.1302 -0.1653
   76loPI   GL1 1205   7.096   3.737   8.806 -0.1077  0.1427  0.2401
   76loPI   GL2 1206   7.093   4.118   8.789 -0.1219 -0.0967 -0.0656
   76loPI   C1A 1207   7.032   3.569   8.401 -0.0154  0.3129 -0.0664
   76loPI   C2A 1208   6.992   3.669   7.879  0.2237 -0.1845 -0.0431
   76loPI   C3A 1209   6.961   3.750   7.419 -0.3636 -0.0399 -0.1382
   76loPI   C4A 1210   6.999   3.696   6.943  0.1779 -0.0440 -0.0797
   76loPI   C5A 1211   7.092   3.497   6.627  0.0912 -0.3368 -0.0222
   76loPI   C6A 1212   7.491   3.355   6.459  0.0736  0.1580  0.1007
   76loPI   C1B 1213   7.027   4.169   8.279 -0.2497  0.0196  0.0507
   76loPI   C2B 1214   6.984   4.343   7.871  0.2011  0.1963 -0.1917
   76loPI   C3B 1215   6.996   4.265   7.477 -0.1801  0.0273  0.1107
   76loPI   C4B 1216   7.016   4.172   7.017  0.1549  0.3429 -0.0671
   77loPI    C1 1217  11.736   1.381   9.569  0.1144  0.1478  0.0741
   77loPI    C2 1218  11.342   1.309   9.557  0.1620 -0.1353  0.1364
   77loPI    C3 1219  11.513   1.433   9.897  0.0754  0.3172  0.0219
   77loPI   PO4 1220  11.759   1.605   9.330 -0.2206  0.4449 -0.3984
   77loPI   GL1 1221  11.711   1.729   8.994  0.4204  0.0167  0.3705
   77loPI   GL2 1222  11.386   1.710   8.679  0.1166  0.1400  0.0114
   77loPI   C1A 1223  11.900   1.738   8.637  0.1423  0.5269 -0.0029
   77loPI   C2A 1224  11.817   1.598   8.226 -0.4368 -0.1757  0.3605
   77loPI   C3A 1225  11.702   1.464   7.782 -0.0121  0.0805  0.2438
   77loPI   C4A 1226  12.037   1.296   7.445 -0.2402 -0.1427  0.0651
   77loPI   C5A 1227  12.264   1.511   7.169 -0.2445 -0.2353 -0.1416
   77loPI   C6A 1228  12.602   1.446   6.827 -0.0875 -0.2420 -0.0412
   77loPI   C1B 1229  11.189   2.135   8.697 -0.1016 -0.1136  0.3304
   77loPI   C2B 1230  10.976   2.472   8.550  0.1948  0.1440  0.0926
   77loPI   C3B 1231  11.038   2.814   8.216  0.1011  0.1313  0.4141
   77loPI   C4B 1232  11.308   2.987   7.954 -0.0138  0.1270 -0.1599
   78loPI    C1 1233   5.563  12.215   9.328  0.1931 -0.1314  0.1666
   78loPI    C2 1234   5.767  11.993   9.591  0.0151 -0.1095  0.3251
   78loPI    C3 1235   5.369  11.957   9.564  0.0518 -0.2591 -0.0855
   78loPI   PO4 1236   5.562  12.452   9.378 -0.1318 -0.0564  0.2187
   78loPI   GL1 1237   5.516  12.770   9.081 -0.1383  0.5140  0.0318
   78loPI   GL2 1238   5.331  12.616   8.865 -0.1196  0.1146  0.3158
   78loPI   C1A 1239   5.826  12.571   8.822  0.3884 -0.2753  0.1668
   78loPI   C2A 1240   5.919  12.434   8.435  0.2252 -0.0329 -0.1514
   78loPI   C3A 1241   5.879  12.500   8.127 -0.0957 -0.0985  0.0363
   78loPI   C4A 1242   6.079  12.444   7.812 -0.1361  0.0535  0.0236
   78loPI   C5A 1243   6.229  12.389   7.334 -0.0884 -0.0973 -0.1978
   78loPI   C6A 1244   6.485  12.205   7.090  0.0417 -0.0055 -0.0394
   78loPI   C1B 1245   5.308  12.528   8.483  0.1466 -0.0627 -0.0790
   78loPI   C2B 1246   5.400  12.354   8.071 -0.0866  0.0055  0.1649
   78loPI   C3B 1247   5.534  12.496   7.679 -0.0197 -0.1460  0.0148
   78loPI   C4B 1248   5.725  12.387   7.347  0.1560  0.0957 -0.3384
   79loPI    C1 1249  11.038   8.020   9.098  0.0713  0.1048 -0.3315
   79loPI    C2 1250  11.003   8.418   9.130 -0.5243  0.0433 -0.0994
   79loPI    C3 1251  10.884   8.181   9.430  0.3012 -0.3029 -0.0188
   79loPI   PO4 1252  11.171   8.000   8.805  0.0823  0.0830 -0.0506
   79loPI   GL1 1253  11.111   7.882   8.433  0.1585 -0.0040  0.2195
   79loPI   GL2 1254  11.083   7.623   8.520  0.2843 -0.0298  0.4311
   79loPI   C1A 1255  11.100   7.683   7.965  0.5011 -0.0418  0.0952
   79loPI   C2A 1256  11.006   7.739   7.607  0.0337  0.0141 -0.0508
   79loPI   C3A 1257  11.062   7.733   7.246  0.0008 -0.0986  0.1324
   79loPI   C4A 1258  11.369   7.912   6.909  0.0053 -0.0357 -0.2991
   79loPI   C5A 1259  11.291   8.002   6.445 -0.0587  0.2033  0.0941
   79loPI   C6A 1260  11.185   8.556   6.312 -0.2765  0.3019 -0.0828
   79loPI   C1B 1261  11.504   7.680   8.254  0.0655  0.2268  0.3600
   79loPI   C2B 1262  11.565   7.585   7.825 -0.1294 -0.0629  0.1676
   79loPI   C3B 1263  11.564   7.845   7.380  0.2064  0.3424 -0.0500
   79loPI   C4B 1264  11.762   8.066   7.141 -0.1051 -0.1175 -0.0474
   80loPI    C1 1265  18.606  17.288   9.736 -0.2140  0.2622  0.0695
   80loPI    C2 1266  18.834  17.615   9.758 -0.0458  0.1490  0.0270
   80loPI    C3 1267  18.701  17.441  10.093  0.0631  0.1241  0.0578
   80loPI   PO4 1268  18.692  17.067   9.583 -0.1995  0.1036 -0.0358
   80loPI   GL1 1269  18.837  16.887   9.181 -0.1133 -0.0647  0.2872
   80loPI   GL2 1270  19.107  16.709   8.997 -0.0129 -0.0144 -0.3448
   80loPI   C1A 1271  18.610  17.293   8.951  0.2286 -0.3979  0.1891
   80loPI   C2A 1272  18.543  17.176   8.509  0.3347  0.1803 -0.1172
   80loPI   C3A 1273  18.591  17.318   8.128 -0.0564  0.2326 -0.3066
   80loPI   C4A 1274  18.791  17.371   7.768  0.0386 -0.0193 -0.1933
   80loPI   C5A 1275  18.941  17.071   7.388  0.0799 -0.1021  0.3886
   80loPI   C6A 1276  18.750  17.039   7.051 -0.0280 -0.2772  0.2348
   80loPI   C1B 1277  18.916  16.732   8.587 -0.0543 -0.1303  0.2217
   80loPI   C2B 1278  18.659  16.816   8.220  0.2389 -0.1212 -0.0926
   80loPI   C3B 1279  18.570  16.812   7.803  0.2391 -0.1392 -0.0643
   80loPI   C4B 1280  18.549  16.685   7.372 -0.0984 -0.1101 -0.1401
   81loPI    C1 1281   0.471  19.911   9.345  0.0291  0.0211  0.1430
   81loPI    C2 1282   0.247  20.003   9.663  0.0490  0.1068  0.1326
   81loPI    C3 1283   0.625  20.134   9.639  0.0528  0.0864  0.0815
   81loPI   PO4 1284   0.469  19.752   9.213  0.3405  0.0968 -0.2291
   81loPI   GL1 1285   0.566  19.700   8.772  0.5900 -0.0427  0.1607
   81loPI   GL2 1286   0.934  19.739   8.830  0.0582  0.1342 -0.0520
   81loPI   C1A 1287   0.520  19.987   8.355 -0.2696 -0.2315  0.0105
   81loPI   C2A 1288   0.506  20.180   8.031 -0.1329  0.3167  0.3956
   81loPI   C3A 1289   0.509  20.396   7.652  0.5045 -0.0310 -0.4504
   81loPI   C4A 1290   0.516  20.294   7.244  0.2415  0.1277  0.0474
   81loPI   C5A 1291   0.768  20.146   6.951 -0.3337  0.0021  0.5547
   81loPI   C6A 1292   1.162  20.072   6.828 -0.2385  0.0057  0.0368
   81loPI   C1B 1293   0.794  19.596   8.380  0.2148 -0.0775  0.1491
   81loPI   C2B 1294   0.702  19.657   8.029 -0.0162  0.0679 -0.0055
   81loPI   C3B 1295   0.800  19.921   7.702  0.0708 -0.0996  0.1334
   81loPI   C4B 1296   0.974  19.901   7.295  0.1300 -0.1881 -0.3476
   82loPI    C1 1297   8.701   2.657   9.628 -0.0931  0.3364 -0.4062
   82loPI    C2 1298   8.382   2.466   9.774  0.5301 -0.1855  0.3540
   82loPI    C3 1299   8.438   2.853   9.857 -0.1419  0.0566 -0.2182
   82loPI   PO4 1300   8.652   2.651   9.375  0.1027  0.0795  0.0335
   82loPI   GL1 1301   8.687   2.679   9.047 -0.1199 -0.1255  0.0784
   82loPI   GL2 1302   8.915   2.592   8.836 -0.0670 -0.2760  0.0837
   82loPI   C1A 1303   8.489   2.806   8.700 -0.0675  0.1459 -0.1598
   82loPI   C2A 1304   8.427   2.693   8.314 -0.1183 -0.1307 -0.1930
   82loPI   C3A 1305   8.415   2.814   7.897  0.2309 -0.2409  0.1655
   82loPI   C4A 1306   8.424   2.923   7.460 -0.0388 -0.2565  0.1482
   82loPI   C5A 1307   8.429   3.149   7.107 -0.2860  0.3655 -0.0836
   82loPI   C6A 1308   8.265   3.557   7.028  0.0006 -0.2243 -0.0827
   82loPI   C1B 1309   8.962   2.638   8.332  0.0667  0.4083 -0.4284
   82loPI   C2B 1310   8.951   2.667   7.855  0.1624 -0.2072  0.1163
   82loPI   C3B 1311   8.955   2.700   7.496 -0.1573  0.0475 -0.0814
   82loPI   C4B 1312   8.840   2.776   7.057 -0.1296  0.1871  0.1563
   83loPI    C1 1313   1.734   7.771   9.216  0.2824  0.3124 -0.0663
   83loPI    C2 1314   1.506   7.950   9.491  0.0726  0.0355 -0.0560
   83loPI    C3 1315   1.620   7.570   9.543  0.2310  0.0571 -0.2381
   83loPI   PO4 1316   1.650   7.813   8.913 -0.2148  0.0696  0.0689
   83loPI   GL1 1317   1.647   7.664   8.459 -0.2173 -0.0886 -0.1330
   83loPI   GL2 1318   1.908   7.788   8.462 -0.2869  0.2280  0.0895
   83loPI   C1A 1319   1.456   7.590   8.135  0.2281  0.0102  0.1627
   83loPI   C2A 1320   1.293   7.493   7.763  0.0020 -0.2043  0.2721
   83loPI   C3A 1321   1.066   7.463   7.317  0.1520 -0.4806 -0.0590
   83loPI   C4A 1322   1.072   7.314   6.894  0.3220  0.0808 -0.0396
   83loPI   C5A 1323   0.841   7.440   6.635  0.0588 -0.1492  0.3664
   83loPI   C6A 1324   0.423   7.565   6.500  0.1244 -0.2151  0.0767
   83loPI   C1B 1325   1.896   7.878   8.035  0.1188  0.0467  0.0151
   83loPI   C2B 1326   1.826   7.843   7.627  0.3205 -0.0501  0.1638
   83loPI   C3B 1327   1.874   7.862   7.145 -0.1823 -0.1984  0.0844
   83loPI   C4B 1328   1.764   7.835   6.627 -0.0253  0.2668 -0.0135
   84loPI    C1 1329   1.061  13.191   9.064  0.1692 -0.3095  0.0998
   84loPI    C2 1330   1.093  13.407   9.400  0.0522 -0.1312 -0.0020
   84loPI    C3 1331   1.418  13.237   9.239  0.2019  0.2249 -0.0877
   84loPI   PO4 1332   1.004  13.383   8.828  0.0917 -0.1225 -0.0115
   84loPI   GL1 1333   0.973  13.519   8.420  0.0814  0.0897  0.1058
   84loPI   GL2 1334   1.249  13.498   8.405  0.3755  0.3785 -0.0506
   84loPI   C1A 1335   0.895  13.347   7.979 -0.0172  0.0698 -0.0676
   84loPI   C2A 1336   0.940  13.479   7.578 -0.0260 -0.2028 -0.0428
   84loPI   C3A 1337   0.891  13.380   7.112  0.0495  0.0950  0.0368
   84loPI   C4A 1338   0.767  13.493   6.761 -0.1589 -0.4729  0.0016
   84loPI   C5A 1339   0.853  13.533   6.313  0.0269  0.3511  0.3332
   84loPI   C6A 1340   0.847  13.317   5.893  0.0817 -0.2739 -0.3936
   84loPI   C1B 1341   1.326  13.405   8.137 -0.0464  0.2215 -0.1165
   84loPI   C2B 1342   1.302  13.094   7.687  0.3278  0.1512 -0.3934
   84loPI   C3B 1343   1.145  12.992   7.277  0.0132  0.1523  0.1090
   84loPI   C4B 1344   0.755  12.866   7.097 -0.3212  0.2812 -0.1115
   85loPI    C1 1345   7.984  19.295   9.385  0.0595 -0.1631 -0.0787
   85loPI    C2 1346   7.767  19.011   9.564 -0.1417  0.0923  0.0905
   85loPI    C3 1347   7.887  19.331   9.772  0.0584  0.1470 -0.1057
   85loPI   PO4 1348   7.841  19.408   9.174  0.0250 -0.3374  0.2875
   85loPI   GL1 1349   7.829  19.574   8.767  0.1209  0.1227  0.2152
   85loPI   GL2 1350   7.581  19.676   8.646  0.2187  0.0455 -0.1268
   85loPI   C1A 1351   8.154  19.317   8.531  0.0771 -0.1689 -0.0434
   85loPI   C2A 1352   8.187  19.291   8.046 -0.2179 -0.2998 -0.0908
   85loPI   C3A 1353   8.176  19.265   7.708 -0.2677  0.1707 -0.0358
   85loPI   C4A 1354   8.257  19.431   7.327 -0.1264 -0.4263 -0.2406
   85loPI   C5A 1355   8.131  19.593   6.930  0.0025 -0.0545  0.1773
   85loPI   C6A 1356   8.196  19.765   6.509  0.0244  0.0343  0.3665
   85loPI   C1B 1357   7.820  19.592   8.260  0.3665 -0.0785  0.0186
   85loPI   C2B 1358   7.765  19.488   7.874 -0.0757 -0.0373  0.1282
   85loPI   C3B 1359   7.856  19.723   7.409  0.1454 -0.3245  0.2163
   85loPI   C4B 1360   7.778  19.930   6.949  0.2477  0.0902 -0.2795
   86loPI    C1 1361   4.351  14.103   9.087 -0.0317 -0.0601 -0.0035
   86loPI    C2 1362   4.281  14.202   9.468  0.1849 -0.0022  0.0227
   86loPI    C3 1363   4.536  13.906   9.382  0.0774 -0.0673 -0.0762
   86loPI   PO4 1364   4.159  13.951   8.976  0.1679  0.0195  0.1870
   86loPI   GL1 1365   4.200  13.570   8.836  0.1607  0.0052 -0.0137
   86loPI   GL2 1366   3.985  13.640   8.579  0.1962  0.1668 -0.3830
   86loPI   C1A 1367   4.419  13.379   8.514 -0.2360 -0.1025 -0.1014
   86loPI   C2A 1368   4.506  13.353   8.070  0.1386 -0.0714  0.1398
   86loPI   C3A 1369   4.966  13.438   7.783  0.2142 -0.2841 -0.3085
   86loPI   C4A 1370   5.019  13.197   7.289 -0.0830 -0.0456  0.2580
   86loPI   C5A 1371   4.778  13.059   6.950 -0.0344 -0.4707 -0.1587
   86loPI   C6A 1372   4.453  13.061   6.699 -0.0282  0.0121  0.0872
   86loPI   C1B 1373   4.147  13.750   8.163  0.1686 -0.0430  0.0052
   86loPI   C2B 1374   4.196  13.592   7.786  0.0915  0.2177  0.0098
   86loPI   C3B 1375   4.224  13.760   7.380  0.0138 -0.0829 -0.1626
   86loPI   C4B 1376   4.146  13.751   6.967 -0.0876  0.0256  0.2393
   87loPI    C1 1377  14.765  17.720   9.720 -0.0905  0.1232 -0.0949
   87loPI    C2 1378  14.929  17.432   9.944  0.2087  0.1731 -0.2457
   87loPI    C3 1379  14.787  17.764  10.117 -0.1571 -0.0698 -0.0688
   87loPI   PO4 1380  14.751  17.581   9.513 -0.1750 -0.0476 -0.4000
   87loPI   GL1 1381  14.651  17.457   9.150 -0.2797  0.0592 -0.0714
   87loPI   GL2 1382  14.821  17.304   9.012 -0.3093  0.0020  0.2232
   87loPI   C1A 1383  14.417  17.644   8.804  0.0048 -0.1082  0.1316
   87loPI   C2A 1384  14.401  17.655   8.334 -0.0171  0.3908 -0.1669
   87loPI   C3A 1385  14.454  17.589   7.866 -0.1319  0.2103 -0.1534
   87loPI   C4A 1386  14.512  17.611   7.455  0.0307  0.2147 -0.2311
   87loPI   C5A 1387  14.549  17.911   7.048  0.1674  0.0912  0.2511
   87loPI   C6A 1388  14.784  17.784   6.738 -0.2732  0.3574 -0.0629
   87loPI   C1B 1389  14.864  17.557   8.573 -0.1705  0.0194  0.0090
   87loPI   C2B 1390  14.853  17.581   8.156 -0.2328 -0.0321 -0.1771
   87loPI   C3B 1391  15.085  17.677   7.752  0.0500  0.1844 -0.0393
   87loPI   C4B 1392  15.109  17.569   7.268  0.0590  0.0469  0.0403
   88loPI    C1 1393  12.644  10.019   9.404 -0.0268  0.0950  0.2091
   88loPI    C2 1394  12.504   9.658   9.504 -0.0431 -0.0620 -0.3479
   88loPI    C3 1395  12.461   9.965   9.756 -0.2102 -0.3994  0.0474
   88loPI   PO4 1396  12.680   9.887   9.094 -0.1328 -0.1334 -0.0297
   88loPI   GL1 1397  13.022   9.798   8.856 -0.4816 -0.1569 -0.3836
   88loPI   GL2 1398  13.380   9.968   8.769 -0.1685  0.2533  0.2908
   88loPI   C1A 1399  13.000   9.896   8.418  0.0550 -0.2528 -0.1122
   88loPI   C2A 1400  13.253   9.811   8.070  0.0434 -0.1209 -0.0434
   88loPI   C3A 1401  13.096   9.876   7.693 -0.1141  0.1372  0.3390
   88loPI   C4A 1402  13.138   9.988   7.177 -0.1196  0.2942  0.0737
   88loPI   C5A 1403  13.429  10.059   6.845  0.0465  0.1081 -0.0128
   88loPI   C6A 1404  13.724  10.369   6.786  0.2593  0.1363  0.0228
   88loPI   C1B 1405  13.637   9.751   8.370 -0.2989  0.0956  0.1927
   88loPI   C2B 1406  13.782   9.331   8.132 -0.2375 -0.1356 -0.4224
   88loPI   C3B 1407  13.620   9.016   7.844  0.1431 -0.0562  0.2251
   88loPI   C4B 1408  13.491   8.984   7.420 -0.0746 -0.2088 -0.0856
   89loPI    C1 1409   3.917   1.238   9.472 -0.0084  0.0128 -0.0516
   89loPI    C2 1410   3.594   1.116   9.674  0.0768 -0.0946  0.0211
   89loPI    C3 1411   3.850   1.372   9.843  0.0783 -0.0813 -0.0013
   89loPI   PO4 1412   4.046   0.941   9.412 -0.4270  0.0716 -0.0513
   89loPI   GL1 1413   3.958   0.888   8.945  0.0899 -0.2639 -0.0075
   89loPI   GL2 1414   4.244   1.157   8.883 -0.3123  0.2149  0.1873
   89loPI   C1A 1415   3.876   1.131   8.540  0.0424 -0.0734  0.2045
   89loPI   C2A 1416   3.946   1.090   8.028 -0.3677  0.0255 -0.3989
   89loPI   C3A 1417   3.987   1.178   7.561  0.1736  0.0544  0.0377
   89loPI   C4A 1418   4.137   1.106   7.264 -0.1565 -0.0351 -0.1285
   89loPI   C5A 1419   4.026   0.959   6.909 -0.1021 -0.2500 -0.0567
   89loPI   C6A 1420   3.923   1.001   6.465  0.1732  0.1556 -0.1708
   89loPI   C1B 1421   4.333   0.934   8.563  0.0110 -0.3552 -0.2272
   89loPI   C2B 1422   4.513   0.853   8.160  0.0679 -0.0423 -0.0616
   89loPI   C3B 1423   4.808   0.817   7.983  0.1874 -0.0106  0.1878
   89loPI   C4B 1424   4.835   0.706   7.501 -0.0607 -0.0432  0.2984
   90loPI    C1 1425  18.805  16.209   9.435  0.1529 -0.0343 -0.0127
   90loPI    C2 1426  18.791  16.317   9.820  0.0862 -0.4050  0.0937
   90loPI    C3 1427  18.604  16.537   9.543  0.3889  0.0353  0.2273
   90loPI   PO4 1428  18.874  15.926   9.410 -0.0114  0.1051  0.0145
   90loPI   GL1 1429  18.748  15.603   9.164 -0.0915  0.1653 -0.1187
   90loPI   GL2 1430  18.441  15.500   9.223  0.4638 -0.0085  0.0566
   90loPI   C1A 1431  18.733  15.769   8.706  0.0573 -0.4708 -0.0144
   90loPI   C2A 1432  18.407  15.822   8.383 -0.0506  0.0331 -0.2134
   90loPI   C3A 1433  18.296  15.803   7.941  0.0454 -0.0165 -0.0786
   90loPI   C4A 1434  18.277  15.750   7.526  0.1602  0.1276 -0.2884
   90loPI   C5A 1435  18.176  15.746   7.100 -0.1140  0.0914 -0.0520
   90loPI   C6A 1436  18.161  15.777   6.572 -0.1988  0.1004 -0.0283
   90loPI   C1B 1437  18.331  15.405   8.727  0.0262 -0.1171 -0.1257
   90loPI   C2B 1438  18.203  15.338   8.279 -0.3066 -0.0194 -0.0958
   90loPI   C3B 1439  18.030  15.178   7.925 -0.2174  0.1021 -0.0170
   90loPI   C4B 1440  17.870  15.181   7.436  0.2320 -0.0720 -0.2144
   91loPI    C1 1441   8.143  18.344   9.217  0.0696  0.0488 -0.0990
   91loPI    C2 1442   8.060  18.036   9.458  0.1618 -0.0978 -0.2520
   91loPI    C3 1443   7.766  18.218   9.257  0.1147 -0.1223 -0.2056
   91loPI   PO4 1444   8.346  18.252   9.054  0.0624  0.0148 -0.1892
   91loPI   GL1 1445   8.626  18.065   8.705 -0.1830 -0.4583  0.1567
   91loPI   GL2 1446   8.342  18.025   8.605  0.1287 -0.1953 -0.0294
   91loPI   C1A 1447   8.853  17.940   8.285 -0.1562  0.0409 -0.1537
   91loPI   C2A 1448   8.896  17.965   7.872 -0.0597 -0.0770 -0.3472
   91loPI   C3A 1449   8.755  18.092   7.347 -0.2067  0.0353 -0.2613
   91loPI   C4A 1450   8.789  17.880   7.070 -0.0580  0.2837 -0.2321
   91loPI   C5A 1451   8.971  17.756   6.606  0.3404  0.2356  0.0695
   91loPI   C6A 1452   8.926  17.367   6.333  0.1153 -0.0492 -0.1319
   91loPI   C1B 1453   8.335  18.009   8.137  0.0499  0.0686  0.4078
   91loPI   C2B 1454   8.376  18.011   7.742  0.2403  0.1997  0.1106
   91loPI   C3B 1455   8.312  18.256   7.493 -0.0261 -0.0699 -0.2832
   91loPI   C4B 1456   8.139  18.519   7.119  0.1564 -0.3127  0.1361
   92loPI    C1 1457   9.827   6.671   9.207 -0.0125 -0.1190 -0.2238
   92loPI    C2 1458  10.014   6.619   9.557  0.0240 -0.1557 -0.2487
   92loPI    C3 1459  10.218   6.585   9.214 -0.0079 -0.1031 -0.2730
   92loPI   PO4 1460   9.538   6.722   9.336 -0.0147 -0.1889 -0.0538
   92loPI   GL1 1461   9.199   6.432   8.933  0.0378 -0.0209  0.0950
   92loPI   GL2 1462   8.762   6.501   8.998  0.1793 -0.2298 -0.0640
   92loPI   C1A 1463   9.409   6.348   8.469  0.0675  0.1227 -0.2786
   92loPI   C2A 1464   9.236   6.400   7.977 -0.2100 -0.0997 -0.2408
   92loPI   C3A 1465   9.082   6.463   7.546  0.3196 -0.3320  0.0345
   92loPI   C4A 1466   9.084   6.305   7.182  0.0131  0.0221 -0.2630
   92loPI   C5A 1467   8.787   6.143   6.774  0.2842  0.0204  0.0362
   92loPI   C6A 1468   8.784   5.777   6.556 -0.2312  0.0550 -0.0757
   92loPI   C1B 1469   8.930   6.329   8.436  0.2469 -0.0712 -0.1950
   92loPI   C2B 1470   9.165   5.966   8.151  0.0208 -0.0362  0.0360
   92loPI   C3B 1471   9.258   5.724   7.725  0.6646  0.0966  0.1310
   92loPI   C4B 1472   9.285   5.394   7.328 -0.0333  0.0135 -0.1475
   93loPI    C1 1473  18.261   6.175   9.708  0.2244 -0.0954 -0.0505
   93loPI    C2 1474  18.123   6.122  10.079  0.0626  0.1102 -0.0793
   93loPI    C3 1475  18.494   6.005   9.985  0.1247  0.1086  0.1612
   93loPI   PO4 1476  18.101   6.088   9.469  0.0141 -0.1152  0.0775
   93loPI   GL1 1477  17.680   6.219   9.099 -0.1207 -0.0166 -0.5096
   93loPI   GL2 1478  17.637   6.014   9.344 -0.0206  0.1918 -0.1304
   93loPI   C1A 1479  17.829   6.578   8.880 -0.3075  0.1013  0.0789
   93loPI   C2A 1480  17.995   6.905   8.658 -0.0686  0.3602 -0.0638
   93loPI   C3A 1481  17.991   7.145   8.337  0.2158  0.4242 -0.2254
   93loPI   C4A 1482  17.890   7.055   7.948 -0.0656 -0.0959 -0.3769
   93loPI   C5A 1483  17.795   6.718   7.692 -0.0862 -0.1357 -0.3421
   93loPI   C6A 1484  17.802   6.491   7.285  0.0374  0.0178 -0.0910
   93loPI   C1B 1485  17.706   5.722   9.020 -0.1340 -0.5254 -0.2177
   93loPI   C2B 1486  17.522   5.569   8.627 -0.1179 -0.0125 -0.0983
   93loPI   C3B 1487  17.343   5.715   8.258 -0.1996 -0.3146 -0.0035
   93loPI   C4B 1488  17.185   5.796   7.800  0.0249  0.1163 -0.1773
   94loPI    C1 1489   2.943  19.312   9.582  0.1623  0.0399 -0.1521
   94loPI    C2 1490   2.734  19.558   9.818  0.0260  0.0494 -0.2810
   94loPI    C3 1491   3.113  19.466   9.910  0.0050  0.1283 -0.1112
   94loPI   PO4 1492   2.835  19.435   9.312 -0.0140 -0.0789 -0.3088
   94loPI   GL1 1493   2.890  19.651   9.002 -0.0801  0.1657 -0.0909
   94loPI   GL2 1494   2.785  20.033   8.842  0.0262  0.2711  0.3602
   94loPI   C1A 1495   3.179  19.782   8.734 -0.0929 -0.2949  0.1916
   94loPI   C2A 1496   3.209  20.123   8.356 -0.0496 -0.2698 -0.2845
   94loPI   C3A 1497   2.952  20.245   7.892  0.1231 -0.0844 -0.0957
   94loPI   C4A 1498   2.951  20.419   7.415 -0.3161  0.1702  0.2031
   94loPI   C5A 1499   3.147  20.600   7.077 -0.1322  0.0198 -0.0234
   94loPI   C6A 1500   3.104  20.993   7.142  0.0198 -0.0229 -0.0793
   94loPI   C1B 1501   2.549  19.686   8.581  0.1240 -0.1407 -0.0050
   94loPI   C2B 1502   2.286  19.682   8.286  0.1311  0.0613  0.4104
   94loPI   C3B 1503   2.123  19.721   7.866 -0.1008  0.1609  0.3662
   94loPI   C4B 1504   2.197  19.745   7.462 -0.2377 -0.0662 -0.2609
   95loPI    C1 1505   7.587   6.622   9.559  0.0228  0.0813 -0.1316
   95loPI    C2 1506   7.551   6.818   9.906 -0.1382  0.0990 -0.1574
   95loPI    C3 1507   7.677   6.438   9.903 -0.0273  0.1348 -0.0896
   95loPI   PO4 1508   7.443   6.625   9.369  0.1713  0.2379 -0.1473
   95loPI   GL1 1509   7.494   6.566   8.935 -0.2409 -0.3124 -0.0761
   95loPI   GL2 1510   7.136   6.731   8.890 -0.0489 -0.0269 -0.0808
   95loPI   C1A 1511   7.477   6.529   8.502 -0.2889 -0.1396  0.2007
   95loPI   C2A 1512   7.378   6.339   8.085  0.0853  0.0780  0.1847
   95loPI   C3A 1513   7.162   6.268   7.697  0.2739  0.2145 -0.0628
   95loPI   C4A 1514   7.324   6.182   7.295 -0.2102 -0.0630 -0.2788
   95loPI   C5A 1515   7.218   6.150   6.851 -0.2220  0.0044 -0.0662
   95loPI   C6A 1516   7.451   6.333   6.408  0.2756 -0.0690 -0.2730
   95loPI   C1B 1517   6.958   6.647   8.453 -0.2620 -0.3338  0.1532
   95loPI   C2B 1518   6.918   6.612   7.905  0.0362 -0.0582  0.1579
   95loPI   C3B 1519   6.793   6.579   7.426 -0.5176  0.1919  0.2291
   95loPI   C4B 1520   6.797   6.231   7.061 -0.2281  0.1195 -0.0116
   96loPI    C1 1521   3.141   0.785   9.595 -0.0193 -0.2922 -0.1609
   96loPI    C2 1522   3.369   0.690   9.909  0.0255 -0.0345 -0.1130
   96loPI    C3 1523   3.309   0.423   9.617  0.2677 -0.1549 -0.0550
   96loPI   PO4 1524   3.154   0.942   9.403 -0.1234  0.1312 -0.2827
   96loPI   GL1 1525   3.346   1.119   9.078  0.3522  0.1378 -0.0042
   96loPI   GL2 1526   3.703   1.333   8.982  0.2761  0.0728  0.1739
   96loPI   C1A 1527   3.400   1.033   8.640 -0.1409  0.0034 -0.0842
   96loPI   C2A 1528   3.425   1.041   8.235 -0.0895  0.1226 -0.1373
   96loPI   C3A 1529   3.508   1.065   7.779  0.0710 -0.0309  0.2112
   96loPI   C4A 1530   3.516   1.290   7.458 -0.0980  0.1906  0.2492
   96loPI   C5A 1531   3.794   1.427   7.098 -0.1239 -0.2982  0.2339
   96loPI   C6A 1532   4.120   1.550   6.795 -0.2198  0.0790  0.0201
   96loPI   C1B 1533   3.525   1.534   8.574  0.0873  0.2561 -0.1896
   96loPI   C2B 1534   3.624   1.520   8.148  0.1660  0.2208 -0.2365
   96loPI   C3B 1535   3.736   1.620   7.763  0.0670  0.1068 -0.2409
   96loPI   C4B 1536   3.892   1.950   7.424  0.0335  0.2709  0.3364
   97loPI    C1 1537  14.556   5.069   9.519  0.2053  0.0136 -0.1321
   97loPI    C2 1538  14.598   4.850   9.850  0.1950 -0.0034 -0.1420
   97loPI    C3 1539  14.625   5.248   9.870  0.2300 -0.0066 -0.1267
   97loPI   PO4 1540  14.405   4.961   9.403  0.0937  0.0923 -0.3086
   97loPI   GL1 1541  14.349   4.628   9.030 -0.2426 -0.2959  0.2314
   97loPI   GL2 1542  14.140   4.383   8.995  0.3781  0.2261 -0.1241
   97loPI   C1A 1543  14.647   4.376   8.941  0.1536 -0.5378  0.4505
   97loPI   C2A 1544  14.851   4.435   8.590  0.0697  0.0256  0.2633
   97loPI   C3A 1545  14.867   4.620   8.445  0.3233  0.1563  0.0909
   97loPI   C4A 1546  14.550   4.730   8.052 -0.2828 -0.1863 -0.0867
   97loPI   C5A 1547  14.428   4.946   7.675 -0.0891  0.2513 -0.0649
   97loPI   C6A 1548  14.515   5.349   7.408 -0.2663  0.1139 -0.2063
   97loPI   C1B 1549  14.375   4.410   8.533 -0.3850 -0.1507 -0.2645
   97loPI   C2B 1550  14.209   4.348   8.173  0.3493 -0.1483 -0.0874
   97loPI   C3B 1551  14.289   4.356   7.816 -0.0368 -0.0399 -0.5100
   97loPI   C4B 1552  13.987   4.373   7.411 -0.1126  0.0588  0.1006
   98loPI    C1 1553   9.526   1.100   9.351  0.1175  0.2020 -0.1080
   98loPI    C2 1554   9.710   1.227   9.682  0.1416 -0.1390  0.0128
   98loPI    C3 1555   9.565   0.854   9.664 -0.0958 -0.0366 -0.2643
   98loPI   PO4 1556   9.608   1.379   9.201 -0.0338  0.0528  0.0655
   98loPI   GL1 1557   9.605   1.384   8.779 -0.0227 -0.0161 -0.0991
   98loPI   GL2 1558   9.375   1.588   8.811  0.1427 -0.1817  0.2889
   98loPI   C1A 1559   9.695   1.192   8.404  0.3062 -0.2567 -0.1817
   98loPI   C2A 1560   9.528   1.071   8.055 -0.2341  0.0835  0.0462
   98loPI   C3A 1561   9.626   0.747   7.780 -0.1760 -0.3773  0.0091
   98loPI   C4A 1562   9.832   0.757   7.391 -0.0147  0.0989 -0.0583
   98loPI   C5A 1563  10.221   0.645   7.217 -0.2676 -0.1272 -0.4721
   98loPI   C6A 1564  10.200   0.347   6.866 -0.0585 -0.1343  0.1561
   98loPI   C1B 1565   9.415   1.655   8.354 -0.1281  0.0785  0.2351
   98loPI   C2B 1566   9.413   1.551   7.914  0.0321 -0.3870  0.0490
   98loPI   C3B 1567   9.538   1.200   7.589  0.0672 -0.1798 -0.1928
   98loPI   C4B 1568   9.494   1.129   7.170 -0.2168 -0.0922 -0.2024
   99loPI    C1 1569  19.001  18.003   9.295 -0.0068 -0.1524 -0.0269
   99loPI    C2 1570  19.170  17.951   9.654  0.1647 -0.0737 -0.0951
   99loPI    C3 1571  18.844  18.180   9.618  0.0683 -0.1895  0.0303
   99loPI   PO4 1572  19.289  17.992   9.108  0.0982  0.2545  0.2417
   99loPI   GL1 1573  19.179  17.847   8.633  0.2697  0.3217  0.2286
   99loPI   GL2 1574  18.869  17.761   8.860 -0.2651 -0.0821 -0.2666
   99loPI   C1A 1575  19.330  17.911   8.185  0.0561  0.0683 -0.1654
   99loPI   C2A 1576  19.565  18.024   7.858 -0.4012  0.0328 -0.0086
   99loPI   C3A 1577  19.477  18.006   7.487  0.1284 -0.1372 -0.2000
   99loPI   C4A 1578  19.563  17.885   7.048 -0.1556 -0.1757  0.3440
   99loPI   C5A 1579  19.789  17.848   6.630 -0.0722 -0.0613 -0.1095
   99loPI   C6A 1580  19.986  18.149   6.315 -0.1899  0.0768 -0.1819
   99loPI   C1B 1581  18.736  17.747   8.447 -0.1030  0.3218 -0.2476
   99loPI   C2B 1582  18.827  17.794   8.044  0.0548  0.1723 -0.2031
   99loPI   C3B 1583  18.929  17.902   7.634 -0.1331  0.1455 -0.0688
   99loPI   C4B 1584  19.060  18.061   7.196  0.3480  0.4321  0.0309
  100loPI    C1 1585  13.284  11.424   9.467 -0.0316 -0.1528 -0.0181
  100loPI    C2 1586  12.916  11.415   9.623 -0.0069 -0.0258  0.0489
  100loPI    C3 1587  13.166  11.109   9.684 -0.1625 -0.1966 -0.1507
  100loPI   PO4 1588  13.249  11.474   9.183  0.2272 -0.0549 -0.1969
  100loPI   GL1 1589  13.279  11.587   8.769 -0.1726 -0.2111 -0.0457
  100loPI   GL2 1590  13.193  11.871   8.816  0.0119  0.0175  0.0078
  100loPI   C1A 1591  13.527  11.457   8.414  0.0331  0.2296  0.1587
  100loPI   C2A 1592  13.506  11.355   7.918  0.2648  0.0476 -0.0881
  100loPI   C3A 1593  13.674  11.553   7.685  0.1283  0.3270 -0.1578
  100loPI   C4A 1594  14.114  11.666   7.520  0.0289 -0.0217 -0.1076
  100loPI   C5A 1595  14.447  11.749   7.188 -0.2154  0.1749  0.1765
  100loPI   C6A 1596  14.849  12.037   7.121  0.4314 -0.0675 -0.0486
  100loPI   C1B 1597  12.999  11.843   8.426 -0.0408 -0.0376  0.0690
  100loPI   C2B 1598  12.808  11.820   7.971  0.0464  0.0083 -0.0007
  100loPI   C3B 1599  12.683  11.993   7.489 -0.2338  0.0698 -0.0085
  100loPI   C4B 1600  12.591  12.181   7.109 -0.0422 -0.0154  0.1096
  101loPI    C1 1601   4.387   8.457   9.050 -0.0280 -0.0087  0.1606
  101loPI    C2 1602   4.610   8.125   9.034 -0.0981 -0.0527  0.0842
  101loPI    C3 1603   4.691   8.408   9.305  0.1244 -0.0148 -0.0204
  101loPI   PO4 1604   4.197   8.490   8.828  0.1980  0.2517  0.1281
  101loPI   GL1 1605   4.068   8.767   8.556  0.1224 -0.2883  0.0970
  101loPI   GL2 1606   4.275   8.865   8.540 -0.0563  0.0371 -0.1907
  101loPI   C1A 1607   3.926   8.711   8.175  0.0307  0.2021  0.1239
  101loPI   C2A 1608   4.226   8.670   7.822 -0.0857 -0.1740  0.1547
  101loPI   C3A 1609   4.248   8.553   7.413  0.0006  0.0865  0.0356
  101loPI   C4A 1610   3.951   8.998   7.228 -0.0659 -0.1581 -0.1685
  101loPI   C5A 1611   4.102   9.225   6.768  0.3129 -0.0566  0.2419
  101loPI   C6A 1612   4.022   9.556   6.468 -0.3625  0.0579 -0.1609
  101loPI   C1B 1613   4.441   8.425   8.308 -0.1456 -0.0880  0.1715
  101loPI   C2B 1614   4.520   8.300   7.876  0.2760 -0.1659 -0.0401
  101loPI   C3B 1615   4.552   8.088   7.483 -0.0483  0.0993  0.0913
  101loPI   C4B 1616   4.634   7.977   7.094 -0.3441 -0.0229  0.2873
  102loPI    C1 1617  17.987  14.228   9.866  0.2761  0.1516 -0.2526
  102loPI    C2 1618  18.360  14.220  10.008  0.1858  0.2478 -0.0028
  102loPI    C3 1619  18.140  14.552  10.044  0.0910  0.2072 -0.1915
  102loPI   PO4 1620  18.049  14.254   9.578  0.1625  0.1360 -0.2389
  102loPI   GL1 1621  18.043  14.127   9.215  0.1019  0.1621  0.1805
  102loPI   GL2 1622  17.932  14.438   9.142 -0.2437  0.2612  0.0356
  102loPI   C1A 1623  17.860  14.046   8.877 -0.0169  0.2355  0.2533
  102loPI   C2A 1624  17.842  14.047   8.452 -0.2904  0.1039  0.0818
  102loPI   C3A 1625  17.941  14.069   7.984  0.3368  0.0412  0.2811
  102loPI   C4A 1626  17.912  14.040   7.548  0.0586  0.2443  0.2226
  102loPI   C5A 1627  17.843  14.260   7.119  0.3096 -0.0455 -0.0700
  102loPI   C6A 1628  17.751  14.649   6.762  0.2897  0.3273  0.1133
  102loPI   C1B 1629  17.956  14.590   8.764  0.0322  0.1310  0.1095
  102loPI   C2B 1630  17.714  14.702   8.458 -0.0235  0.1208  0.0296
  102loPI   C3B 1631  17.580  14.846   8.033 -0.3735  0.0331 -0.0672
  102loPI   C4B 1632  17.419  14.950   7.645  0.2376  0.0778 -0.0694
  103loPI    C1 1633   8.854   2.191   9.335  0.3133 -0.1840 -0.0454
  103loPI    C2 1634   8.902   1.840   9.522  0.0452 -0.1885  0.0190
  103loPI    C3 1635   8.690   2.132   9.695  0.0539 -0.0835 -0.1452
  103loPI   PO4 1636   9.065   2.225   9.189 -0.1374 -0.4578 -0.1985
  103loPI   GL1 1637   9.152   2.078   8.825  0.1659  0.2213 -0.0879
  103loPI   GL2 1638   8.875   1.872   8.842  0.0072 -0.1288  0.0892
  103loPI   C1A 1639   9.134   2.175   8.466  0.2017 -0.1514  0.1234
  103loPI   C2A 1640   9.045   2.168   8.055 -0.1152 -0.2171  0.2897
  103loPI   C3A 1641   8.995   2.202   7.619  0.1062  0.0812  0.0025
  103loPI   C4A 1642   8.914   2.218   7.258 -0.2522  0.1209 -0.3206
  103loPI   C5A 1643   9.227   2.404   6.950 -0.3436  0.0839  0.6105
  103loPI   C6A 1644   9.366   2.891   6.744 -0.5219 -0.1746 -0.2030
  103loPI   C1B 1645   8.948   1.646   8.569 -0.0094  0.2663 -0.1688
  103loPI   C2B 1646   8.923   1.664   8.139  0.1197  0.1952 -0.1490
  103loPI   C3B 1647   8.625   1.786   7.795  0.0038  0.0508 -0.0448
  103loPI   C4B 1648   8.622   1.735   7.321 -0.2321 -0.0553 -0.0718
  104loPI    C1 1649   5.838  14.166   9.523 -0.0676  0.1641  0.0159
  104loPI    C2 1650   5.549  14.152   9.799 -0.1377 -0.2776 -0.0720
  104loPI    C3 1651   5.928  14.208   9.910 -0.2045 -0.1238  0.0821
  104loPI   PO4 1652   5.823  14.182   9.277 -0.0582  0.2022 -0.0608
  104loPI   GL1 1653   5.936  14.223   8.841 -0.1789  0.1499  0.2977
  104loPI   GL2 1654   5.694  13.957   8.753 -0.0340 -0.0962 -0.0895
  104loPI   C1A 1655   6.103  14.058   8.412 -0.0182  0.1871  0.0994
  104loPI   C2A 1656   6.182  13.946   7.955 -0.2188 -0.1186  0.0294
  104loPI   C3A 1657   6.264  13.882   7.533  0.0291 -0.1672 -0.0926
  104loPI   C4A 1658   6.095  13.869   7.168 -0.1513 -0.0733 -0.0907
  104loPI   C5A 1659   5.872  14.056   6.810  0.0323  0.3396 -0.1710
  104loPI   C6A 1660   5.670  14.138   6.326  0.1065 -0.1482  0.1516
  104loPI   C1B 1661   5.670  13.908   8.323 -0.1648 -0.2764 -0.0340
  104loPI   C2B 1662   5.655  13.867   7.809  0.0984 -0.1776  0.0386
  104loPI   C3B 1663   5.597  13.971   7.344  0.1586  0.0759  0.0786
  104loPI   C4B 1664   5.475  14.309   7.109 -0.1079  0.0918 -0.0192
  105loPI    C1 1665  13.635  17.422   9.451 -0.0331 -0.2035 -0.3737
  105loPI    C2 1666  13.237  17.458   9.431 -0.0609 -0.2090  0.0700
  105loPI    C3 1667  13.405  17.095   9.430 -0.0607 -0.2090 -0.0314
  105loPI   PO4 1668  13.722  17.548   9.310  0.1680 -0.1789 -0.0548
  105loPI   GL1 1669  13.878  17.746   8.910  0.1104 -0.3506 -0.0478
  105loPI   GL2 1670  13.740  17.395   8.815  0.0370 -0.0090  0.1938
  105loPI   C1A 1671  13.703  18.031   8.679  0.0643  0.1936  0.0567
  105loPI   C2A 1672  13.670  18.124   8.308  0.0292 -0.3391 -0.2194
  105loPI   C3A 1673  13.650  18.052   7.787 -0.2261 -0.2018  0.2269
  105loPI   C4A 1674  13.620  17.926   7.414 -0.2620 -0.2617 -0.4168
  105loPI   C5A 1675  13.495  18.022   7.074 -0.2326  0.2518  0.1887
  105loPI   C6A 1676  13.373  17.781   6.665 -0.1806 -0.1596 -0.3595
  105loPI   C1B 1677  13.792  17.576   8.468  0.2454 -0.1641 -0.0001
  105loPI   C2B 1678  13.903  17.692   8.040  0.0623 -0.0098 -0.2531
  105loPI   C3B 1679  13.998  17.606   7.688  0.1016  0.1907  0.1648
  105loPI   C4B 1680  14.064  17.757   7.237 -0.3723 -0.0619  0.3286
  106loPI    C1 1681  12.206   3.697   9.856 -0.0070 -0.0770  0.0704
  106loPI    C2 1682  12.530   3.462   9.879  0.0546 -0.0230 -0.2102
  106loPI    C3 1683  12.238   3.428  10.150  0.2656 -0.1162  0.0080
  106loPI   PO4 1684  12.227   3.744   9.561 -0.0186 -0.0012 -0.0017
  106loPI   GL1 1685  12.312   3.592   9.162 -0.2032 -0.0272 -0.3037
  106loPI   GL2 1686  12.067   3.759   9.030 -0.1110 -0.1380  0.1932
  106loPI   C1A 1687  12.612   3.688   8.652  0.2051  0.1117 -0.4342
  106loPI   C2A 1688  12.732   3.577   8.208  0.1149 -0.0597  0.2966
  106loPI   C3A 1689  12.730   3.434   7.873  0.1090  0.0909  0.0526
  106loPI   C4A 1690  12.754   3.548   7.430  0.0651 -0.1843 -0.2913
  106loPI   C5A 1691  12.909   3.794   7.086 -0.0560 -0.1077  0.1278
  106loPI   C6A 1692  13.159   4.147   7.116  0.3338 -0.0936  0.0360
  106loPI   C1B 1693  12.077   3.651   8.635  0.0084 -0.1077 -0.2840
  106loPI   C2B 1694  12.241   3.665   8.200 -0.0270 -0.3069  0.1498
  106loPI   C3B 1695  12.288   3.712   7.756 -0.0312 -0.0974  0.0797
  106loPI   C4B 1696  12.500   3.965   7.388 -0.1316  0.1541  0.2492
  107loPI    C1 1697   1.281  19.886   9.280  0.1636  0.0542 -0.2037
  107loPI    C2 1698   1.333  19.561   9.053  0.0252 -0.0710 -0.0584
  107loPI    C3 1699   1.647  19.789   9.150  0.1460 -0.2420 -0.0416
  107loPI   PO4 1700   1.106  20.031   9.234  0.1099  0.4284 -0.1665
  107loPI   GL1 1701   0.771  20.197   9.056  0.4953  0.0657  0.0070
  107loPI   GL2 1702   0.707  20.500   9.104 -0.0812 -0.1196  0.2802
  107loPI   C1A 1703   0.973  20.262   8.659 -0.0677  0.0630 -0.0341
  107loPI   C2A 1704   1.011  20.373   8.240  0.4523  0.1959  0.1986
  107loPI   C3A 1705   0.958  20.498   7.844 -0.0658  0.1352  0.0145
  107loPI   C4A 1706   0.956  20.506   7.420 -0.0130 -0.1355  0.0235
  107loPI   C5A 1707   1.039  20.619   6.987  0.1669 -0.1902  0.1101
  107loPI   C6A 1708   0.908  20.495   6.546 -0.1541 -0.1885  0.1248
  107loPI   C1B 1709   0.886  20.750   8.734  0.0479 -0.1144 -0.0025
  107loPI   C2B 1710   1.242  21.021   8.583 -0.3967 -0.0086  0.0647
  107loPI   C3B 1711   1.603  20.898   8.342 -0.0596 -0.2859  0.3224
  107loPI   C4B 1712   1.660  21.020   7.924 -0.0174 -0.1634 -0.2103
  108loPI    C1 1713  15.375  11.023  10.060  0.0981 -0.0630 -0.1168
  108loPI    C2 1714  15.699  10.849  10.217  0.0103 -0.0136  0.1230
  108loPI    C3 1715  15.336  10.765  10.363 -0.0898 -0.0923 -0.1644
  108loPI   PO4 1716  15.462  11.050   9.817  0.0765  0.0236  0.4075
  108loPI   GL1 1717  15.783  11.145   9.377  0.1629 -0.2311  0.2404
  108loPI   GL2 1718  15.897  11.393   9.399 -0.0111 -0.0974 -0.0564
  108loPI   C1A 1719  15.972  11.080   8.997 -0.0827  0.1183  0.2740
  108loPI   C2A 1720  15.916  11.062   8.533  0.0279  0.3279  0.1180
  108loPI   C3A 1721  15.912  11.121   8.063  0.4002  0.0284 -0.1008
  108loPI   C4A 1722  15.900  11.163   7.598  0.3184 -0.2752  0.0748
  108loPI   C5A 1723  15.968  10.972   7.157  0.4972 -0.0680 -0.1413
  108loPI   C6A 1724  15.948  10.995   6.680 -0.0986 -0.1621  0.1225
  108loPI   C1B 1725  15.906  11.665   8.980  0.1131 -0.2157  0.0297
  108loPI   C2B 1726  15.932  11.564   8.640  0.3672 -0.0787  0.1520
  108loPI   C3B 1727  16.129  11.539   8.272  0.0441  0.0316  0.2128
  108loPI   C4B 1728  16.596  11.568   8.281  0.3982  0.1712  0.0410
  109loPI    C1 1729  16.343   0.532  10.114 -0.0300 -0.3316 -0.5281
  109loPI    C2 1730  15.964   0.661  10.111  0.1209  0.2342  0.4661
  109loPI    C3 1731  16.043   0.271  10.155 -0.3345  0.0950  0.1215
  109loPI   PO4 1732  16.421   0.724   9.894 -0.0168  0.0161  0.0410
  109loPI   GL1 1733  16.680   0.652   9.455 -0.1706  0.0279  0.5337
  109loPI   GL2 1734  16.711   0.442   9.343  0.0600 -0.1808  0.1546
  109loPI   C1A 1735  16.754   0.862   9.012 -0.2036  0.1695 -0.2214
  109loPI   C2A 1736  16.695   0.916   8.691 -0.2950 -0.0701  0.2000
  109loPI   C3A 1737  16.344   0.952   8.464 -0.0395 -0.1078  0.5002
  109loPI   C4A 1738  16.234   1.031   8.052 -0.1770 -0.2437  0.1208
  109loPI   C5A 1739  16.029   1.182   7.672 -0.2546 -0.1060 -0.2057
  109loPI   C6A 1740  16.036   1.194   7.214  0.1010 -0.0952  0.2053
  109loPI   C1B 1741  16.671   0.397   8.866  0.0401 -0.0376  0.0841
  109loPI   C2B 1742  16.634   0.472   8.450  0.0431 -0.2014  0.1000
  109loPI   C3B 1743  16.511   0.350   7.993  0.4954  0.0376 -0.0734
  109loPI   C4B 1744  16.526   0.313   7.567  0.5076  0.1280  0.2389
  110loPI    C1 1745  17.904  12.052   9.599  0.0339  0.2962 -0.3626
  110loPI    C2 1746  17.732  12.338   9.818 -0.1045  0.1008 -0.2125
  110loPI    C3 1747  17.567  11.974   9.800  0.3384 -0.1186  0.0075
  110loPI   PO4 1748  17.952  12.120   9.249 -0.0315  0.0903  0.0223
  110loPI   GL1 1749  17.962  12.433   8.940 -0.2059 -0.2120 -0.0702
  110loPI   GL2 1750  17.765  12.594   9.062 -0.0724  0.2482 -0.1051
  110loPI   C1A 1751  18.087  12.608   8.530  0.2029  0.0491 -0.1297
  110loPI   C2A 1752  18.013  12.822   8.176 -0.0417  0.4928  0.0430
  110loPI   C3A 1753  18.137  12.719   7.702  0.1845  0.2232  0.1351
  110loPI   C4A 1754  18.317  12.212   7.408 -0.1578  0.0292 -0.3326
  110loPI   C5A 1755  18.616  11.998   7.367  0.0792 -0.2482 -0.1610
  110loPI   C6A 1756  18.676  11.580   7.392 -0.1584 -0.1414 -0.0744
  110loPI   C1B 1757  17.611  12.846   8.703  0.0182 -0.2033  0.1194
  110loPI   C2B 1758  17.509  12.854   8.323  0.0556 -0.0221  0.1431
  110loPI   C3B 1759  17.445  12.903   7.992  0.1227  0.0112 -0.0274
  110loPI   C4B 1760  17.229  12.762   7.589  0.0268 -0.0618 -0.0861
  111loPI    C1 1761  14.172  13.789   9.836 -0.1868  0.0403 -0.0184
  111loPI    C2 1762  13.875  13.524   9.806  0.1059 -0.2935 -0.0285
  111loPI    C3 1763  13.992  13.654  10.166 -0.2066  0.0236 -0.0361
  111loPI   PO4 1764  14.364  13.620   9.726  0.1978 -0.0914  0.1188
  111loPI   GL1 1765  14.499  13.705   9.296 -0.0044 -0.2285 -0.2587
  111loPI   GL2 1766  14.529  13.399   9.215 -0.0033 -0.1528  0.1103
  111loPI   C1A 1767  14.595  13.822   8.883 -0.2899  0.0050 -0.0273
  111loPI   C2A 1768  14.554  13.938   8.489  0.1468 -0.0240  0.3454
  111loPI   C3A 1769  14.676  13.907   8.084  0.0225 -0.0188 -0.0709
  111loPI   C4A 1770  14.668  13.926   7.697 -0.0800  0.0684 -0.2700
  111loPI   C5A 1771  14.692  13.673   7.405 -0.3627 -0.0831 -0.1482
  111loPI   C6A 1772  14.660  13.286   7.074  0.1527  0.1500 -0.0130
  111loPI   C1B 1773  14.700  13.161   8.743  0.2717 -0.2028 -0.1858
  111loPI   C2B 1774  14.414  13.169   8.287 -0.0213 -0.0685 -0.1741
  111loPI   C3B 1775  14.478  13.328   7.920  0.2354  0.1114 -0.1304
  111loPI   C4B 1776  14.443  13.330   7.562 -0.3186 -0.0536  0.0975
  112loPI    C1 1777   0.354  17.673   9.291 -0.0931  0.1241  0.1664
  112loPI    C2 1778   0.149  17.667   9.634 -0.2294 -0.1874  0.0832
  112loPI    C3 1779   0.481  17.447   9.596 -0.2888 -0.2586 -0.0284
  112loPI   PO4 1780   0.177  17.549   9.066  0.1424 -0.3279 -0.2354
  112loPI   GL1 1781   0.186  17.457   8.615  0.0067  0.0602  0.0078
  112loPI   GL2 1782   0.079  17.223   8.461 -0.2586 -0.0184 -0.3323
  112loPI   C1A 1783   0.354  17.715   8.263  0.2343 -0.2304  0.0449
  112loPI   C2A 1784   0.465  17.727   7.864 -0.3219  0.0523 -0.0477
  112loPI   C3A 1785   0.463  17.694   7.397  0.0594 -0.1733  0.1107
  112loPI   C4A 1786   0.398  17.530   7.046 -0.0327  0.2917  0.0882
  112loPI   C5A 1787   0.626  17.257   6.769 -0.0300 -0.0651  0.1466
  112loPI   C6A 1788   0.621  16.816   6.421 -0.1236  0.0773  0.1333
  112loPI   C1B 1789  -0.254  17.140   8.116 -0.0761 -0.1927 -0.3408
  112loPI   C2B 1790  -0.367  17.176   7.782 -0.0567  0.0326 -0.2581
  112loPI   C3B 1791  -0.388  17.110   7.328 -0.3279 -0.0631 -0.3966
  112loPI   C4B 1792  -0.407  17.346   6.904 -0.0292 -0.0913 -0.0072
  113loPI    C1 1793   2.202   0.725   9.400 -0.0028 -0.1626 -0.1832
  113loPI    C2 1794   2.166   0.923   9.746 -0.0355  0.1222 -0.3467
  113loPI    C3 1795   2.281   0.540   9.745  0.3350  0.2272 -0.0445
  113loPI   PO4 1796   2.333   0.958   9.288  0.2290  0.1801 -0.2147
  113loPI   GL1 1797   2.535   1.042   8.945 -0.4286  0.2198 -0.0001
  113loPI   GL2 1798   2.859   1.099   8.988  0.2361  0.1422  0.0603
  113loPI   C1A 1799   2.480   0.936   8.541  0.1273  0.0304  0.1068
  113loPI   C2A 1800   2.462   0.817   8.087 -0.1414  0.0143  0.2269
  113loPI   C3A 1801   2.520   0.707   7.729 -0.0604 -0.2742  0.0452
  113loPI   C4A 1802   2.569   0.762   7.296  0.0272 -0.1268  0.2171
  113loPI   C5A 1803   2.683   0.957   6.880  0.0868  0.0084  0.0207
  113loPI   C6A 1804   2.521   1.318   6.622 -0.1212  0.3984  0.3444
  113loPI   C1B 1805   3.056   1.385   8.703 -0.0222 -0.1024  0.4312
  113loPI   C2B 1806   3.095   1.423   8.302  0.1529  0.4659  0.0810
  113loPI   C3B 1807   3.199   1.408   7.869 -0.2473 -0.0859  0.0730
  113loPI   C4B 1808   3.022   1.499   7.448 -0.1041  0.1687  0.1544
  114loPI    C1 1809   5.984   8.906   9.714 -0.2416 -0.1136 -0.4400
  114loPI    C2 1810   5.730   9.038   9.994  0.0090  0.0926 -0.3060
  114loPI    C3 1811   5.714   8.657   9.874 -0.0150 -0.0344  0.0875
  114loPI   PO4 1812   5.944   9.091   9.483  0.0291  0.2785  0.2400
  114loPI   GL1 1813   5.949   9.036   9.002 -0.1105  0.1821  0.1754
  114loPI   GL2 1814   5.619   9.009   9.104  0.0408 -0.1136  0.1743
  114loPI   C1A 1815   5.974   9.331   8.663 -0.1549 -0.3603 -0.0946
  114loPI   C2A 1816   5.989   9.452   8.240  0.0446  0.6293 -0.1219
  114loPI   C3A 1817   6.140   9.306   7.878  0.1953  0.1755 -0.0776
  114loPI   C4A 1818   6.030   9.220   7.473  0.0270  0.1344  0.0261
  114loPI   C5A 1819   5.774   9.098   7.089  0.2362  0.2370  0.0503
  114loPI   C6A 1820   5.503   9.025   6.724  0.2468  0.0327 -0.1961
  114loPI   C1B 1821   5.560   8.879   8.703  0.0062 -0.0551  0.3246
  114loPI   C2B 1822   5.599   9.095   8.308 -0.2087  0.0927 -0.0105
  114loPI   C3B 1823   5.756   9.008   7.922 -0.1530 -0.1227 -0.1953
  114loPI   C4B 1824   5.752   8.747   7.604 -0.3080 -0.0394 -0.1901
  115loPI    C1 1825   6.919   7.470   9.581 -0.0389 -0.1989  0.2009
  115loPI    C2 1826   6.634   7.431   9.303 -0.1494 -0.1770  0.3102
  115loPI    C3 1827   6.647   7.178   9.613 -0.0668 -0.1604  0.3205
  115loPI   PO4 1828   7.162   7.446   9.342  0.2824 -0.1126 -0.2098
  115loPI   GL1 1829   7.320   7.359   8.981  0.1556  0.0476  0.0685
  115loPI   GL2 1830   7.515   7.072   9.000 -0.1454 -0.0498  0.1193
  115loPI   C1A 1831   7.334   7.480   8.565 -0.0444 -0.1956 -0.3112
  115loPI   C2A 1832   7.266   7.521   8.116 -0.1286 -0.0931  0.1196
  115loPI   C3A 1833   7.282   7.587   7.637 -0.1014  0.1102  0.1740
  115loPI   C4A 1834   7.090   7.818   7.308  0.0706  0.0722 -0.0281
  115loPI   C5A 1835   7.215   8.169   7.001  0.0788 -0.0272 -0.1172
  115loPI   C6A 1836   7.475   8.388   6.711 -0.3537 -0.0688  0.0519
  115loPI   C1B 1837   7.501   7.022   8.556  0.0935  0.1447  0.2107
  115loPI   C2B 1838   7.261   6.865   8.170 -0.0402 -0.3081 -0.0362
  115loPI   C3B 1839   7.189   7.070   7.748  0.2781  0.2647 -0.0335
  115loPI   C4B 1840   6.947   7.145   7.297  0.1452 -0.2146 -0.1332
  116loPI    C1 1841   8.887   8.851   9.518 -0.0133  0.1274  0.1243
  116loPI    C2 1842   9.225   8.802   9.309 -0.0988 -0.0585  0.0273
  116loPI    C3 1843   9.210   8.693   9.694 -0.0152  0.0558  0.0636
  116loPI   PO4 1844   8.756   8.729   9.449  0.1390  0.3041  0.2608
  116loPI   GL1 1845   8.478   8.519   9.138 -0.4327  0.0063  0.1117
  116loPI   GL2 1846   8.432   8.672   8.986 -0.1086 -0.1339 -0.1043
  116loPI   C1A 1847   8.656   8.279   8.764 -0.0490  0.0016 -0.0030
  116loPI   C2A 1848   8.671   8.158   8.210  0.4260  0.2811 -0.1681
  116loPI   C3A 1849   8.554   8.056   7.887 -0.1522  0.3925 -0.0219
  116loPI   C4A 1850   8.277   8.050   7.581  0.0738  0.2141 -0.0850
  116loPI   C5A 1851   8.082   8.262   7.303  0.2010  0.0061  0.1179
  116loPI   C6A 1852   8.032   8.279   6.932 -0.1451 -0.1122 -0.3260
  116loPI   C1B 1853   8.573   8.770   8.556 -0.0568 -0.0742 -0.0036
  116loPI   C2B 1854   8.728   8.670   8.135  0.3848  0.1186  0.0559
  116loPI   C3B 1855   8.806   8.464   7.716 -0.2078  0.0642  0.0823
  116loPI   C4B 1856   8.528   8.499   7.291  0.0158  0.1688 -0.0034
  117loPI    C1 1857   8.921  10.173   9.448 -0.2524  0.2817 -0.0482
  117loPI    C2 1858   9.182  10.452   9.567 -0.0814  0.0660  0.0889
  117loPI    C3 1859   9.093  10.145   9.808  0.0516 -0.2238 -0.2219
  117loPI   PO4 1860   9.047  10.201   9.151  0.6167 -0.0431  0.2784
  117loPI   GL1 1861   8.901   9.960   8.774 -0.1631  0.0170  0.4751
  117loPI   GL2 1862   8.655   9.723   8.771 -0.0963  0.2876  0.0114
  117loPI   C1A 1863   9.068  10.040   8.405 -0.2637  0.1631 -0.0325
  117loPI   C2A 1864   9.122  10.140   8.061 -0.1160 -0.1103  0.1457
  117loPI   C3A 1865   9.197  10.150   7.667  0.2781 -0.2668  0.1600
  117loPI   C4A 1866   9.103  10.160   7.221 -0.0479 -0.0675 -0.0212
  117loPI   C5A 1867   8.843   9.905   6.795 -0.2578  0.1659 -0.1716
  117loPI   C6A 1868   8.911   9.397   6.712  0.0330 -0.0388  0.1197
  117loPI   C1B 1869   8.723   9.665   8.342  0.2531  0.1169 -0.1855
  117loPI   C2B 1870   8.711   9.803   7.915 -0.1126  0.1091 -0.0575
  117loPI   C3B 1871   8.872   9.823   7.504  0.1553 -0.1903  0.0514
  117loPI   C4B 1872   9.076   9.674   7.174 -0.0548 -0.0640  0.0586
  118loPI    C1 1873  12.678   2.508   9.953 -0.1802 -0.2183 -0.1879
  118loPI    C2 1874  12.598   2.218  10.216 -0.3573  0.0156  0.0207
  118loPI    C3 1875  12.609   2.599  10.336 -0.1555  0.1000 -0.2564
  118loPI   PO4 1876  12.888   2.397   9.787  0.1118 -0.3735 -0.2501
  118loPI   GL1 1877  12.796   2.377   9.393  0.0546 -0.1499 -0.2224
  118loPI   GL2 1878  12.735   2.032   9.114 -0.1216  0.0835  0.0410
  118loPI   C1A 1879  12.644   2.671   9.020 -0.1894 -0.0649 -0.1096
  118loPI   C2A 1880  12.613   2.773   8.544  0.1381 -0.1150 -0.4403
  118loPI   C3A 1881  12.499   2.787   8.079 -0.1870  0.0966  0.2499
  118loPI   C4A 1882  12.680   2.783   7.715  0.0882 -0.0490  0.3074
  118loPI   C5A 1883  12.924   2.850   7.384  0.0174 -0.1447  0.0526
  118loPI   C6A 1884  13.097   2.617   7.044  0.0127  0.0474 -0.0694
  118loPI   C1B 1885  12.714   2.256   8.630 -0.0244  0.2052  0.1845
  118loPI   C2B 1886  12.582   2.289   8.325 -0.0856  0.4850  0.2440
  118loPI   C3B 1887  12.560   2.273   7.845 -0.1675 -0.3113 -0.1597
  118loPI   C4B 1888  12.869   2.198   7.569 -0.0456  0.2112  0.0394
  119loPI    C1 1889   4.277   8.682   9.465 -0.0557  0.0580 -0.1393
  119loPI    C2 1890   3.926   8.870   9.430 -0.2305 -0.2684 -0.1856
  119loPI    C3 1891   3.954   8.482   9.339  0.1323 -0.2587 -0.1297
  119loPI   PO4 1892   4.504   8.874   9.345 -0.0371  0.1049  0.1971
  119loPI   GL1 1893   4.742   8.809   8.943  0.0239  0.0097 -0.0286
  119loPI   GL2 1894   4.648   9.128   8.934  0.1301  0.0440  0.2715
  119loPI   C1A 1895   4.864   8.667   8.530  0.0548 -0.1245  0.1231
  119loPI   C2A 1896   4.855   8.820   8.072  0.1893  0.2225  0.0872
  119loPI   C3A 1897   4.763   8.822   7.687 -0.0940 -0.1307 -0.3071
  119loPI   C4A 1898   4.974   8.918   7.365  0.2021 -0.2345 -0.1168
  119loPI   C5A 1899   5.069   8.864   6.917  0.0228  0.0522 -0.0125
  119loPI   C6A 1900   5.204   8.665   6.431  0.0536  0.0439 -0.0611
  119loPI   C1B 1901   4.657   9.180   8.440 -0.2124  0.0462 -0.2821
  119loPI   C2B 1902   4.828   9.354   8.087 -0.1393  0.0227 -0.0064
  119loPI   C3B 1903   4.824   9.332   7.609 -0.0506 -0.2596 -0.2001
  119loPI   C4B 1904   4.806   9.479   7.166  0.1285  0.2638 -0.1888
  120loPI    C1 1905   2.624  13.541   9.608 -0.2207  0.1683  0.0607
  120loPI    C2 1906   2.842  13.854   9.486 -0.1420  0.0707 -0.0504
  120loPI    C3 1907   2.961  13.638   9.801  0.0260 -0.0971 -0.2256
  120loPI   PO4 1908   2.591  13.495   9.282  0.3221 -0.0672 -0.0316
  120loPI   GL1 1909   2.409  13.558   8.936  0.0368 -0.1463  0.0996
  120loPI   GL2 1910   2.342  13.347   8.683  0.2745  0.0359  0.2136
  120loPI   C1A 1911   2.631  13.739   8.494 -0.1701 -0.0836 -0.1442
  120loPI   C2A 1912   2.520  13.877   8.073  0.1427 -0.1355 -0.1066
  120loPI   C3A 1913   2.343  13.975   7.643 -0.1748  0.0779 -0.1392
  120loPI   C4A 1914   2.085  13.758   7.327 -0.0760  0.0033 -0.1040
  120loPI   C5A 1915   1.869  13.656   6.997 -0.1954  0.0099 -0.2424
  120loPI   C6A 1916   1.838  13.504   6.612 -0.1489 -0.4181 -0.2463
  120loPI   C1B 1917   2.696  13.197   8.501  0.5385 -0.0441 -0.0742
  120loPI   C2B 1918   3.059  13.134   8.180  0.0108 -0.0876  0.0606
  120loPI   C3B 1919   3.116  13.357   7.797  0.0246  0.0167 -0.2516
  120loPI   C4B 1920   3.293  13.731   7.626  0.1352 -0.2348  0.0081
  121loPI    C1 1921  12.854  12.553   9.212 -0.3104  0.0481 -0.0904
  121loPI    C2 1922  12.661  12.325   9.478 -0.1626  0.0262 -0.0004
  121loPI    C3 1923  13.014  12.206   9.332 -0.1023  0.1795  0.0190
  121loPI   PO4 1924  12.716  12.815   9.246  0.2813 -0.2337  0.0245
  121loPI   GL1 1925  12.664  13.197   8.820  0.2022 -0.0552  0.1714
  121loPI   GL2 1926  12.418  13.070   8.903  0.1823  0.2838  0.1449
  121loPI   C1A 1927  12.596  13.205   8.352 -0.0723 -0.3211 -0.0316
  121loPI   C2A 1928  12.768  13.274   7.915 -0.2041 -0.0017 -0.1436
  121loPI   C3A 1929  12.901  13.353   7.524 -0.1265 -0.1264  0.0032
  121loPI   C4A 1930  12.817  13.569   7.171 -0.2357  0.0089  0.0332
  121loPI   C5A 1931  13.011  13.906   6.865 -0.3210  0.1445  0.2004
  121loPI   C6A 1932  13.181  14.148   6.553  0.2582  0.3657 -0.1035
  121loPI   C1B 1933  12.181  13.066   8.510  0.0303  0.2727  0.2773
  121loPI   C2B 1934  12.084  13.021   8.082  0.4782 -0.1122  0.0988
  121loPI   C3B 1935  11.704  13.145   7.723  0.1743 -0.0519  0.0194
  121loPI   C4B 1936  11.734  13.368   7.299  0.1941 -0.1387 -0.0345
  122loPI    C1 1937   6.965   2.447   9.587  0.2443  0.0412  0.0692
  122loPI    C2 1938   7.138   2.120   9.738  0.4555  0.1135 -0.0128
  122loPI    C3 1939   7.363   2.424   9.608  0.2777  0.0840 -0.4046
  122loPI   PO4 1940   6.851   2.344   9.408  0.0966 -0.2951 -0.1851
  122loPI   GL1 1941   6.895   2.104   8.925 -0.0449 -0.2858  0.0738
  122loPI   GL2 1942   6.594   1.939   9.076  0.0950  0.2369 -0.0014
  122loPI   C1A 1943   6.768   2.055   8.440 -0.0841 -0.0964  0.0331
  122loPI   C2A 1944   6.482   2.265   8.150 -0.0301 -0.3847 -0.2217
  122loPI   C3A 1945   6.251   2.453   7.789  0.3085  0.0586  0.3677
  122loPI   C4A 1946   6.300   2.225   7.297  0.2989  0.0531  0.1820
  122loPI   C5A 1947   6.632   2.100   7.191  0.2009 -0.0077 -0.2810
  122loPI   C6A 1948   7.015   2.252   7.370 -0.2760  0.2329 -0.2681
  122loPI   C1B 1949   6.419   1.891   8.712 -0.1810 -0.3182  0.2688
  122loPI   C2B 1950   6.412   1.626   8.379 -0.1163  0.1896  0.1159
  122loPI   C3B 1951   6.626   1.756   8.037  0.0192  0.1204  0.3813
  122loPI   C4B 1952   6.661   1.599   7.625 -0.0663  0.4983  0.1639
  123loPI    C1 1953   6.474  18.741   9.223 -0.3669  0.2805  0.1047
  123loPI    C2 1954   6.818  18.884   9.369 -0.1475 -0.1420  0.0197
  123loPI    C3 1955   6.469  19.003   9.525  0.0398  0.1832  0.2021
  123loPI   PO4 1956   6.604  18.588   8.999 -0.0839  0.0459 -0.2789
  123loPI   GL1 1957   6.584  18.558   8.538  0.2837  0.1411 -0.0231
  123loPI   GL2 1958   6.891  18.529   8.495 -0.2310 -0.1616  0.1137
  123loPI   C1A 1959   6.297  18.548   8.266 -0.1338  0.2122 -0.0999
  123loPI   C2A 1960   6.217  18.527   7.786 -0.2472 -0.5847  0.0620
  123loPI   C3A 1961   6.092  18.722   7.291  0.0324 -0.2225  0.2303
  123loPI   C4A 1962   6.228  19.039   7.026  0.2844  0.0801  0.0667
  123loPI   C5A 1963   6.690  19.175   6.952 -0.0304 -0.1590 -0.1226
  123loPI   C6A 1964   7.112  19.323   6.833  0.0202  0.0554 -0.1113
  123loPI   C1B 1965   6.781  18.719   8.076  0.0148  0.2235  0.1617
  123loPI   C2B 1966   6.641  18.731   7.667 -0.0903  0.3287  0.1991
  123loPI   C3B 1967   6.580  18.759   7.205 -0.2279  0.0400  0.1607
  123loPI   C4B 1968   6.663  18.693   6.769 -0.0416  0.1069  0.0886
  124loPI    C1 1969   7.205   0.954   9.184  0.0208 -0.1740 -0.1057
  124loPI    C2 1970   7.016   0.602   9.191 -0.0598 -0.1297 -0.0351
  124loPI    C3 1971   7.218   0.726   9.512  0.1359 -0.2013 -0.1289
  124loPI   PO4 1972   7.166   1.043   8.936  0.0725 -0.0454 -0.1994
  124loPI   GL1 1973   7.140   0.715   8.587 -0.1829 -0.0662 -0.0059
  124loPI   GL2 1974   6.854   0.755   8.726  0.1243  0.1826  0.0090
  124loPI   C1A 1975   7.305   0.915   8.201  0.3379  0.0714  0.1576
  124loPI   C2A 1976   7.488   1.278   7.953 -0.2361  0.2205  0.1614
  124loPI   C3A 1977   7.349   1.187   7.565 -0.0102  0.0051  0.0727
  124loPI   C4A 1978   7.206   1.301   7.115 -0.2154 -0.2433 -0.0033
  124loPI   C5A 1979   7.349   1.686   6.762 -0.0391  0.3262 -0.2763
  124loPI   C6A 1980   7.496   2.100   6.396 -0.2961 -0.1804 -0.0085
  124loPI   C1B 1981   6.803   0.783   8.228 -0.0250 -0.1206  0.0747
  124loPI   C2B 1982   6.636   0.601   7.848  0.2669 -0.0919 -0.0920
  124loPI   C3B 1983   6.802   0.629   7.482  0.2906  0.0100 -0.0526
  124loPI   C4B 1984   7.057   0.749   7.155 -0.1568  0.0478  0.2751
  125loPI    C1 1985   8.456   0.535   9.493 -0.1187  0.1016  0.3682
  125loPI    C2 1986   8.584   0.912   9.533  0.1664  0.1067 -0.4287
  125loPI    C3 1987   8.251   0.793   9.720  0.1297  0.7182 -0.0811
  125loPI   PO4 1988   8.419   0.514   9.180  0.2102  0.2671 -0.3149
  125loPI   GL1 1989   8.598   0.467   8.783  0.1474  0.0318 -0.0317
  125loPI   GL2 1990   8.713   0.699   8.673 -0.0724  0.0588 -0.0684
  125loPI   C1A 1991   8.525   0.380   8.293 -0.1401 -0.1687 -0.2084
  125loPI   C2A 1992   8.542   0.347   7.912  0.0806  0.3018  0.1486
  125loPI   C3A 1993   8.463   0.462   7.541  0.0384 -0.0281  0.1585
  125loPI   C4A 1994   8.435   0.719   7.095  0.0700  0.0342 -0.4044
  125loPI   C5A 1995   8.554   0.947   6.757  0.1464  0.2410  0.0510
  125loPI   C6A 1996   8.446   1.191   6.677  0.3794 -0.1754  0.1126
  125loPI   C1B 1997   8.586   0.854   8.328 -0.1247 -0.0004 -0.0698
  125loPI   C2B 1998   8.664   0.823   7.926  0.2692 -0.2841  0.4168
  125loPI   C3B 1999   8.728   0.909   7.498  0.0078  0.1447 -0.0101
  125loPI   C4B 2000   9.026   0.999   7.122 -0.1194 -0.2624 -0.1312
  126loPI    C1 2001   1.953   8.832   9.200  0.0417 -0.1664 -0.0567
  126loPI    C2 2002   2.064   8.645   9.536 -0.1246 -0.1049  0.0342
  126loPI    C3 2003   1.727   8.860   9.530 -0.1820 -0.1982 -0.2049
  126loPI   PO4 2004   2.057   8.622   9.024  0.2442  0.3572 -0.3492
  126loPI   GL1 2005   2.307   8.504   8.666 -0.1222  0.2699  0.3335
  126loPI   GL2 2006   2.551   8.455   8.453  0.3371  0.1706  0.2393
  126loPI   C1A 2007   2.255   8.686   8.122 -0.0567  0.1523  0.0603
  126loPI   C2A 2008   2.261   8.590   7.725  0.1272 -0.0640 -0.1440
  126loPI   C3A 2009   2.350   8.714   7.419  0.4069 -0.1942  0.2645
  126loPI   C4A 2010   2.254   8.829   7.071 -0.3146 -0.0934 -0.0757
  126loPI   C5A 2011   2.190   9.267   6.889 -0.0006 -0.0280  0.4090
  126loPI   C6A 2012   2.457   9.652   6.940 -0.2851  0.0655 -0.1212
  126loPI   C1B 2013   2.692   8.428   8.081 -0.1952  0.0820 -0.1065
  126loPI   C2B 2014   2.702   8.248   7.613 -0.1178 -0.3012  0.1092
  126loPI   C3B 2015   2.596   8.207   7.234 -0.0004  0.5509  0.3976
  126loPI   C4B 2016   2.363   8.065   6.891 -0.2897  0.1045 -0.1540
  127loPI    C1 2017  18.061  12.570   9.524 -0.2748  0.0444  0.1728
  127loPI    C2 2018  18.203  12.470   9.885  0.0216  0.1322  0.0837
  127loPI    C3 2019  18.003  12.813   9.836 -0.0396  0.1087  0.1688
  127loPI   PO4 2020  18.285  12.648   9.352  0.0203 -0.0932 -0.0020
  127loPI   GL1 2021  18.342  12.828   9.102  0.1625 -0.0819 -0.2159
  127loPI   GL2 2022  18.400  13.193   9.049 -0.2539 -0.0570  0.1443
  127loPI   C1A 2023  18.067  13.073   8.756  0.1570  0.0365 -0.0393
  127loPI   C2A 2024  17.867  13.180   8.424  0.1101 -0.3003 -0.1701
  127loPI   C3A 2025  17.694  13.264   8.109  0.0348  0.3830 -0.2112
  127loPI   C4A 2026  17.421  13.386   7.754  0.4149 -0.0722 -0.2535
  127loPI   C5A 2027  17.328  13.172   7.257 -0.1276 -0.2999  0.3160
  127loPI   C6A 2028  17.299  13.060   6.820  0.0908 -0.1564  0.1615
  127loPI   C1B 2029  18.623  13.428   8.728  0.1061 -0.2951  0.1588
  127loPI   C2B 2030  18.603  13.593   8.354 -0.0879 -0.0340  0.0132
  127loPI   C3B 2031  18.545  13.684   7.931  0.1159  0.0338 -0.1123
  127loPI   C4B 2032  18.297  13.759   7.599 -0.3335  0.2721 -0.1390
  128loPI    C1 2033   5.173   9.745   9.501  0.0627  0.0639  0.1834
  128loPI    C2 2034   4.773   9.752   9.509  0.0496 -0.2151 -0.0425
  128loPI    C3 2035   4.980   9.698   9.848 -0.0958  0.1002  0.1010
  128loPI   PO4 2036   5.180   9.678   9.248 -0.0382  0.0263  0.3311
  128loPI   GL1 2037   5.233   9.897   8.855  0.2393  0.0056  0.1051
  128loPI   GL2 2038   4.952  10.050   8.718  0.3323  0.0859  0.2182
  128loPI   C1A 2039   4.972   9.560   8.574 -0.3841  0.0421 -0.0449
  128loPI   C2A 2040   4.560   9.652   8.398  0.3211 -0.2842  0.1867
  128loPI   C3A 2041   4.409   9.717   8.014  0.2810 -0.0301 -0.0100
  128loPI   C4A 2042   4.464   9.690   7.537 -0.0391  0.0528 -0.2768
  128loPI   C5A 2043   4.387   9.780   7.168  0.2166  0.2641 -0.3128
  128loPI   C6A 2044   4.483   9.599   6.720 -0.0108  0.0598  0.2411
  128loPI   C1B 2045   4.929  10.004   8.292  0.0952  0.3543 -0.0203
  128loPI   C2B 2046   4.821   9.919   7.780 -0.1496  0.0122  0.2463
  128loPI   C3B 2047   4.825  10.030   7.254  0.0277  0.3913 -0.0193
  128loPI   C4B 2048   4.834   9.919   6.838  0.0007 -0.0127  0.0155
  129loPI    C1 2049  11.471   8.745   9.320 -0.1007  0.0314 -0.0144
  129loPI    C2 2050  11.789   8.986   9.345 -0.1085  0.0200  0.2224
  129loPI    C3 2051  11.726   8.710   9.627 -0.1055 -0.2535 -0.0399
  129loPI   PO4 2052  11.392   8.738   9.143 -0.0846 -0.0584  0.0345
  129loPI   GL1 2053  11.246   8.810   8.762  0.0135 -0.2268 -0.2947
  129loPI   GL2 2054  11.199   9.044   8.627 -0.3534 -0.2496  0.1285
  129loPI   C1A 2055  11.344   8.609   8.375 -0.0773 -0.2001 -0.0006
  129loPI   C2A 2056  11.195   8.625   7.991 -0.0092  0.4164  0.0024
  129loPI   C3A 2057  10.925   8.673   7.660 -0.1618 -0.0010  0.3064
  129loPI   C4A 2058  10.981   8.704   7.284 -0.1139 -0.0036 -0.1279
  129loPI   C5A 2059  10.725   8.747   6.815  0.0657  0.3054 -0.3226
  129loPI   C6A 2060  10.859   8.918   6.520  0.0359 -0.0820  0.1084
  129loPI   C1B 2061  11.294   9.148   8.175 -0.3404  0.0525 -0.3357
  129loPI   C2B 2062  11.372   9.133   7.700  0.0569 -0.2631 -0.0759
  129loPI   C3B 2063  11.316   9.076   7.245 -0.1517  0.0621  0.0176
  129loPI   C4B 2064  11.295   8.852   6.855  0.1214  0.1996  0.2081
  130loPI    C1 2065  19.217  12.807   9.357 -0.0480  0.0742  0.0627
  130loPI    C2 2066  19.235  12.584   9.688  0.3836 -0.1472 -0.1013
  130loPI    C3 2067  19.531  12.839   9.602  0.0268  0.2949 -0.0584
  130loPI   PO4 2068  19.217  12.632   9.164 -0.2589 -0.1130 -0.1319
  130loPI   GL1 2069  19.347  12.540   8.800 -0.1760  0.0111  0.0766
  130loPI   GL2 2070  19.118  12.672   8.581 -0.1296 -0.2214 -0.0177
  130loPI   C1A 2071  19.489  12.474   8.357  0.3151  0.0150  0.0405
  130loPI   C2A 2072  19.513  12.598   7.945 -0.4331  0.2618  0.0156
  130loPI   C3A 2073  19.414  12.702   7.504  0.0804  0.1105  0.0740
  130loPI   C4A 2074  19.477  12.575   7.085 -0.0601 -0.2006 -0.1582
  130loPI   C5A 2075  19.426  12.461   6.704  0.2739 -0.0317 -0.2013
  130loPI   C6A 2076  19.342  12.441   6.261  0.0570  0.0228  0.0474
  130loPI   C1B 2077  18.894  12.662   8.248  0.0416 -0.1462 -0.1255
  130loPI   C2B 2078  19.012  12.726   7.763 -0.6483 -0.3252  0.1126
  130loPI   C3B 2079  19.008  12.957   7.397  0.0895  0.1348  0.0092
  130loPI   C4B 2080  19.145  13.031   7.039 -0.0252 -0.1550 -0.4477
  131loPI    C1 2081   0.104  13.747   9.756  0.3577 -0.2774 -0.3890
  131loPI    C2 2082   0.446  13.903   9.893  0.2646 -0.1978 -0.2435
  131loPI    C3 2083   0.315  13.553  10.035  0.1182 -0.0680 -0.0541
  131loPI   PO4 2084   0.103  13.839   9.466  0.1562  0.0023  0.3350
  131loPI   GL1 2085  -0.006  14.148   9.202  0.3164  0.1345 -0.1847
  131loPI   GL2 2086   0.214  14.149   8.825 -0.0324  0.3494 -0.0298
  131loPI   C1A 2087  -0.278  14.216   8.805 -0.0145 -0.2343 -0.0359
  131loPI   C2A 2088  -0.637  14.368   8.485 -0.2126  0.3279 -0.0535
  131loPI   C3A 2089  -0.806  14.570   8.122  0.0656 -0.0752  0.1912
  131loPI   C4A 2090  -0.984  14.608   7.672  0.2148  0.2633 -0.2063
  131loPI   C5A 2091  -1.289  14.738   7.385  0.1377  0.0684 -0.0788
  131loPI   C6A 2092  -1.282  14.716   6.994 -0.1832  0.3645 -0.0708
  131loPI   C1B 2093   0.114  14.133   8.411  0.0264  0.1830 -0.0778
  131loPI   C2B 2094  -0.080  13.866   8.059 -0.4165  0.2224  0.2744
  131loPI   C3B 2095  -0.379  13.685   7.806 -0.1536 -0.1166 -0.1208
  131loPI   C4B 2096  -0.690  13.835   7.565 -0.2118 -0.0732  0.1444
  132loPI    C1 2097   1.805   3.415   9.281  0.2093  0.1676 -0.2858
  132loPI    C2 2098   1.969   3.180   9.560  0.1398  0.2676 -0.1594
  132loPI    C3 2099   1.992   3.578   9.595 -0.3285  0.2879 -0.0158
  132loPI   PO4 2100   1.707   3.237   9.121  0.1341 -0.1307  0.0397
  132loPI   GL1 2101   1.667   3.103   8.719  0.0053 -0.0765  0.3479
  132loPI   GL2 2102   1.466   3.494   8.790  0.0194 -0.0137 -0.1829
  132loPI   C1A 2103   1.475   3.117   8.352 -0.1592 -0.1808  0.3523
  132loPI   C2A 2104   1.574   2.856   7.904 -0.1085  0.0900  0.1229
  132loPI   C3A 2105   1.357   2.861   7.457  0.0921  0.3161 -0.1972
  132loPI   C4A 2106   1.263   2.634   6.954 -0.1991 -0.1643 -0.2218
  132loPI   C5A 2107   0.830   2.667   6.806  0.3009  0.1599 -0.2490
  132loPI   C6A 2108   0.404   2.668   6.773  0.2616 -0.3112 -0.3868
  132loPI   C1B 2109   1.371   3.605   8.367  0.3002  0.0048 -0.1825
  132loPI   C2B 2110   1.508   3.690   7.812  0.0842 -0.2837 -0.1048
  132loPI   C3B 2111   1.576   3.591   7.408  0.1319  0.2259  0.2816
  132loPI   C4B 2112   1.486   3.332   7.038 -0.1588  0.3940 -0.0314
  133loPI    C1 2113  11.704  15.121   9.495 -0.0447  0.2446  0.0624
  133loPI    C2 2114  11.637  15.153   9.888 -0.3491  0.1687  0.0192
  133loPI    C3 2115  11.544  14.815   9.696 -0.1134  0.1710 -0.1026
  133loPI   PO4 2116  11.967  15.186   9.330  0.2504 -0.1180 -0.2423
  133loPI   GL1 2117  11.890  15.410   8.922  0.0483  0.2914 -0.3572
  133loPI   GL2 2118  12.127  15.236   8.865 -0.1077  0.0788  0.2522
  133loPI   C1A 2119  11.722  15.342   8.559 -0.1694 -0.3108  0.0872
  133loPI   C2A 2120  11.636  15.205   8.139 -0.0438  0.2710  0.0067
  133loPI   C3A 2121  11.588  15.314   7.722  0.0379  0.1265  0.1342
  133loPI   C4A 2122  11.450  15.273   7.245 -0.0100 -0.0741  0.4547
  133loPI   C5A 2123  11.437  15.218   6.868  0.0336 -0.3290  0.1729
  133loPI   C6A 2124  11.253  14.796   6.886  0.1003 -0.0389  0.2507
  133loPI   C1B 2125  12.436  15.348   8.582 -0.3021 -0.0816  0.0928
  133loPI   C2B 2126  12.562  15.477   8.133 -0.0595 -0.2083  0.0574
  133loPI   C3B 2127  12.461  15.597   7.853  0.2536 -0.0709  0.0131
  133loPI   C4B 2128  12.413  15.478   7.454 -0.2885 -0.0930  0.1959
  134loPI    C1 2129  15.774   9.295   9.624 -0.1985 -0.0061  0.0319
  134loPI    C2 2130  15.832   9.641   9.816 -0.0264 -0.0502  0.0620
  134loPI    C3 2131  16.018   9.310   9.941 -0.0908 -0.1273 -0.0439
  134loPI   PO4 2132  15.764   9.397   9.377 -0.0231  0.0282 -0.3462
  134loPI   GL1 2133  15.884   9.705   9.163 -0.1021 -0.0168  0.0236
  134loPI   GL2 2134  16.281   9.751   9.136 -0.0583 -0.3998  0.1470
  134loPI   C1A 2135  15.789   9.840   8.759  0.2258  0.2319 -0.1573
  134loPI   C2A 2136  15.855   9.764   8.289 -0.3500 -0.0593  0.0459
  134loPI   C3A 2137  15.798   9.769   7.864  0.0148 -0.2475 -0.3054
  134loPI   C4A 2138  15.756   9.874   7.428 -0.2090  0.0986  0.0152
  134loPI   C5A 2139  15.674  10.327   7.248 -0.2760  0.0711 -0.0971
  134loPI   C6A 2140  15.692  10.730   7.448  0.1521  0.0899  0.2504
  134loPI   C1B 2141  16.253   9.781   8.706 -0.0989  0.0960 -0.0887
  134loPI   C2B 2142  16.373   9.801   8.172 -0.2485  0.2303  0.2899
  134loPI   C3B 2143  16.284   9.790   7.730  0.0758  0.0534  0.0609
  134loPI   C4B 2144  16.198   9.979   7.320 -0.1291  0.0597  0.1375
  135loPI    C1 2145  11.803  18.168   9.349  0.0285 -0.2027 -0.0405
  135loPI    C2 2146  11.707  17.781   9.316  0.3084 -0.2879  0.1076
  135loPI    C3 2147  11.578  17.993   9.630  0.1132 -0.2460  0.0008
  135loPI   PO4 2148  11.768  18.282   9.054  0.0119 -0.1430  0.1111
  135loPI   GL1 2149  12.071  18.277   8.644 -0.0178 -0.2148 -0.1357
  135loPI   GL2 2150  12.441  18.265   8.788 -0.2454 -0.1535 -0.2722
  135loPI   C1A 2151  12.301  18.313   8.280 -0.0712 -0.1323  0.0420
  135loPI   C2A 2152  12.455  18.176   7.894 -0.2269  0.0860 -0.0903
  135loPI   C3A 2153  12.521  18.218   7.462  0.0898  0.1177  0.1918
  135loPI   C4A 2154  12.751  18.333   7.176 -0.1652 -0.1606  0.2713
  135loPI   C5A 2155  12.739  18.455   6.752 -0.0415  0.1597  0.2922
  135loPI   C6A 2156  12.649  18.386   6.373  0.1341  0.0061  0.0937
  135loPI   C1B 2157  12.529  17.941   8.532  0.1244 -0.1677 -0.1941
  135loPI   C2B 2158  12.773  17.969   8.247  0.0482 -0.0174 -0.3552
  135loPI   C3B 2159  12.758  17.770   7.811 -0.2395 -0.3138 -0.1118
  135loPI   C4B 2160  13.049  17.729   7.455  0.1165  0.0571 -0.1302
  136loPI    C1 2161   6.075  19.446   8.946  0.0842  0.0534  0.0592
  136loPI    C2 2162   6.155  19.332   9.321 -0.0222  0.0340  0.0766
  136loPI    C3 2163   5.833  19.557   9.245  0.1673  0.2970  0.0378
  136loPI   PO4 2164   6.270  19.473   8.802  0.2642  0.2421  0.0660
  136loPI   GL1 2165   6.255  19.593   8.405 -0.2098 -0.1094 -0.0218
  136loPI   GL2 2166   6.355  19.876   8.406  0.0884  0.1384  0.1780
  136loPI   C1A 2167   6.481  19.534   8.017  0.0668  0.0907 -0.0223
  136loPI   C2A 2168   6.560  19.371   7.638 -0.1026  0.1291  0.2116
  136loPI   C3A 2169   6.433  19.442   7.276  0.0967  0.0160  0.0566
  136loPI   C4A 2170   5.993  19.469   7.070  0.1703 -0.2998  0.1136
  136loPI   C5A 2171   5.892  19.484   6.690 -0.1013 -0.0692  0.1697
  136loPI   C6A 2172   5.977  19.370   6.301  0.0997 -0.2227  0.0514
  136loPI   C1B 2173   6.512  20.074   8.061  0.2865 -0.2073 -0.0285
  136loPI   C2B 2174   6.523  19.928   7.686 -0.4007 -0.0904 -0.0462
  136loPI   C3B 2175   6.607  19.976   7.273  0.2029  0.0668  0.0489
  136loPI   C4B 2176   6.808  20.283   7.072  0.0754  0.0088  0.2098
  137loPI    C1 2177   0.204  16.657   9.354  0.0702 -0.0489 -0.0603
  137loPI    C2 2178   0.435  16.983   9.385  0.2597 -0.1850 -0.0198
  137loPI    C3 2179   0.242  16.843   9.707  0.0456 -0.0190 -0.0733
  137loPI   PO4 2180   0.014  16.693   9.106  0.0837  0.0843  0.0548
  137loPI   GL1 2181   0.216  16.654   8.581  0.0950 -0.0040  0.0431
  137loPI   GL2 2182   0.344  16.337   8.431 -0.3922  0.0947  0.2271
  137loPI   C1A 2183  -0.037  16.674   8.256 -0.1174  0.3812  0.0463
  137loPI   C2A 2184  -0.084  16.632   7.830 -0.0867 -0.2140  0.0848
  137loPI   C3A 2185  -0.178  16.618   7.494  0.0954  0.1027 -0.0727
  137loPI   C4A 2186  -0.213  16.697   6.965 -0.0097 -0.1642 -0.1484
  137loPI   C5A 2187  -0.440  16.873   6.595 -0.0967  0.0566 -0.0064
  137loPI   C6A 2188  -0.782  17.119   6.683 -0.0987  0.0363  0.2000
  137loPI   C1B 2189   0.231  16.245   8.051 -0.0828  0.1784  0.1334
  137loPI   C2B 2190  -0.081  16.138   7.783 -0.1612  0.0320  0.2994
  137loPI   C3B 2191  -0.263  15.903   7.504 -0.0452  0.2787  0.3407
  137loPI   C4B 2192  -0.415  15.729   7.165 -0.0929 -0.2102  0.0219
  138loPI    C1 2193   7.624  12.158   9.098  0.1902 -0.0784  0.0152
  138loPI    C2 2194   7.404  12.467   8.972  0.0096 -0.1165  0.2310
  138loPI    C3 2195   7.428  12.135   8.750  0.0855 -0.0037  0.0689
  138loPI   PO4 2196   7.896  12.301   9.079 -0.0901  0.0806 -0.1173
  138loPI   GL1 2197   7.988  12.260   8.731 -0.2199  0.0075 -0.1248
  138loPI   GL2 2198   7.729  12.454   8.596 -0.1355 -0.1001  0.1346
  138loPI   C1A 2199   8.094  12.461   8.271  0.2774  0.2145 -0.0127
  138loPI   C2A 2200   8.003  12.565   7.828  0.1458 -0.1153 -0.2517
  138loPI   C3A 2201   8.219  12.615   7.317 -0.1815  0.1013  0.0167
  138loPI   C4A 2202   8.082  12.929   7.065 -0.1562  0.1884 -0.2748
  138loPI   C5A 2203   8.079  13.215   6.853 -0.0168  0.4441  0.1775
  138loPI   C6A 2204   8.164  13.625   6.895 -0.2709  0.1633 -0.2012
  138loPI   C1B 2205   7.667  12.623   8.147 -0.0107 -0.2865  0.0656
  138loPI   C2B 2206   7.404  12.864   7.743 -0.1843  0.0915 -0.1082
  138loPI   C3B 2207   7.265  12.817   7.276 -0.2992  0.0775 -0.1113
  138loPI   C4B 2208   7.443  12.612   6.922 -0.0442  0.2529 -0.1369
  139loPI    C1 2209   0.848  14.341   9.707 -0.1586 -0.0011 -0.0034
  139loPI    C2 2210   0.663  14.394  10.058  0.1382 -0.4928  0.2380
  139loPI    C3 2211   1.057  14.454  10.029  0.0219  0.1826 -0.1821
  139loPI   PO4 2212   0.780  14.445   9.516 -0.0234  0.2859  0.0986
  139loPI   GL1 2213   0.913  14.360   9.114  0.2834 -0.1683 -0.0183
  139loPI   GL2 2214   0.737  14.307   8.931 -0.0728  0.1374 -0.4878
  139loPI   C1A 2215   1.116  14.584   8.798 -0.2018 -0.0867  0.3902
  139loPI   C2A 2216   1.124  14.868   8.426  0.2688  0.0128 -0.0442
  139loPI   C3A 2217   1.145  14.960   7.983 -0.3361 -0.1395 -0.0751
  139loPI   C4A 2218   0.977  14.775   7.534 -0.1214 -0.2482  0.0137
  139loPI   C5A 2219   0.951  14.691   7.109  0.1912  0.1893  0.0999
  139loPI   C6A 2220   1.182  14.875   6.807  0.0501 -0.2204 -0.0657
  139loPI   C1B 2221   0.534  14.444   8.571 -0.1166  0.1320 -0.0527
  139loPI   C2B 2222   0.509  14.202   8.149 -0.0856 -0.1422  0.0637
  139loPI   C3B 2223   0.159  14.268   7.878  0.3630  0.1417 -0.0325
  139loPI   C4B 2224  -0.125  14.151   7.622  0.2076 -0.3902  0.2999
  140loPI    C1 2225  19.867  14.615   9.735 -0.2466  0.0959 -0.4109
  140loPI    C2 2226  19.544  14.784   9.898  0.0693  0.4330 -0.1145
  140loPI    C3 2227  19.906  14.937   9.968  0.3249 -0.0981 -0.2204
  140loPI   PO4 2228  19.785  14.507   9.526  0.7601  0.1169  0.0683
  140loPI   GL1 2229  19.611  14.561   9.109  0.0938 -0.1643  0.1290
  140loPI   GL2 2230  19.498  14.632   8.932  0.0438 -0.0038 -0.0890
  140loPI   C1A 2231  19.947  14.570   8.714  0.1037 -0.2262  0.0097
  140loPI   C2A 2232  19.983  14.639   8.255 -0.2308  0.1694  0.2254
  140loPI   C3A 2233  19.625  14.626   7.991 -0.0973  0.2342  0.4156
  140loPI   C4A 2234  19.411  14.850   7.662 -0.5861 -0.0744  0.0807
  140loPI   C5A 2235  19.237  15.003   7.291 -0.1388  0.1797  0.1030
  140loPI   C6A 2236  19.123  14.868   6.939 -0.0473 -0.2055 -0.1978
  140loPI   C1B 2237  19.539  14.804   8.499 -0.0398 -0.2934 -0.0788
  140loPI   C2B 2238  19.604  15.128   8.211 -0.2339 -0.0289 -0.0610
  140loPI   C3B 2239  19.386  15.341   7.848 -0.1711 -0.0180  0.4020
  140loPI   C4B 2240  19.215  15.505   7.492 -0.1322  0.3783 -0.2693
  141loPI    C1 2241   7.635   2.887   9.719 -0.1121 -0.0498 -0.1372
  141loPI    C2 2242   7.997   3.030   9.807 -0.0628  0.0001 -0.4115
  141loPI    C3 2243   7.699   3.065  10.071  0.1671 -0.1761 -0.1214
  141loPI   PO4 2244   7.675   2.916   9.443 -0.3238 -0.1815 -0.0939
  141loPI   GL1 2245   7.630   2.853   9.009 -0.0310 -0.1775 -0.0441
  141loPI   GL2 2246   7.950   2.995   8.923 -0.1775 -0.1086 -0.6238
  141loPI   C1A 2247   7.445   2.872   8.640  0.1232  0.1198  0.1465
  141loPI   C2A 2248   7.490   2.871   8.240 -0.0934  0.1790  0.0173
  141loPI   C3A 2249   7.453   2.900   7.726  0.1361  0.2121  0.2746
  141loPI   C4A 2250   7.495   3.052   7.304 -0.1473 -0.0738  0.0815
  141loPI   C5A 2251   7.445   3.089   6.933  0.1008  0.0399 -0.0706
  141loPI   C6A 2252   7.382   2.898   6.529 -0.0743 -0.3031 -0.0140
  141loPI   C1B 2253   7.993   2.997   8.447 -0.0937  0.1585  0.2303
  141loPI   C2B 2254   7.893   3.022   8.001 -0.2245  0.0477 -0.0237
  141loPI   C3B 2255   7.962   3.064   7.554 -0.0814 -0.0383 -0.2554
  141loPI   C4B 2256   7.941   3.174   7.102 -0.2935 -0.2629  0.0617
  142loPI    C1 2257   6.902  11.133   9.934 -0.1699  0.2478  0.2829
  142loPI    C2 2258   7.292  11.218   9.935 -0.1853  0.3240  0.0935
  142loPI    C3 2259   7.117  11.081  10.267  0.0468  0.0839  0.1200
  142loPI   PO4 2260   6.895  11.145   9.572 -0.3009 -0.2007 -0.0624
  142loPI   GL1 2261   6.898  11.070   9.175 -0.0884  0.1485 -0.4417
  142loPI   GL2 2262   6.900  11.329   9.088  0.1696  0.3333  0.0786
  142loPI   C1A 2263   6.590  10.964   8.937 -0.1241  0.0055  0.0643
  142loPI   C2A 2264   6.560  11.034   8.523 -0.1306  0.0827 -0.1152
  142loPI   C3A 2265   6.462  11.018   8.112 -0.0860  0.1939  0.1029
  142loPI   C4A 2266   6.651  10.663   7.803  0.0516  0.0609  0.2928
  142loPI   C5A 2267   6.839  10.515   7.393  0.2120  0.3123  0.0045
  142loPI   C6A 2268   6.791  10.218   7.021  0.2295 -0.1141 -0.2184
  142loPI   C1B 2269   7.023  11.445   8.664  0.2607  0.1976  0.2405
  142loPI   C2B 2270   6.781  11.374   8.199 -0.1054 -0.2018 -0.1089
  142loPI   C3B 2271   6.855  11.301   7.815 -0.1977 -0.1775 -0.0896
  142loPI   C4B 2272   6.968  11.159   7.509 -0.0182  0.0609 -0.0834
  143loPI    C1 2273   9.009  15.038   9.448 -0.1962 -0.3182 -0.0480
  143loPI    C2 2274   8.609  15.036   9.454 -0.1989 -0.0033  0.1049
  143loPI    C3 2275   8.811  15.273   9.704  0.0760  0.1795 -0.2793
  143loPI   PO4 2276   9.096  15.179   9.092 -0.0974  0.0839 -0.1042
  143loPI   GL1 2277   9.291  15.135   8.729  0.0109 -0.0228 -0.0205
  143loPI   GL2 2278   9.061  14.927   8.611 -0.0408  0.6547 -0.0390
  143loPI   C1A 2279   9.658  15.111   8.380 -0.1008  0.1154 -0.0702
  143loPI   C2A 2280   9.698  15.038   7.929  0.0047 -0.3014  0.1641
  143loPI   C3A 2281   9.778  14.965   7.509 -0.3095  0.2491 -0.2413
  143loPI   C4A 2282   9.950  14.792   7.239 -0.1051  0.1880 -0.0845
  143loPI   C5A 2283   9.902  14.421   6.996 -0.0330  0.0067  0.1428
  143loPI   C6A 2284   9.523  14.150   6.941 -0.0463  0.1497  0.0496
  143loPI   C1B 2285   9.056  14.955   8.161 -0.1723  0.0209 -0.1910
  143loPI   C2B 2286   9.281  14.902   7.745 -0.0827 -0.0491  0.1925
  143loPI   C3B 2287   9.335  15.071   7.266  0.0861  0.1490 -0.1273
  143loPI   C4B 2288   9.206  15.006   6.739 -0.0247  0.1777  0.2056
  144loPI    C1 2289  13.794   8.848   9.727 -0.0198 -0.0153  0.1367
  144loPI    C2 2290  13.920   9.225   9.773 -0.0385  0.0305 -0.1657
  144loPI    C3 2291  13.895   8.982  10.090  0.1237  0.2349  0.0070
  144loPI   PO4 2292  13.653   8.905   9.497  0.2162  0.1592  0.0509
  144loPI   GL1 2293  13.825   8.846   9.028 -0.2714  0.0184 -0.0013
  144loPI   GL2 2294  13.790   9.065   9.081 -0.1042 -0.2587  0.2833
  144loPI   C1A 2295  13.793   8.752   8.641 -0.0247  0.0980  0.0498
  144loPI   C2A 2296  13.904   8.742   8.143 -0.2468  0.0237 -0.0402
  144loPI   C3A 2297  13.960   8.629   7.716  0.0314  0.1463 -0.0046
  144loPI   C4A 2298  13.769   8.498   7.406 -0.2516 -0.0101  0.0603
  144loPI   C5A 2299  13.747   8.624   6.987  0.0896 -0.1334 -0.2446
  144loPI   C6A 2300  13.781   8.178   6.690 -0.0686  0.3067 -0.2552
  144loPI   C1B 2301  13.804   9.235   8.650 -0.3156 -0.1705  0.1366
  144loPI   C2B 2302  14.087   9.559   8.485  0.1465  0.1836 -0.0942
  144loPI   C3B 2303  14.024   9.747   8.050 -0.0465 -0.1392  0.0606
  144loPI   C4B 2304  13.673   9.819   7.803  0.3226 -0.1627 -0.0706
  145loPI    C1 2305  10.792  18.456   9.306  0.0295  0.2516 -0.2119
  145loPI    C2 2306  10.568  18.786   9.329 -0.1854  0.0889  0.1029
  145loPI    C3 2307  10.400  18.427   9.379  0.0881 -0.0567  0.0001
  145loPI   PO4 2308  11.021  18.585   9.215 -0.2885 -0.2361 -0.2906
  145loPI   GL1 2309  10.940  18.567   8.788 -0.5087 -0.1490  0.3121
  145loPI   GL2 2310  10.753  18.324   8.820  0.2065  0.0347  0.0291
  145loPI   C1A 2311  10.948  18.940   8.496 -0.0593 -0.2678 -0.1740
  145loPI   C2A 2312  11.191  19.208   8.144  0.2300 -0.0893  0.0547
  145loPI   C3A 2313  11.230  18.977   7.661  0.1227 -0.2015  0.1621
  145loPI   C4A 2314  11.212  19.059   7.240  0.3125 -0.0889 -0.1991
  145loPI   C5A 2315  11.474  19.344   6.863 -0.3899 -0.2005  0.0317
  145loPI   C6A 2316  11.824  19.275   6.550 -0.2954 -0.0872 -0.1217
  145loPI   C1B 2317  10.743  18.455   8.375  0.0048  0.0409  0.2502
  145loPI   C2B 2318  10.799  18.609   7.957 -0.0793 -0.2695  0.0767
  145loPI   C3B 2319  10.724  18.634   7.489 -0.0248 -0.0018 -0.3745
  145loPI   C4B 2320  10.732  18.882   7.174 -0.0550  0.4510 -0.1216
  146loPI    C1 2321   7.725   8.890   9.571 -0.0235 -0.1408 -0.0033
  146loPI    C2 2322   7.438   9.139   9.697  0.1222 -0.0161  0.0864
  146loPI    C3 2323   7.465   8.770   9.850 -0.0638 -0.0719 -0.0106
  146loPI   PO4 2324   7.822   8.996   9.364  0.2761 -0.1182  0.0820
  146loPI   GL1 2325   7.644   8.965   8.962 -0.3832 -0.2678 -0.1681
  146loPI   GL2 2326   7.681   8.776   8.781 -0.0628  0.1940  0.0600
  146loPI   C1A 2327   7.289   9.112   8.753  0.1749 -0.0799  0.1310
  146loPI   C2A 2328   7.190   9.077   8.319  0.0906  0.0446 -0.1223
  146loPI   C3A 2329   7.365   9.005   7.951  0.4615 -0.1639 -0.1698
  146loPI   C4A 2330   7.593   9.152   7.628  0.1831  0.1874  0.0013
  146loPI   C5A 2331   7.713   9.194   7.252 -0.0724  0.1004  0.0728
  146loPI   C6A 2332   7.406   9.312   6.866 -0.2298 -0.2740 -0.0632
  146loPI   C1B 2333   7.562   8.782   8.381 -0.0102 -0.2564  0.1515
  146loPI   C2B 2334   7.812   8.719   7.962 -0.1176  0.0717 -0.1154
  146loPI   C3B 2335   7.916   8.787   7.516 -0.2978  0.1848 -0.3730
  146loPI   C4B 2336   7.988   8.804   7.110 -0.1628  0.1211  0.1583
  147loPI    C1 2337   1.090   2.141   9.239  0.0397  0.1773  0.0394
  147loPI    C2 2338   1.303   1.866   9.436 -0.0861  0.0157 -0.0471
  147loPI    C3 2339   1.044   2.097   9.634 -0.3514 -0.2757 -0.0471
  147loPI   PO4 2340   1.225   2.223   9.077  0.2970 -0.0195 -0.1454
  147loPI   GL1 2341   1.398   2.233   8.700 -0.3326  0.2673 -0.1757
  147loPI   GL2 2342   1.478   2.473   8.645  0.1999 -0.0458 -0.0930
  147loPI   C1A 2343   1.356   2.037   8.322  0.2640 -0.0726  0.3297
  147loPI   C2A 2344   1.307   2.028   7.802  0.6941 -0.0574 -0.1657
  147loPI   C3A 2345   1.390   1.875   7.405 -0.0404 -0.3820  0.5092
  147loPI   C4A 2346   1.122   1.622   7.087 -0.3726 -0.0196 -0.1601
  147loPI   C5A 2347   1.052   1.650   6.633  0.0926  0.0624 -0.0057
  147loPI   C6A 2348   1.075   1.683   6.269  0.0928  0.0382 -0.1952
  147loPI   C1B 2349   1.328   2.637   8.260  0.1023  0.0397 -0.2979
  147loPI   C2B 2350   1.234   2.566   7.835  0.0900  0.0111 -0.1833
  147loPI   C3B 2351   1.089   2.358   7.450 -0.0912 -0.0117 -0.0794
  147loPI   C4B 2352   1.010   2.128   7.030 -0.0799 -0.0340 -0.1697
  148loPI    C1 2353   4.916   9.212   9.402 -0.0381  0.0925  0.0840
  148loPI    C2 2354   4.930   8.920   9.674 -0.2534  0.1904  0.2026
  148loPI    C3 2355   4.736   9.260   9.756 -0.0998  0.3228  0.0232
  148loPI   PO4 2356   5.107   9.192   9.149 -0.0304  0.4992  0.1327
  148loPI   GL1 2357   5.267   9.327   8.883  0.1653 -0.1774 -0.1281
  148loPI   GL2 2358   5.553   9.467   8.831 -0.2754 -0.0657 -0.0972
  148loPI   C1A 2359   5.178   9.078   8.499  0.0175  0.0040 -0.3105
  148loPI   C2A 2360   5.270   9.166   7.994  0.2509 -0.2951 -0.0002
  148loPI   C3A 2361   5.447   9.198   7.602 -0.2599  0.3159  0.0493
  148loPI   C4A 2362   5.249   9.283   7.153  0.0974  0.2496 -0.1415
  148loPI   C5A 2363   5.118   9.347   6.749  0.0327 -0.5590 -0.0815
  148loPI   C6A 2364   5.173   9.137   6.353  0.0648  0.0342 -0.1748
  148loPI   C1B 2365   5.530   9.572   8.511  0.1633  0.0584 -0.2352
  148loPI   C2B 2366   5.339   9.638   8.210 -0.1115 -0.0431  0.3955
  148loPI   C3B 2367   5.236   9.607   7.803  0.3311  0.3282 -0.0520
  148loPI   C4B 2368   5.172   9.725   7.412 -0.1700 -0.0944  0.1967
  149loPI    C1 2369  16.022  14.574   9.720 -0.1021 -0.1875  0.1018
  149loPI    C2 2370  16.314  14.651   9.982 -0.0914  0.1350  0.0000
  149loPI    C3 2371  15.939  14.596  10.111  0.0046 -0.2520  0.1283
  149loPI   PO4 2372  16.131  14.413   9.503 -0.0393  0.0285 -0.1389
  149loPI   GL1 2373  15.930  14.294   9.010  0.0974 -0.1847 -0.2109
  149loPI   GL2 2374  15.818  14.502   9.102  0.0020 -0.2115 -0.2732
  149loPI   C1A 2375  15.713  14.570   8.577 -0.0029  0.2675 -0.1319
  149loPI   C2A 2376  15.690  14.910   8.319  0.6043  0.0701 -0.0664
  149loPI   C3A 2377  15.713  15.012   7.896  0.1182  0.2029 -0.2490
  149loPI   C4A 2378  15.572  15.451   7.677  0.1325 -0.2185 -0.0139
  149loPI   C5A 2379  15.745  15.500   7.277 -0.0787  0.0850 -0.0680
  149loPI   C6A 2380  15.821  15.883   7.050 -0.0577 -0.0266 -0.4798
  149loPI   C1B 2381  16.137  14.739   8.777 -0.1689  0.0498 -0.1527
  149loPI   C2B 2382  16.180  14.760   8.307  0.2306 -0.0150 -0.0195
  149loPI   C3B 2383  16.237  14.636   7.908 -0.0183  0.0999 -0.0314
  149loPI   C4B 2384  16.209  14.707   7.452 -0.0992  0.0716 -0.1116
  150loPI    C1 2385   6.642  10.212   9.423 -0.1052  0.1382 -0.0060
  150loPI    C2 2386   6.569  10.352   9.790 -0.1656  0.0496  0.0161
  150loPI    C3 2387   6.881  10.110   9.726 -0.2593 -0.0799  0.0443
  150loPI   PO4 2388   6.446  10.286   9.278  0.1364  0.3410  0.2587
  150loPI   GL1 2389   6.367  10.414   8.901 -0.1829 -0.0829  0.3075
  150loPI   GL2 2390   6.251  10.526   8.616 -0.0471 -0.1250 -0.0758
  150loPI   C1A 2391   6.580  10.158   8.527 -0.1819  0.1590 -0.3458
  150loPI   C2A 2392   6.524  10.189   8.016  0.1803 -0.1320 -0.0596
  150loPI   C3A 2393   6.501  10.102   7.542  0.2606  0.1786 -0.1958
  150loPI   C4A 2394   6.342  10.086   7.208 -0.2632  0.2766 -0.0161
  150loPI   C5A 2395   6.318  10.178   6.801 -0.2651 -0.2258  0.0863
  150loPI   C6A 2396   6.578  10.015   6.495 -0.1264 -0.1489  0.0090
  150loPI   C1B 2397   6.080  10.364   8.212  0.1237  0.0326 -0.0922
  150loPI   C2B 2398   6.178  10.512   7.811  0.0907 -0.0673  0.1556
  150loPI   C3B 2399   5.989  10.433   7.408 -0.0790  0.1288 -0.0950
  150loPI   C4B 2400   5.799  10.719   7.169 -0.1833 -0.2483 -0.1131
  151loPI    C1 2401   4.248  16.794   9.014 -0.0853  0.0872  0.1838
  151loPI    C2 2402   3.883  16.880   8.875 -0.1375 -0.3809  0.0131
  151loPI    C3 2403   3.935  16.570   9.122  0.1429 -0.3043  0.0535
  151loPI   PO4 2404   4.391  16.789   8.902  0.1545  0.0599 -0.0973
  151loPI   GL1 2405   4.439  17.051   8.476 -0.3524  0.0366 -0.1579
  151loPI   GL2 2406   4.118  17.102   8.430  0.0235  0.2274  0.1451
  151loPI   C1A 2407   4.376  17.125   8.034  0.3785  0.0891 -0.1530
  151loPI   C2A 2408   4.350  17.410   7.661  0.0190  0.0439 -0.0425
  151loPI   C3A 2409   4.558  17.429   7.270 -0.0549  0.0564 -0.1470
  151loPI   C4A 2410   4.525  17.432   6.805 -0.4241  0.2916  0.1716
  151loPI   C5A 2411   4.690  17.139   6.420  0.1942 -0.0396 -0.1682
  151loPI   C6A 2412   4.998  16.863   6.151 -0.4186 -0.0696  0.1994
  151loPI   C1B 2413   3.877  17.191   8.008 -0.1608  0.2080  0.4648
  151loPI   C2B 2414   3.892  17.142   7.485  0.0157  0.3513  0.0892
  151loPI   C3B 2415   4.121  17.218   7.028  0.0445  0.0397  0.3424
  151loPI   C4B 2416   4.179  17.148   6.575  0.2892  0.3227  0.1326
  152loPI    C1 2417  12.418  13.687   9.644  0.0355 -0.3874 -0.0341
  152loPI    C2 2418  12.697  13.797   9.909  0.1109  0.2157 -0.3453
  152loPI    C3 2419  12.351  13.641  10.036  0.3246  0.0667  0.0766
  152loPI   PO4 2420  12.521  13.821   9.439  0.0453 -0.2792 -0.0342
  152loPI   GL1 2421  12.557  13.727   9.022  0.0454 -0.0784  0.2141
  152loPI   GL2 2422  12.335  13.817   8.969  0.2183  0.3126  0.0169
  152loPI   C1A 2423  12.838  13.704   8.722  0.0191  0.2752 -0.3491
  152loPI   C2A 2424  12.942  13.597   8.311 -0.3461  0.3613  0.1002
  152loPI   C3A 2425  13.237  13.626   8.029  0.0743  0.2732 -0.3242
  152loPI   C4A 2426  13.379  13.390   7.652 -0.3584  0.0267  0.2240
  152loPI   C5A 2427  13.421  13.460   7.254  0.4149 -0.2540  0.1671
  152loPI   C6A 2428  13.772  13.589   7.154 -0.0030  0.1378 -0.3276
  152loPI   C1B 2429  12.329  13.538   8.569  0.0364 -0.2125 -0.0637
  152loPI   C2B 2430  12.280  13.479   8.076 -0.2931  0.1439 -0.0246
  152loPI   C3B 2431  12.203  13.478   7.611  0.1816  0.3130  0.0604
  152loPI   C4B 2432  12.117  13.829   7.252  0.0432 -0.3107 -0.3237
  153loPI    C1 2433  12.245   0.653   9.820  0.0765 -0.0609  0.1254
  153loPI    C2 2434  12.603   0.480   9.865 -0.0969 -0.4580  0.0167
  153loPI    C3 2435  12.564   0.874   9.919  0.3600 -0.4056  0.0031
  153loPI   PO4 2436  12.171   0.564   9.532  0.4242 -0.0066 -0.2759
  153loPI   GL1 2437  12.146   0.744   9.266 -0.1433  0.0390  0.0199
  153loPI   GL2 2438  11.949   0.978   9.242 -0.0038  0.0507  0.1307
  153loPI   C1A 2439  12.394   0.754   8.899  0.1190 -0.1141 -0.0229
  153loPI   C2A 2440  12.446   0.774   8.494  0.1080  0.0979 -0.1807
  153loPI   C3A 2441  12.396   0.779   8.124 -0.0844  0.0883 -0.3581
  153loPI   C4A 2442  12.252   0.526   7.744  0.0957  0.3088 -0.1938
  153loPI   C5A 2443  12.284   0.661   7.360  0.2258  0.2947  0.0853
  153loPI   C6A 2444  12.114   0.956   7.100 -0.1685  0.0303 -0.0573
  153loPI   C1B 2445  11.800   0.838   8.791 -0.0021 -0.0378 -0.1030
  153loPI   C2B 2446  11.958   0.855   8.359 -0.1008  0.1824 -0.1304
  153loPI   C3B 2447  11.891   0.960   7.967 -0.0891  0.3740 -0.0203
  153loPI   C4B 2448  11.828   0.780   7.529 -0.3177  0.2045 -0.0940
  154loPI    C1 2449   4.022   9.410   9.266 -0.1295  0.0508  0.1472
  154loPI    C2 2450   4.232   9.742   9.188 -0.1253 -0.0198 -0.1548
  154loPI    C3 2451   4.411   9.426   9.356 -0.1083  0.0972  0.0495
  154loPI   PO4 2452   3.838   9.375   9.009  0.0535 -0.0781 -0.1181
  154loPI   GL1 2453   3.876   9.255   8.667  0.2294 -0.0825  0.5177
  154loPI   GL2 2454   3.676   9.031   8.493 -0.1410  0.5148  0.2757
  154loPI   C1A 2455   4.149   9.326   8.339  0.0301 -0.0124 -0.1983
  154loPI   C2A 2456   4.327   9.103   8.051  0.0649  0.1995  0.2885
  154loPI   C3A 2457   4.296   9.157   7.626 -0.0771  0.1265 -0.0787
  154loPI   C4A 2458   4.497   9.001   7.256  0.1269 -0.0868 -0.1059
  154loPI   C5A 2459   4.591   9.093   6.866  0.1889  0.0587 -0.0090
  154loPI   C6A 2460   4.727   8.979   6.504  0.1329  0.1739 -0.0014
  154loPI   C1B 2461   3.709   9.486   8.248 -0.2904 -0.2610  0.0695
  154loPI   C2B 2462   3.560   9.614   7.883 -0.3114 -0.1166  0.2961
  154loPI   C3B 2463   3.250   9.641   7.641  0.2183 -0.0110 -0.0548
  154loPI   C4B 2464   2.994   9.679   7.248 -0.0981  0.0891  0.1257
  155loPI    C1 2465  13.095   8.476   9.850  0.2971  0.0370 -0.0965
  155loPI    C2 2466  12.842   8.165   9.855 -0.0352  0.3034  0.0140
  155loPI    C3 2467  13.130   8.194  10.132  0.0131  0.0834 -0.0118
  155loPI   PO4 2468  13.218   8.487   9.639 -0.1474 -0.1761  0.0869
  155loPI   GL1 2469  13.407   8.556   9.184 -0.2809  0.0690 -0.2203
  155loPI   GL2 2470  13.349   8.802   8.952 -0.2128 -0.1726  0.1063
  155loPI   C1A 2471  13.234   8.390   8.818 -0.0073 -0.1720  0.2426
  155loPI   C2A 2472  13.424   8.457   8.361 -0.1197 -0.0123  0.1840
  155loPI   C3A 2473  13.508   8.437   7.969  0.1014 -0.2010  0.1762
  155loPI   C4A 2474  13.360   8.548   7.649 -0.1205 -0.1519  0.1219
  155loPI   C5A 2475  13.232   8.598   7.206 -0.2518  0.0396  0.0868
  155loPI   C6A 2476  13.339   8.900   6.875  0.1287  0.0225  0.1974
  155loPI   C1B 2477  13.207   8.837   8.572  0.2317 -0.0644 -0.1726
  155loPI   C2B 2478  13.125   8.843   8.003 -0.2849  0.0568 -0.0633
  155loPI   C3B 2479  13.002   9.013   7.605  0.1630  0.0403  0.2700
  155loPI   C4B 2480  12.994   9.020   7.187  0.0251 -0.0722  0.1488
  156loPI    C1 2481  18.770  12.626   9.558  0.2436 -0.1104 -0.1566
  156loPI    C2 2482  18.713  12.992   9.408 -0.0328 -0.1284 -0.1018
  156loPI    C3 2483  18.522  12.881   9.741  0.2742 -0.2241  0.0457
  156loPI   PO4 2484  18.775  12.474   9.330  0.3047 -0.2068 -0.2318
  156loPI   GL1 2485  18.529  12.419   8.939 -0.1330  0.1722 -0.3117
  156loPI   GL2 2486  18.389  12.152   9.050  0.0394 -0.4181 -0.0384
  156loPI   C1A 2487  18.490  12.416   8.537 -0.2636  0.1664  0.2514
  156loPI   C2A 2488  18.429  12.541   8.118  0.0629 -0.0952 -0.1012
  156loPI   C3A 2489  18.562  12.496   7.735 -0.3624  0.0467 -0.2727
  156loPI   C4A 2490  18.589  12.624   7.311 -0.2338  0.0586 -0.1356
  156loPI   C5A 2491  18.305  12.702   7.088 -0.1539 -0.0237 -0.2829
  156loPI   C6A 2492  17.926  12.872   6.864 -0.0639 -0.0331  0.0897
  156loPI   C1B 2493  18.124  12.118   8.585  0.0977  0.0812  0.0902
  156loPI   C2B 2494  17.959  12.148   8.240  0.0072  0.1128 -0.0551
  156loPI   C3B 2495  17.942  12.215   7.827  0.1274 -0.1870  0.2247
  156loPI   C4B 2496  17.693  12.574   7.692  0.1698 -0.1311 -0.0137
  157loPI    C1 2497  13.227   1.157   9.697  0.0261 -0.3636 -0.1360
  157loPI    C2 2498  13.479   0.869   9.813  0.3863  0.0150  0.0456
  157loPI    C3 2499  13.587   1.126   9.526  0.0511 -0.0525 -0.1465
  157loPI   PO4 2500  12.993   1.012   9.572  0.1688  0.3367 -0.4495
  157loPI   GL1 2501  12.970   1.047   9.244  0.0125  0.2022 -0.2554
  157loPI   GL2 2502  13.234   1.121   9.120  0.3607  0.0693 -0.1517
  157loPI   C1A 2503  12.815   0.988   8.789  0.0672  0.0102 -0.2664
  157loPI   C2A 2504  12.988   0.826   8.332 -0.0272 -0.1882  0.1236
  157loPI   C3A 2505  12.813   0.797   7.837  0.0270  0.0530  0.0951
  157loPI   C4A 2506  12.645   1.014   7.460 -0.1401 -0.2050 -0.2277
  157loPI   C5A 2507  12.652   0.920   6.988  0.1800 -0.2020  0.1736
  157loPI   C6A 2508  12.574   1.049   6.532 -0.2154 -0.6027  0.2167
  157loPI   C1B 2509  13.207   1.199   8.591 -0.1579 -0.1027  0.0914
  157loPI   C2B 2510  13.214   1.270   8.173  0.3126 -0.0085  0.0396
  157loPI   C3B 2511  12.990   1.286   7.751  0.0665 -0.2744 -0.0833
  157loPI   C4B 2512  13.077   1.688   7.624  0.1350 -0.0845  0.1798
  158loPI    C1 2513  16.725   2.704   9.761 -0.0601 -0.2291  0.0787
  158loPI    C2 2514  16.566   2.896  10.073  0.1590  0.0375  0.0296
  158loPI    C3 2515  16.762   2.552  10.129 -0.2991 -0.2183  0.1086
  158loPI   PO4 2516  16.849   2.874   9.592  0.1145  0.1392 -0.0288
  158loPI   GL1 2517  16.682   2.885   9.128  0.1575  0.0072 -0.0845
  158loPI   GL2 2518  16.851   2.526   9.019  0.1328  0.0883  0.5613
  158loPI   C1A 2519  16.691   2.837   8.632 -0.2235 -0.0698 -0.0415
  158loPI   C2A 2520  16.758   2.750   8.220  0.1677  0.3540  0.0134
  158loPI   C3A 2521  16.780   2.884   7.727  0.0228 -0.0691  0.0485
  158loPI   C4A 2522  16.808   2.904   7.363  0.2681 -0.0817  0.0871
  158loPI   C5A 2523  16.819   3.086   6.987 -0.2822  0.0156 -0.2016
  158loPI   C6A 2524  17.003   3.278   6.537 -0.0812 -0.0829 -0.0355
  158loPI   C1B 2525  16.968   2.416   8.514  0.3708  0.2342  0.3338
  158loPI   C2B 2526  17.148   2.184   8.140 -0.0044 -0.0427  0.0350
  158loPI   C3B 2527  17.068   2.230   7.782 -0.1818  0.1426  0.1608
  158loPI   C4B 2528  17.065   2.304   7.338 -0.3654 -0.3389 -0.0948
  159loPI    C1 2529   9.389  12.189   9.432  0.1532  0.1090 -0.0802
  159loPI    C2 2530   9.280  12.042   9.788 -0.0657  0.1424 -0.1320
  159loPI    C3 2531   9.280  12.437   9.726 -0.1179  0.1324 -0.1972
  159loPI   PO4 2532   9.289  12.000   9.214  0.1474  0.1051  0.0351
  159loPI   GL1 2533   9.038  12.065   8.868  0.1751  0.2611  0.1523
  159loPI   GL2 2534   8.768  12.245   8.765  0.1459 -0.1860  0.2140
  159loPI   C1A 2535   9.023  11.923   8.449  0.3444 -0.1425  0.2196
  159loPI   C2A 2536   8.907  11.790   8.076  0.1243  0.1696  0.1542
  159loPI   C3A 2537   8.734  11.838   7.654 -0.1799 -0.1512 -0.3028
  159loPI   C4A 2538   8.923  11.808   7.214 -0.2096  0.0219  0.1914
  159loPI   C5A 2539   9.249  11.757   6.918 -0.3477 -0.0237  0.1840
  159loPI   C6A 2540   9.404  11.954   6.589  0.1183  0.0889 -0.0779
  159loPI   C1B 2541   8.992  12.415   8.475  0.0827 -0.1210  0.0257
  159loPI   C2B 2542   9.070  12.502   8.087 -0.3930 -0.0965  0.2361
  159loPI   C3B 2543   9.199  12.741   7.746 -0.1478 -0.2562 -0.2623
  159loPI   C4B 2544   9.169  12.685   7.313 -0.1790 -0.0963  0.2918
  160loPI    C1 2545   2.915  17.941   9.147  0.2641  0.5298 -0.0849
  160loPI    C2 2546   2.781  17.989   9.521 -0.0066 -0.3340 -0.0483
  160loPI    C3 2547   3.173  17.946   9.453  0.0628  0.0171  0.1040
  160loPI   PO4 2548   2.750  18.063   8.985  0.4149 -0.1824  0.2283
  160loPI   GL1 2549   2.605  18.018   8.537  0.1951 -0.1201  0.0494
  160loPI   GL2 2550   2.555  17.725   8.501 -0.0330 -0.3539 -0.0282
  160loPI   C1A 2551   2.644  18.273   8.172 -0.3378 -0.0116  0.1078
  160loPI   C2A 2552   2.836  18.231   7.843 -0.0988  0.0014 -0.0586
  160loPI   C3A 2553   3.153  18.336   7.581 -0.1807  0.3653  0.1751
  160loPI   C4A 2554   3.383  18.212   7.321 -0.2670 -0.0960  0.0352
  160loPI   C5A 2555   3.686  17.949   7.132 -0.0311 -0.1848  0.2525
  160loPI   C6A 2556   3.688  17.482   6.981 -0.2225  0.1065 -0.0922
  160loPI   C1B 2557   2.537  17.703   8.028 -0.1932  0.2386  0.0351
  160loPI   C2B 2558   2.531  17.697   7.525  0.2644  0.1915  0.0030
  160loPI   C3B 2559   2.306  17.498   7.044 -0.0120 -0.0537 -0.1383
  160loPI   C4B 2560   2.218  17.210   6.641  0.2520  0.1197  0.1224
  161loPI    C1 2561  18.117  11.181  10.031  0.0424 -0.1224  0.0630
  161loPI    C2 2562  18.295  11.532  10.101 -0.0628 -0.0509 -0.0236
  161loPI    C3 2563  17.934  11.456  10.257 -0.1105 -0.0573 -0.1368
  161loPI   PO4 2564  18.238  11.197   9.677 -0.1954  0.3004  0.1199
  161loPI   GL1 2565  18.200  11.061   9.239  0.2304 -0.0736  0.3337
  161loPI   GL2 2566  18.139  11.268   9.001  0.2012  0.2380 -0.0252
  161loPI   C1A 2567  18.335  10.830   9.015 -0.1304  0.1338  0.2113
  161loPI   C2A 2568  18.661  10.679   8.683  0.1177 -0.2280 -0.2250
  161loPI   C3A 2569  18.716  10.834   8.232 -0.1409  0.1938 -0.3053
  161loPI   C4A 2570  18.734  10.873   7.763 -0.1053 -0.3194  0.3815
  161loPI   C5A 2571  18.526  10.603   7.398  0.1121 -0.0066 -0.3586
  161loPI   C6A 2572  18.722  10.618   6.998 -0.0998 -0.0184 -0.1384
  161loPI   C1B 2573  17.753  11.288   8.708 -0.2356 -0.0858 -0.1304
  161loPI   C2B 2574  17.500  11.459   8.430  0.0192  0.1856 -0.1470
  161loPI   C3B 2575  17.394  11.388   7.891 -0.0539  0.3136  0.0338
  161loPI   C4B 2576  17.236  11.456   7.520 -0.1364 -0.1077  0.0968
  162loPI    C1 2577  19.615   0.066   9.410 -0.0066 -0.0873  0.2861
  162loPI    C2 2578  19.722   0.358   9.662  0.2087  0.0986 -0.0143
  162loPI    C3 2579  19.408   0.408   9.418  0.0354 -0.0590  0.1723
  162loPI   PO4 2580  19.802   0.022   9.273 -0.0624  0.1724  0.0015
  162loPI   GL1 2581  20.070   0.112   8.869  0.1849 -0.0817  0.2066
  162loPI   GL2 2582  20.321   0.195   8.770  0.1947 -0.2685 -0.2094
  162loPI   C1A 2583  19.900   0.274   8.464  0.2424 -0.2009 -0.0876
  162loPI   C2A 2584  19.730   0.353   8.040 -0.0402 -0.0894 -0.4556
  162loPI   C3A 2585  19.528   0.338   7.685 -0.2183 -0.1931  0.0742
  162loPI   C4A 2586  19.717   0.483   7.394  0.2263 -0.0640 -0.7183
  162loPI   C5A 2587  19.912   0.395   6.988  0.0691 -0.1908 -0.0971
  162loPI   C6A 2588  20.006   0.195   6.584 -0.2872 -0.0201  0.1458
  162loPI   C1B 2589  20.433   0.524   8.547  0.2077  0.0583 -0.2273
  162loPI   C2B 2590  20.172   0.679   8.156  0.0215  0.0567  0.3150
  162loPI   C3B 2591  20.003   0.701   7.828  0.0267  0.0539 -0.3295
  162loPI   C4B 2592  20.201   0.847   7.437  0.2098 -0.1060 -0.0607
  163loPI    C1 2593   9.265   3.125   9.521 -0.3246 -0.0447 -0.0008
  163loPI    C2 2594   9.429   3.041   9.875 -0.2182 -0.1089 -0.0648
  163loPI    C3 2595   9.064   2.904   9.786 -0.1345 -0.3227 -0.0844
  163loPI   PO4 2596   9.443   3.059   9.275 -0.0856  0.3906  0.0643
  163loPI   GL1 2597   9.825   3.007   9.111 -0.4062 -0.0808 -0.0141
  163loPI   GL2 2598  10.087   2.912   9.152  0.1241  0.0122  0.0343
  163loPI   C1A 2599   9.853   2.963   8.602  0.0878  0.0608 -0.1896
  163loPI   C2A 2600   9.869   2.779   8.220  0.2457 -0.1468 -0.1713
  163loPI   C3A 2601   9.816   2.860   7.708  0.1353 -0.0883  0.1174
  163loPI   C4A 2602   9.829   2.961   7.364  0.0895  0.0827 -0.0119
  163loPI   C5A 2603  10.081   3.318   7.177 -0.1210  0.1162  0.0597
  163loPI   C6A 2604  10.244   3.583   6.924  0.0657 -0.1746  0.0217
  163loPI   C1B 2605  10.335   3.122   8.772  0.0615  0.2544 -0.2302
  163loPI   C2B 2606  10.324   3.215   8.282  0.2176  0.1089 -0.1904
  163loPI   C3B 2607  10.344   3.256   7.815 -0.3411  0.0232  0.0702
  163loPI   C4B 2608  10.503   3.461   7.392  0.2997  0.0813 -0.0090
  164loPI    C1 2609   1.650  15.651   9.456 -0.1508 -0.1116  0.0240
  164loPI    C2 2610   1.350  15.812   9.665 -0.1636 -0.2369  0.1033
  164loPI    C3 2611   1.698  15.733   9.845 -0.0052  0.1147 -0.0395
  164loPI   PO4 2612   1.621  15.703   9.126 -0.4028 -0.3019 -0.1493
  164loPI   GL1 2613   1.740  15.610   8.676 -0.3059  0.0224 -0.1529
  164loPI   GL2 2614   1.936  15.409   8.655 -0.2674 -0.2280 -0.0651
  164loPI   C1A 2615   1.735  15.601   8.193  0.0571  0.1913  0.2969
  164loPI   C2A 2616   1.631  15.701   7.680  0.0537 -0.1332  0.2288
  164loPI   C3A 2617   1.493  15.613   7.242 -0.1239  0.0843 -0.1026
  164loPI   C4A 2618   1.510  15.307   6.882  0.0387  0.2042  0.2234
  164loPI   C5A 2619   1.416  15.528   6.517 -0.1791  0.0153  0.0447
  164loPI   C6A 2620   1.472  15.659   6.072 -0.1172 -0.2961  0.0463
  164loPI   C1B 2621   2.191  15.420   8.299  0.0818 -0.0251  0.2265
  164loPI   C2B 2622   1.976  15.326   7.847 -0.0947  0.1583  0.0279
  164loPI   C3B 2623   1.818  15.217   7.424  0.1507 -0.0019 -0.0985
  164loPI   C4B 2624   1.940  15.063   7.004 -0.0486 -0.2456  0.0109
  165loPI    C1 2625   4.988  10.931   9.251 -0.2038  0.1439  0.1446
  165loPI    C2 2626   4.899  11.026   9.629 -0.1734 -0.1572  0.2295
  165loPI    C3 2627   5.129  10.708   9.551  0.1254  0.1143 -0.0266
  165loPI   PO4 2628   4.987  11.231   9.079  0.1145 -0.1936  0.4188
  165loPI   GL1 2629   5.177  11.175   8.769 -0.2662  0.1532  0.1740
  165loPI   GL2 2630   5.319  11.566   8.870  0.0107  0.0033  0.3033
  165loPI   C1A 2631   5.471  11.243   8.435 -0.3348  0.0634 -0.2490
  165loPI   C2A 2632   5.421  11.086   8.004 -0.0447  0.0325  0.0686
  165loPI   C3A 2633   5.115  10.911   7.771 -0.0314 -0.0542 -0.3952
  165loPI   C4A 2634   5.188  10.756   7.317  0.0045  0.1695  0.3129
  165loPI   C5A 2635   5.324  10.719   6.844  0.1318  0.1451  0.2377
  165loPI   C6A 2636   5.621  10.886   6.614  0.0848  0.0256  0.3050
  165loPI   C1B 2637   5.254  11.653   8.538 -0.0667 -0.0848 -0.3573
  165loPI   C2B 2638   5.422  11.643   8.143  0.0551 -0.1107  0.0276
  165loPI   C3B 2639   5.514  11.525   7.675  0.2405 -0.2304  0.0960
  165loPI   C4B 2640   5.543  11.116   7.548  0.0996 -0.0151  0.0225
  166loPI    C1 2641  10.445  19.539   9.446  0.0869 -0.0787 -0.1301
  166loPI    C2 2642  10.574  19.210   9.633 -0.0264  0.0248  0.1340
  166loPI    C3 2643  10.181  19.278   9.596 -0.0044  0.0294 -0.1014
  166loPI   PO4 2644  10.715  19.564   9.240 -0.2938  0.3406  0.0285
  166loPI   GL1 2645  10.870  19.516   8.819  0.0410  0.2563 -0.0633
  166loPI   GL2 2646  10.679  19.332   8.687  0.2687 -0.0886 -0.0772
  166loPI   C1A 2647  11.028  19.646   8.407  0.0497 -0.1481  0.2146
  166loPI   C2A 2648  11.154  19.694   7.910  0.2651  0.2440  0.0645
  166loPI   C3A 2649  11.264  19.497   7.616 -0.0000 -0.0458  0.0769
  166loPI   C4A 2650  11.537  19.418   7.352 -0.0177  0.0236  0.0379
  166loPI   C5A 2651  11.920  19.231   7.193 -0.1002  0.0501  0.0807
  166loPI   C6A 2652  12.230  19.419   6.886  0.0804  0.0323  0.0105
  166loPI   C1B 2653  10.527  19.245   8.287  0.3710 -0.3492 -0.3054
  166loPI   C2B 2654  10.743  19.171   7.942  0.2079 -0.0798  0.1140
  166loPI   C3B 2655  10.787  19.340   7.434  0.0516 -0.2046 -0.0229
  166loPI   C4B 2656  10.950  19.419   7.076  0.3285 -0.0216  0.1167
  167loPI    C1 2657   8.619   3.109   9.472 -0.0658 -0.0296 -0.0174
  167loPI    C2 2658   8.243   3.211   9.385 -0.2247 -0.3029  0.3264
  167loPI    C3 2659   8.406   3.326   9.732  0.0646 -0.0563  0.1134
  167loPI   PO4 2660   8.878   3.108   9.259 -0.3276 -0.1844  0.1215
  167loPI   GL1 2661   9.088   3.099   8.899  0.0411 -0.1421 -0.3600
  167loPI   GL2 2662   9.407   3.188   8.801  0.0722 -0.0976 -0.2370
  167loPI   C1A 2663   8.875   3.088   8.498 -0.1139  0.0688  0.0900
  167loPI   C2A 2664   8.785   3.088   8.050  0.3336 -0.1496  0.0402
  167loPI   C3A 2665   8.830   3.254   7.673 -0.0875 -0.1492 -0.0974
  167loPI   C4A 2666   8.955   3.222   7.223  0.1323 -0.1102  0.0660
  167loPI   C5A 2667   8.951   3.194   6.771 -0.0964 -0.1000 -0.0339
  167loPI   C6A 2668   8.905   3.204   6.373  0.0349  0.1666  0.0399
  167loPI   C1B 2669   9.403   3.132   8.370 -0.0149  0.0115  0.0931
  167loPI   C2B 2670   9.271   2.994   8.065 -0.0623 -0.2331  0.2119
  167loPI   C3B 2671   9.318   3.048   7.624 -0.0772 -0.1261  0.3816
  167loPI   C4B 2672   9.284   2.903   7.203 -0.3111 -0.1656  0.0230
  168loPI    C1 2673  11.103  12.312   9.693  0.1910  0.3147 -0.1669
  168loPI    C2 2674  10.723  12.386   9.797  0.0986  0.0044 -0.2736
  168loPI    C3 2675  11.008  12.656   9.874 -0.0970  0.1215  0.0587
  168loPI   PO4 2676  11.102  12.267   9.367  0.0004 -0.0800 -0.0351
  168loPI   GL1 2677  11.328  12.450   9.026  0.1207 -0.2165 -0.0764
  168loPI   GL2 2678  11.545  12.309   8.797 -0.0627  0.3929  0.3243
  168loPI   C1A 2679  11.598  12.811   8.725  0.0387 -0.1062  0.0832
  168loPI   C2A 2680  11.581  13.043   8.339  0.0496  0.4186  0.2349
  168loPI   C3A 2681  11.297  13.090   8.048  0.0140 -0.0526  0.0736
  168loPI   C4A 2682  11.277  12.901   7.709 -0.2864 -0.2519  0.0626
  168loPI   C5A 2683  11.264  13.046   7.224  0.2161 -0.1726 -0.0788
  168loPI   C6A 2684  11.068  13.109   6.812  0.1228  0.0728 -0.4787
  168loPI   C1B 2685  11.335  12.378   8.512 -0.0539 -0.0701 -0.4824
  168loPI   C2B 2686  11.422  12.599   8.170 -0.1479 -0.0653 -0.2252
  168loPI   C3B 2687  11.561  12.453   7.731  0.0447 -0.2043  0.2754
  168loPI   C4B 2688  11.495  12.561   7.351  0.4139  0.0032 -0.0685
  169loPI    C1 2689  15.353  10.022   9.951 -0.0518 -0.1074  0.1031
  169loPI    C2 2690  15.048   9.831  10.127 -0.0918  0.1162  0.2812
  169loPI    C3 2691  15.383   9.633  10.036 -0.1469 -0.0466  0.4294
  169loPI   PO4 2692  15.248  10.226   9.744  0.0297  0.0323 -0.1238
  169loPI   GL1 2693  15.162  10.477   9.318  0.2130 -0.0653  0.2292
  169loPI   GL2 2694  15.264  10.625   9.401  0.1530 -0.1181  0.0517
  169loPI   C1A 2695  15.179  10.452   8.903  0.0206 -0.4267  0.2825
  169loPI   C2A 2696  15.045  10.219   8.520  0.2682  0.3311  0.2471
  169loPI   C3A 2697  15.101  10.400   8.110  0.2020 -0.0739 -0.0503
  169loPI   C4A 2698  14.981  10.273   7.661 -0.0911  0.1718 -0.1845
  169loPI   C5A 2699  14.721  10.441   7.336  0.0405  0.0703 -0.2519
  169loPI   C6A 2700  14.378  10.708   7.404 -0.2392 -0.0254  0.1841
  169loPI   C1B 2701  15.591  10.723   9.195 -0.2312 -0.2143  0.1176
  169loPI   C2B 2702  15.704  10.674   8.773  0.1690 -0.0092 -0.2622
  169loPI   C3B 2703  15.778  10.636   8.364 -0.1333 -0.1303 -0.1786
  169loPI   C4B 2704  15.662  10.704   7.938 -0.0791  0.0727 -0.1306
  170loPI    C1 2705   0.277  15.344   9.608  0.1860 -0.2383 -0.0113
  170loPI    C2 2706   0.556  15.516   9.838  0.0844 -0.0232 -0.0465
  170loPI    C3 2707   0.222  15.716   9.745 -0.0412 -0.2452 -0.0799
  170loPI   PO4 2708   0.504  15.210   9.387  0.2065  0.1465  0.1364
  170loPI   GL1 2709   0.444  15.292   9.040  0.2798 -0.0549 -0.3367
  170loPI   GL2 2710   0.450  14.892   8.979 -0.1153 -0.0222  0.0266
  170loPI   C1A 2711   0.300  15.480   8.712 -0.2718 -0.3582 -0.0445
  170loPI   C2A 2712   0.383  15.676   8.265  0.0449  0.0834  0.3367
  170loPI   C3A 2713   0.401  15.394   7.915 -0.3308 -0.0112  0.1983
  170loPI   C4A 2714   0.248  15.303   7.485 -0.0429 -0.1739 -0.1835
  170loPI   C5A 2715   0.166  15.242   7.083 -0.1730  0.0771  0.0601
  170loPI   C6A 2716   0.103  14.760   6.977  0.0367  0.2240 -0.1446
  170loPI   C1B 2717   0.663  14.920   8.576  0.1858 -0.1292  0.0548
  170loPI   C2B 2718   0.643  14.785   8.180 -0.0667  0.0691 -0.1831
  170loPI   C3B 2719   0.504  14.857   7.844 -0.2385  0.2727 -0.1163
  170loPI   C4B 2720   0.489  14.894   7.411 -0.0063 -0.1352  0.2358
  171loPI    C1 2721  14.086   1.588   9.559  0.1369 -0.1333 -0.1196
  171loPI    C2 2722  14.234   1.554   9.928 -0.3829  0.2730  0.1404
  171loPI    C3 2723  13.921   1.331   9.817 -0.1882  0.1059 -0.0825
  171loPI   PO4 2724  14.308   1.529   9.383 -0.0177  0.1681 -0.4050
  171loPI   GL1 2725  14.266   1.303   8.975 -0.0442  0.0209  0.3616
  171loPI   GL2 2726  14.378   1.054   8.887 -0.1081 -0.1942 -0.0487
  171loPI   C1A 2727  14.367   1.485   8.628  0.1641  0.1452 -0.1060
  171loPI   C2A 2728  14.348   1.720   8.245  0.1199  0.1124  0.0984
  171loPI   C3A 2729  14.264   1.554   7.901  0.3500  0.2914 -0.1351
  171loPI   C4A 2730  13.884   1.561   7.547 -0.1493 -0.2287 -0.0064
  171loPI   C5A 2731  13.785   1.696   7.096 -0.3461  0.1688  0.2233
  171loPI   C6A 2732  13.546   1.361   6.864 -0.3903 -0.0754  0.3456
  171loPI   C1B 2733  14.229   1.010   8.468 -0.0316  0.0099 -0.3582
  171loPI   C2B 2734  14.191   0.942   8.108 -0.0727 -0.1234 -0.0933
  171loPI   C3B 2735  14.130   1.026   7.653  0.0084  0.1182  0.0675
  171loPI   C4B 2736  14.153   0.874   7.248  0.0888 -0.2583 -0.0172
  172loPI    C1 2737  10.591   4.220   9.507 -0.0631 -0.0303 -0.0893
  172loPI    C2 2738  10.486   3.840   9.438 -0.0495 -0.0084 -0.2340
  172loPI    C3 2739  10.599   3.953   9.804 -0.1296 -0.1258 -0.1726
  172loPI   PO4 2740  10.653   4.382   9.311 -0.0363  0.0533 -0.0827
  172loPI   GL1 2741  10.862   4.139   8.992  0.0245  0.1435 -0.2508
  172loPI   GL2 2742  10.946   4.503   8.826 -0.0758  0.1500 -0.2411
  172loPI   C1A 2743  10.793   4.172   8.529  0.0052  0.4205 -0.0098
  172loPI   C2A 2744  10.985   4.284   8.146  0.2075 -0.1011 -0.2698
  172loPI   C3A 2745  11.005   4.352   7.725  0.0489 -0.0102  0.2588
  172loPI   C4A 2746  10.984   4.612   7.380 -0.1464 -0.3086 -0.1912
  172loPI   C5A 2747  10.671   4.795   7.029 -0.1263  0.0914 -0.4055
  172loPI   C6A 2748  10.414   4.698   6.614  0.0830 -0.1977  0.0923
  172loPI   C1B 2749  10.992   4.794   8.504 -0.1082  0.1430  0.3022
  172loPI   C2B 2750  11.265   4.772   8.103  0.1591 -0.1246 -0.3035
  172loPI   C3B 2751  11.484   4.499   7.712  0.1755  0.1795 -0.1434
  172loPI   C4B 2752  11.527   4.406   7.290 -0.2249  0.2003 -0.0187
  173loPI    C1 2753  12.280  17.840   9.273 -0.0300 -0.1804 -0.1306
  173loPI    C2 2754  12.119  17.474   9.283  0.0113 -0.1974 -0.0810
  173loPI    C3 2755  12.455  17.550   9.485  0.0142 -0.1374 -0.1082
  173loPI   PO4 2756  12.210  18.001   9.086  0.0837 -0.5323 -0.0619
  173loPI   GL1 2757  11.885  17.851   8.815  0.1061 -0.0657  0.0664
  173loPI   GL2 2758  11.569  17.885   8.787  0.1521 -0.3008  0.0112
  173loPI   C1A 2759  12.024  17.830   8.356  0.0589 -0.1249  0.0101
  173loPI   C2A 2760  12.372  17.648   8.076 -0.2063  0.0838  0.0670
  173loPI   C3A 2761  12.318  17.795   7.653 -0.2163 -0.0267  0.4032
  173loPI   C4A 2762  12.196  17.847   7.120  0.0630 -0.0657 -0.0343
  173loPI   C5A 2763  12.123  17.635   6.707  0.1120 -0.2574 -0.0973
  173loPI   C6A 2764  11.863  17.528   6.364  0.3393  0.0750  0.2194
  173loPI   C1B 2765  11.479  17.799   8.400  0.0869 -0.1906 -0.0951
  173loPI   C2B 2766  11.524  17.767   7.904 -0.0882 -0.0287 -0.0500
  173loPI   C3B 2767  11.492  17.600   7.514 -0.3025  0.0519 -0.0483
  173loPI   C4B 2768  11.431  17.188   7.246  0.2162  0.2472 -0.0808
  174loPI    C1 2769  14.662   1.038   9.582 -0.2324  0.1776  0.1553
  174loPI    C2 2770  14.712   1.333   9.848  0.2323  0.2359  0.0128
  174loPI    C3 2771  14.809   0.958   9.945 -0.1472  0.1604  0.1173
  174loPI   PO4 2772  14.675   1.227   9.328  0.0228 -0.4456 -0.1351
  174loPI   GL1 2773  14.855   1.494   9.082  0.1352  0.2089 -0.1543
  174loPI   GL2 2774  14.646   1.767   8.898  0.3938  0.0154  0.0992
  174loPI   C1A 2775  15.159   1.548   8.809  0.1815 -0.0790 -0.0206
  174loPI   C2A 2776  15.290   1.679   8.444 -0.1443 -0.3908 -0.1326
  174loPI   C3A 2777  15.068   1.528   8.151 -0.1210  0.1782  0.2019
  174loPI   C4A 2778  15.038   1.466   7.760 -0.1267 -0.1698  0.0279
  174loPI   C5A 2779  15.010   1.160   7.476 -0.0319  0.1948 -0.0717
  174loPI   C6A 2780  15.176   0.821   7.359  0.0708  0.2309 -0.4742
  174loPI   C1B 2781  14.756   1.873   8.422  0.1261  0.4524  0.3243
  174loPI   C2B 2782  14.693   1.809   7.897 -0.1442 -0.0667 -0.2498
  174loPI   C3B 2783  14.711   1.759   7.478 -0.0822  0.1975  0.0315
  174loPI   C4B 2784  14.559   1.991   7.088 -0.0592 -0.0015  0.1054
  175loPI    C1 2785   5.504   0.887   9.403  0.0313 -0.0204  0.0038
  175loPI    C2 2786   5.662   0.524   9.456  0.1882  0.0586  0.0847
  175loPI    C3 2787   5.659   0.787   9.758  0.1130  0.1393  0.0143
  175loPI   PO4 2788   5.576   0.862   9.123 -0.4395  0.1693  0.1544
  175loPI   GL1 2789   5.358   0.763   8.767  0.2641 -0.1366  0.0047
  175loPI   GL2 2790   5.615   0.645   8.666 -0.2415 -0.2803 -0.2131
  175loPI   C1A 2791   5.312   0.901   8.364  0.0222 -0.0332 -0.1317
  175loPI   C2A 2792   5.428   0.904   7.883 -0.1570 -0.0267  0.0737
  175loPI   C3A 2793   5.334   0.806   7.398 -0.2167 -0.0868 -0.0782
  175loPI   C4A 2794   5.080   0.766   7.108  0.0652 -0.0100 -0.3076
  175loPI   C5A 2795   4.558   0.738   7.012  0.0307 -0.6523 -0.0546
  175loPI   C6A 2796   4.132   0.494   7.022 -0.0948  0.0400  0.2462
  175loPI   C1B 2797   5.679   0.603   8.179  0.2532 -0.0676  0.2638
  175loPI   C2B 2798   5.631   0.407   7.782 -0.0167 -0.0840 -0.3016
  175loPI   C3B 2799   5.642   0.345   7.325 -0.0681  0.1612  0.2328
  175loPI   C4B 2800   5.582   0.594   7.056 -0.3440  0.2313 -0.0910
  176loPI    C1 2801  16.096   5.540   9.982  0.0720 -0.0933  0.0125
  176loPI    C2 2802  16.453   5.425  10.122  0.0881  0.0938  0.1275
  176loPI    C3 2803  16.220   5.667  10.340  0.0412  0.2540 -0.0961
  176loPI   PO4 2804  16.017   5.382   9.844 -0.2797  0.3518  0.0781
  176loPI   GL1 2805  15.936   5.349   9.463 -0.0243  0.0729  0.2696
  176loPI   GL2 2806  16.121   5.509   9.334  0.2753  0.1858  0.3721
  176loPI   C1A 2807  15.752   5.271   9.054  0.0832 -0.0866  0.0219
  176loPI   C2A 2808  15.455   4.986   8.958 -0.1172 -0.1017  0.0706
  176loPI   C3A 2809  15.193   4.965   8.719  0.1732 -0.1792  0.2507
  176loPI   C4A 2810  15.046   5.109   8.385 -0.5093  0.3035 -0.2261
  176loPI   C5A 2811  14.878   5.123   8.128 -0.0507 -0.2041  0.2423
  176loPI   C6A 2812  14.869   5.184   7.760 -0.2763 -0.1965  0.0666
  176loPI   C1B 2813  16.401   5.598   8.917  0.1339  0.1328 -0.1274
  176loPI   C2B 2814  16.539   5.683   8.451 -0.1063 -0.2301 -0.0213
  176loPI   C3B 2815  16.716   5.832   8.076  0.1324 -0.0597 -0.0336
  176loPI   C4B 2816  16.580   5.846   7.609  0.1485 -0.0975  0.1522
  177loPI    C1 2817   2.967  10.561   9.175 -0.2275  0.1943 -0.1146
  177loPI    C2 2818   3.181  10.699   9.484 -0.0987  0.1709 -0.1923
  177loPI    C3 2819   2.802  10.582   9.539 -0.1128  0.2727 -0.0662
  177loPI   PO4 2820   3.000  10.767   9.022 -0.0490 -0.2380 -0.2981
  177loPI   GL1 2821   3.137  10.961   8.608 -0.0696  0.0408 -0.1519
  177loPI   GL2 2822   3.075  11.209   8.575  0.0313  0.2562  0.0194
  177loPI   C1A 2823   3.070  11.012   8.130 -0.0215  0.3014 -0.0504
  177loPI   C2A 2824   2.993  10.974   7.696  0.1994  0.0409 -0.1776
  177loPI   C3A 2825   2.921  11.041   7.299  0.1139  0.0378 -0.0890
  177loPI   C4A 2826   2.999  11.247   6.961 -0.1550  0.0924 -0.1764
  177loPI   C5A 2827   2.959  11.583   6.695  0.1538 -0.0729 -0.1807
  177loPI   C6A 2828   3.045  11.844   6.251  0.2265  0.0503 -0.0154
  177loPI   C1B 2829   2.678  11.242   8.313 -0.1986 -0.0291 -0.3348
  177loPI   C2B 2830   2.579  11.231   7.880 -0.0069  0.0051  0.1492
  177loPI   C3B 2831   2.501  11.117   7.512  0.0117  0.0406  0.1302
  177loPI   C4B 2832   2.314  11.006   7.104 -0.0305  0.0431  0.1615
  178loPI    C1 2833   6.590  10.729   9.370  0.2305  0.2508  0.0588
  178loPI    C2 2834   6.425  10.903   9.691  0.0523  0.1636  0.0160
  178loPI    C3 2835   6.210  10.649   9.469  0.2641  0.0027 -0.0075
  178loPI   PO4 2836   6.868  10.662   9.438 -0.0242 -0.0056  0.3091
  178loPI   GL1 2837   6.927  10.520   9.041  0.0805  0.3080 -0.2530
  178loPI   GL2 2838   6.865  10.225   8.975 -0.3941  0.1720 -0.1766
  178loPI   C1A 2839   6.829  10.647   8.655  0.0060  0.4249  0.1012
  178loPI   C2A 2840   6.901  10.450   8.291 -0.0076 -0.2723 -0.0049
  178loPI   C3A 2841   6.961  10.258   7.843  0.1669  0.0693 -0.2753
  178loPI   C4A 2842   7.034  10.064   7.444 -0.2810 -0.2302 -0.0101
  178loPI   C5A 2843   7.359  10.100   7.169 -0.2413  0.1147 -0.1278
  178loPI   C6A 2844   7.712   9.842   7.010  0.1915  0.3288  0.3021
  178loPI   C1B 2845   7.104  10.183   8.623  0.5022  0.1516  0.1076
  178loPI   C2B 2846   7.268  10.103   8.245 -0.0812  0.0610  0.2225
  178loPI   C3B 2847   7.419   9.963   7.842  0.1257  0.3620  0.0241
  178loPI   C4B 2848   7.425   9.708   7.475  0.0619  0.2147  0.0804
  179loPI    C1 2849   4.168  15.069   9.198 -0.2145 -0.1776  0.2547
  179loPI    C2 2850   4.537  15.059   9.354 -0.0789  0.0910 -0.0373
  179loPI    C3 2851   4.279  14.764   9.432  0.1853 -0.0831  0.1973
  179loPI   PO4 2852   4.251  15.123   8.913 -0.0691  0.0057 -0.1129
  179loPI   GL1 2853   4.380  14.964   8.537  0.1908 -0.0830 -0.1947
  179loPI   GL2 2854   4.755  15.082   8.428  0.0184  0.2048  0.0113
  179loPI   C1A 2855   4.096  14.682   8.249  0.0864  0.1118  0.0019
  179loPI   C2A 2856   3.931  14.674   7.810 -0.0630 -0.0581  0.4490
  179loPI   C3A 2857   3.915  14.704   7.316 -0.1366  0.1457  0.3588
  179loPI   C4A 2858   3.723  14.521   6.921  0.1838 -0.0420 -0.3211
  179loPI   C5A 2859   3.939  14.667   6.481  0.0319  0.0538 -0.0527
  179loPI   C6A 2860   3.756  14.942   6.136 -0.1850  0.1283  0.0742
  179loPI   C1B 2861   4.667  15.263   7.972  0.3194 -0.1259  0.1259
  179loPI   C2B 2862   4.672  15.448   7.571  0.0394  0.0866  0.0335
  179loPI   C3B 2863   4.728  15.518   7.130  0.3704  0.0759 -0.0813
  179loPI   C4B 2864   4.506  15.412   6.660  0.0365 -0.2067 -0.0268
  180loPI    C1 2865  12.026  12.604   9.610 -0.2591  0.3265  0.1821
  180loPI    C2 2866  11.908  12.329   9.876  0.4293 -0.0603  0.1089
  180loPI    C3 2867  11.978  12.704   9.995 -0.1873  0.0125  0.2760
  180loPI   PO4 2868  12.128  12.427   9.396 -0.0017 -0.2440  0.0028
  180loPI   GL1 2869  12.374  12.544   8.995 -0.2618  0.1824  0.0755
  180loPI   GL2 2870  12.033  12.618   8.826 -0.0543  0.2505  0.1550
  180loPI   C1A 2871  12.467  12.654   8.662 -0.1651 -0.0948 -0.1132
  180loPI   C2A 2872  12.452  12.646   8.353  0.0714  0.2336  0.0397
  180loPI   C3A 2873  12.572  12.797   8.001  0.0922  0.1413 -0.0192
  180loPI   C4A 2874  12.869  12.798   7.785  0.3251 -0.1488  0.2427
  180loPI   C5A 2875  13.119  12.900   7.449  0.0313  0.1384 -0.0130
  180loPI   C6A 2876  13.070  13.159   7.038 -0.2376  0.0690 -0.4823
  180loPI   C1B 2877  11.910  12.552   8.400 -0.0727 -0.0586 -0.0822
  180loPI   C2B 2878  12.013  12.527   8.041 -0.2561  0.2453 -0.0188
  180loPI   C3B 2879  12.066  12.719   7.648  0.1966  0.1613 -0.2790
  180loPI   C4B 2880  12.090  13.088   7.246  0.1227 -0.0647  0.1008
  181loPI    C1 2881   5.729  13.709   9.712 -0.0796  0.0378 -0.0323
  181loPI    C2 2882   5.695  13.766  10.106 -0.1386 -0.0323 -0.0271
  181loPI    C3 2883   5.372  13.677   9.888 -0.1213  0.0947 -0.1056
  181loPI   PO4 2884   5.811  13.521   9.588  0.1109 -0.0679  0.1470
  181loPI   GL1 2885   5.786  13.512   9.121  0.1777 -0.3716  0.1314
  181loPI   GL2 2886   6.045  13.768   9.133 -0.2619 -0.0878 -0.0121
  181loPI   C1A 2887   5.725  13.139   8.803  0.0688  0.2454  0.1067
  181loPI   C2A 2888   5.690  12.923   8.440  0.1953  0.1665 -0.2900
  181loPI   C3A 2889   5.831  13.006   7.995  0.0716 -0.0232 -0.0902
  181loPI   C4A 2890   5.852  12.980   7.477 -0.0034  0.0925 -0.0030
  181loPI   C5A 2891   5.877  12.761   7.060 -0.1279  0.1447 -0.1666
  181loPI   C6A 2892   5.771  12.869   6.668 -0.0080 -0.1088 -0.1949
  181loPI   C1B 2893   6.118  13.579   8.671  0.0365 -0.2333  0.0454
  181loPI   C2B 2894   6.019  13.409   8.350 -0.1698  0.0808  0.2155
  181loPI   C3B 2895   5.962  13.500   7.936 -0.0792  0.0291 -0.1320
  181loPI   C4B 2896   5.981  13.444   7.565 -0.1422 -0.2771  0.0154
  182loPI    C1 2897   0.704   9.292   8.858  0.0542 -0.1268  0.1773
  182loPI    C2 2898   0.357   9.174   9.017  0.0806 -0.1257  0.2361
  182loPI    C3 2899   0.568   9.466   9.191 -0.0897  0.1603 -0.0264
  182loPI   PO4 2900   0.820   9.073   8.804  0.2387 -0.1666  0.2282
  182loPI   GL1 2901   0.690   8.727   8.603 -0.1659 -0.3012 -0.1118
  182loPI   GL2 2902   1.131   8.735   8.640 -0.0873  0.0418 -0.2642
  182loPI   C1A 2903   0.725   8.696   8.187  0.1370  0.3081 -0.0568
  182loPI   C2A 2904   0.511   8.749   7.836  0.0033  0.1237  0.1775
  182loPI   C3A 2905   0.163   8.733   7.587 -0.2269  0.0373 -0.0006
  182loPI   C4A 2906  -0.056   8.614   7.248 -0.0812  0.0434 -0.1098
  182loPI   C5A 2907  -0.529   8.599   7.144  0.0197 -0.1023  0.0056
  182loPI   C6A 2908  -0.959   8.798   7.041 -0.0625 -0.2250 -0.0213
  182loPI   C1B 2909   1.023   8.321   8.396 -0.1014 -0.2487  0.3323
  182loPI   C2B 2910   0.783   8.316   7.900  0.2315 -0.2765  0.3253
  182loPI   C3B 2911   0.384   8.240   7.868  0.0213  0.1539 -0.1241
  182loPI   C4B 2912   0.014   8.342   7.860  0.0215 -0.1066  0.1667
  183loPI    C1 2913  14.755   3.743  10.126 -0.1885  0.0951 -0.1374
  183loPI    C2 2914  14.420   3.627  10.312  0.1215 -0.2652  0.2160
  183loPI    C3 2915  14.666   3.889  10.488 -0.0635  0.1546 -0.1303
  183loPI   PO4 2916  14.776   3.562   9.938  0.1836 -0.1430 -0.0708
  183loPI   GL1 2917  14.784   3.619   9.580 -0.2914  0.0550  0.2831
  183loPI   GL2 2918  15.107   3.818   9.573  0.0249 -0.1740 -0.0395
  183loPI   C1A 2919  14.841   3.615   9.203 -0.3369  0.0595  0.0582
  183loPI   C2A 2920  14.900   3.766   8.750  0.0079  0.0303  0.1433
  183loPI   C3A 2921  14.761   3.951   8.333 -0.0299  0.3821  0.3682
  183loPI   C4A 2922  14.724   4.212   8.101 -0.2098 -0.1110  0.1247
  183loPI   C5A 2923  14.805   4.521   7.656 -0.0997 -0.3170 -0.4042
  183loPI   C6A 2924  14.474   4.416   7.334  0.1420 -0.1732 -0.0835
  183loPI   C1B 2925  15.057   4.130   9.191 -0.1420  0.2145 -0.1798
  183loPI   C2B 2926  15.181   4.475   9.027 -0.0909 -0.0654  0.1948
  183loPI   C3B 2927  15.386   4.513   8.565 -0.0372  0.0492 -0.0581
  183loPI   C4B 2928  15.243   4.614   8.084  0.0733 -0.0055  0.3488
  184loPI    C1 2929   6.704   5.921   9.613 -0.1342 -0.0749 -0.2007
  184loPI    C2 2930   6.533   6.262   9.733  0.1062  0.0021 -0.0701
  184loPI    C3 2931   6.724   6.031   9.997 -0.0188 -0.2142 -0.1662
  184loPI   PO4 2932   6.718   6.023   9.257 -0.0969 -0.0894  0.0057
  184loPI   GL1 2933   7.004   6.042   8.985 -0.4085 -0.1450 -0.2455
  184loPI   GL2 2934   7.272   6.157   9.128 -0.0172 -0.0602 -0.1192
  184loPI   C1A 2935   7.083   6.230   8.633 -0.0958  0.1027  0.1573
  184loPI   C2A 2936   6.959   6.194   8.273 -0.2358  0.0152  0.0217
  184loPI   C3A 2937   6.999   5.861   7.960  0.1256  0.1808  0.1207
  184loPI   C4A 2938   6.819   5.498   7.700  0.3212 -0.0645  0.1030
  184loPI   C5A 2939   6.499   5.592   7.333  0.0269  0.0817  0.3488
  184loPI   C6A 2940   6.514   5.792   7.001 -0.0960  0.1975  0.0759
  184loPI   C1B 2941   7.520   6.034   8.789  0.2184  0.0507 -0.1711
  184loPI   C2B 2942   7.820   6.168   8.483  0.1269 -0.0812 -0.0232
  184loPI   C3B 2943   7.886   6.018   8.112 -0.3557 -0.0231 -0.0516
  184loPI   C4B 2944   8.234   5.923   7.817 -0.2076  0.0400 -0.3125
  185loPI    C1 2945  18.578  16.753  10.005  0.1784 -0.1605  0.1003
  185loPI    C2 2946  18.697  16.605  10.357  0.1253 -0.0720  0.1555
  185loPI    C3 2947  18.867  16.936  10.212  0.0261 -0.0089  0.1813
  185loPI   PO4 2948  18.364  16.784   9.896  0.2488 -0.1541 -0.1102
  185loPI   GL1 2949  18.233  16.866   9.446  0.0011  0.0584 -0.0728
  185loPI   GL2 2950  18.247  17.265   9.357 -0.1389  0.0959 -0.2026
  185loPI   C1A 2951  18.310  16.812   9.026 -0.0068 -0.4588 -0.0399
  185loPI   C2A 2952  18.296  16.691   8.609 -0.0258 -0.0550 -0.0918
  185loPI   C3A 2953  18.166  16.781   8.238 -0.1841 -0.3759  0.1682
  185loPI   C4A 2954  18.158  16.595   7.692 -0.0411  0.0613  0.1924
  185loPI   C5A 2955  18.017  16.809   7.417  0.0351 -0.2119  0.0281
  185loPI   C6A 2956  17.874  17.176   7.111  0.1175 -0.3286 -0.1463
  185loPI   C1B 2957  18.128  17.516   9.034  0.0725 -0.4901  0.0692
  185loPI   C2B 2958  18.312  17.625   8.641  0.0955  0.0855  0.0013
  185loPI   C3B 2959  18.285  17.683   8.130 -0.0700 -0.3032 -0.2175
  185loPI   C4B 2960  18.366  17.616   7.719  0.0068  0.1754 -0.0282
  186loPI    C1 2961  12.260  19.008   9.430  0.0161  0.0566 -0.0482
  186loPI    C2 2962  12.562  19.086   9.681  0.0166  0.1017 -0.0629
  186loPI    C3 2963  12.186  19.083   9.816  0.0170  0.1245 -0.0612
  186loPI   PO4 2964  12.276  19.062   9.193  0.0245 -0.3185  0.1141
  186loPI   GL1 2965  12.168  19.044   8.877 -0.0025  0.2682 -0.1315
  186loPI   GL2 2966  11.877  18.834   8.727 -0.1932 -0.3192  0.1419
  186loPI   C1A 2967  12.144  19.274   8.484  0.3738 -0.0752  0.2932
  186loPI   C2A 2968  12.282  19.511   8.137  0.1731 -0.1476  0.1426
  186loPI   C3A 2969  12.710  19.616   7.763 -0.0793 -0.1823 -0.0489
  186loPI   C4A 2970  12.866  19.836   7.423 -0.2081 -0.2919 -0.2628
  186loPI   C5A 2971  12.873  20.022   7.087 -0.0150 -0.1278  0.0267
  186loPI   C6A 2972  12.976  20.417   6.974  0.0482 -0.0370  0.1715
  186loPI   C1B 2973  11.921  18.774   8.292  0.0427  0.0686  0.0323
  186loPI   C2B 2974  12.076  18.616   7.877 -0.2344 -0.0035 -0.0046
  186loPI   C3B 2975  11.988  18.550   7.461  0.0262 -0.0134  0.2428
  186loPI   C4B 2976  11.732  18.340   7.134 -0.4081 -0.1615  0.1192
  187loPI    C1 2977  19.324   4.142   9.096 -0.2122 -0.0268 -0.0495
  187loPI    C2 2978  19.180   4.324   9.421 -0.0810  0.3574 -0.1998
  187loPI    C3 2979  19.544   4.159   9.429 -0.3080 -0.1580  0.0216
  187loPI   PO4 2980  19.113   4.192   8.918 -0.1227 -0.0465 -0.2660
  187loPI   GL1 2981  18.923   4.068   8.624 -0.1133 -0.0360 -0.1506
  187loPI   GL2 2982  18.651   4.119   8.694  0.0028 -0.0009  0.0280
  187loPI   C1A 2983  18.857   4.275   8.241  0.0683  0.0761  0.0104
  187loPI   C2A 2984  18.921   4.136   7.877  0.1308  0.4478  0.1178
  187loPI   C3A 2985  19.232   4.140   7.497  0.0342 -0.1660  0.1614
  187loPI   C4A 2986  19.228   3.915   7.214  0.1854 -0.1101 -0.1093
  187loPI   C5A 2987  19.423   3.578   6.996 -0.1485 -0.0180  0.0493
  187loPI   C6A 2988  19.472   3.357   6.611 -0.1145  0.4523 -0.3363
  187loPI   C1B 2989  18.469   3.875   8.307 -0.0440 -0.1281  0.2292
  187loPI   C2B 2990  18.344   3.680   7.997 -0.1910  0.0012 -0.1248
  187loPI   C3B 2991  18.387   3.339   7.684 -0.0117  0.0513 -0.2664
  187loPI   C4B 2992  18.653   3.358   7.357  0.1263 -0.1364 -0.0264
  188loPI    C1 2993   1.614  16.179   9.349 -0.0464  0.0425 -0.0675
  188loPI    C2 2994   1.586  16.546   9.507  0.1811  0.0203  0.0275
  188loPI    C3 2995   1.716  16.240   9.731  0.2896 -0.0565 -0.1383
  188loPI   PO4 2996   1.379  16.147   9.124  0.1818  0.1337 -0.1050
  188loPI   GL1 2997   1.363  15.934   8.720  0.1621  0.1129  0.1875
  188loPI   GL2 2998   1.148  15.818   8.781 -0.0634  0.1937  0.0439
  188loPI   C1A 2999   1.291  16.050   8.335 -0.0137 -0.0694  0.3605
  188loPI   C2A 3000   1.235  15.942   7.862 -0.1544 -0.0240  0.2229
  188loPI   C3A 3001   1.069  15.681   7.480 -0.0340  0.4714  0.1155
  188loPI   C4A 3002   1.081  15.623   7.036  0.3300 -0.2566 -0.3770
  188loPI   C5A 3003   1.000  15.325   6.798 -0.1582  0.0497  0.0981
  188loPI   C6A 3004   1.049  15.031   6.397  0.2106  0.1131 -0.1647
  188loPI   C1B 3005   1.341  15.546   8.410  0.0994  0.0716 -0.0939
  188loPI   C2B 3006   1.181  15.465   7.986  0.2053  0.4467 -0.2834
  188loPI   C3B 3007   1.327  15.293   7.636 -0.2805  0.1009 -0.0447
  188loPI   C4B 3008   1.349  15.050   7.274 -0.1797 -0.1162 -0.0245
  189loPI    C1 3009  11.098  15.743   9.549 -0.3172 -0.2846 -0.0609
  189loPI    C2 3010  11.384  15.532   9.732  0.1288  0.1781 -0.2015
  189loPI    C3 3011  11.046  15.620   9.926  0.1108 -0.2985 -0.0017
  189loPI   PO4 3012  11.271  15.961   9.349 -0.1223 -0.1750 -0.0527
  189loPI   GL1 3013  11.604  16.071   9.007 -0.0718 -0.3714 -0.1209
  189loPI   GL2 3014  11.910  15.967   9.000  0.3620 -0.1832  0.1211
  189loPI   C1A 3015  11.229  16.143   8.611 -0.2276 -0.0682 -0.2512
  189loPI   C2A 3016  11.127  16.273   8.266 -0.1448 -0.1001  0.1855
  189loPI   C3A 3017  11.248  16.277   7.740  0.0719  0.1625 -0.0987
  189loPI   C4A 3018  11.326  16.347   7.303 -0.1053  0.2032  0.1332
  189loPI   C5A 3019  11.480  16.400   6.994  0.1976 -0.2358  0.0568
  189loPI   C6A 3020  11.801  16.166   6.909 -0.0500  0.0406  0.4702
  189loPI   C1B 3021  11.767  15.888   8.585  0.1464  0.2152 -0.2168
  189loPI   C2B 3022  11.660  16.160   8.204 -0.0465  0.0846  0.0947
  189loPI   C3B 3023  11.804  16.150   7.796 -0.0847  0.3481  0.3485
  189loPI   C4B 3024  11.965  16.310   7.399 -0.0836  0.2387 -0.0590
  190loPI    C1 3025  13.430  16.067   9.545 -0.1447 -0.0145 -0.1494
  190loPI    C2 3026  13.490  15.818   9.853 -0.1434 -0.0442 -0.1737
  190loPI    C3 3027  13.622  16.195   9.872  0.0751 -0.1162 -0.2367
  190loPI   PO4 3028  13.494  15.894   9.367  0.1606 -0.3064  0.1321
  190loPI   GL1 3029  13.531  16.059   8.987  0.0698 -0.0317  0.0073
  190loPI   GL2 3030  13.830  15.898   8.924 -0.1211  0.2076 -0.0799
  190loPI   C1A 3031  13.466  16.029   8.538  0.1394 -0.0957  0.0220
  190loPI   C2A 3032  13.584  16.111   8.057 -0.0765  0.1928 -0.0764
  190loPI   C3A 3033  13.815  16.229   7.711  0.0609  0.1970  0.0324
  190loPI   C4A 3034  14.014  16.401   7.179 -0.0512  0.1545 -0.1944
  190loPI   C5A 3035  14.474  16.276   6.951 -0.2035 -0.0075  0.0771
  190loPI   C6A 3036  14.620  15.888   6.805 -0.0337  0.0244 -0.5160
  190loPI   C1B 3037  13.946  15.912   8.526 -0.5357 -0.3553  0.1248
  190loPI   C2B 3038  14.053  15.883   8.028 -0.0095 -0.1974  0.1134
  190loPI   C3B 3039  14.186  15.764   7.607 -0.0599  0.0496  0.0132
  190loPI   C4B 3040  14.282  15.762   7.171  0.4516 -0.0763 -0.0015
  191loPI    C1 3041  17.084  12.350   9.919  0.2364  0.0004  0.1740
  191loPI    C2 3042  17.395  12.329  10.169  0.2097 -0.1995  0.1917
  191loPI    C3 3043  17.132  12.028  10.151  0.0301 -0.0417  0.1598
  191loPI   PO4 3044  17.184  12.493   9.724 -0.3153 -0.3238 -0.4914
  191loPI   GL1 3045  17.196  12.706   9.261  0.1173 -0.0899 -0.4174
  191loPI   GL2 3046  17.030  12.525   9.172 -0.0576  0.0215 -0.2483
  191loPI   C1A 3047  17.149  12.885   8.810 -0.2176 -0.2507  0.2632
  191loPI   C2A 3048  17.046  12.738   8.301  0.2781 -0.0958 -0.1402
  191loPI   C3A 3049  16.791  12.588   8.005  0.1159  0.0209 -0.0459
  191loPI   C4A 3050  16.855  12.412   7.455  0.0180  0.1809  0.1470
  191loPI   C5A 3051  16.546  12.543   7.077 -0.1464 -0.2188  0.0716
  191loPI   C6A 3052  16.044  12.455   6.893 -0.2366 -0.4265  0.1235
  191loPI   C1B 3053  16.678  12.585   8.813  0.0370  0.1177  0.1263
  191loPI   C2B 3054  16.537  12.805   8.489 -0.1792 -0.1045  0.3072
  191loPI   C3B 3055  16.253  12.920   8.341 -0.1395  0.0509  0.0737
  191loPI   C4B 3056  15.865  13.087   8.184  0.4736  0.1131  0.0759
  192loPI    C1 3057  14.726  19.455   9.861 -0.4167  0.2779 -0.0609
  192loPI    C2 3058  14.468  19.419  10.166 -0.2145  0.5656  0.1499
  192loPI    C3 3059  14.836  19.562  10.231 -0.0373  0.2696 -0.1678
  192loPI   PO4 3060  14.579  19.564   9.583  0.1135  0.2755  0.2092
  192loPI   GL1 3061  14.358  19.731   9.229 -0.1260 -0.1763  0.0319
  192loPI   GL2 3062  14.489  19.989   8.983 -0.0667  0.0909 -0.0277
  192loPI   C1A 3063  14.371  19.562   8.790  0.2123  0.2125 -0.0958
  192loPI   C2A 3064  14.541  19.474   8.363 -0.1272  0.1232  0.4484
  192loPI   C3A 3065  14.575  19.326   8.045  0.1384  0.2834 -0.1798
  192loPI   C4A 3066  14.603  19.301   7.592  0.0099  0.1681 -0.0359
  192loPI   C5A 3067  14.275  19.346   7.474  0.0710  0.3280  0.0935
  192loPI   C6A 3068  13.806  19.441   7.495  0.0148  0.2352  0.0529
  192loPI   C1B 3069  14.838  19.739   8.863  0.1503  0.0840 -0.0304
  192loPI   C2B 3070  14.986  19.315   8.704 -0.4404 -0.1718  0.1401
  192loPI   C3B 3071  15.091  19.138   8.209  0.4359 -0.0003  0.0660
  192loPI   C4B 3072  15.286  18.929   7.848  0.3548  0.2493 -0.0463
  193loPI    C1 3073  12.682  11.865   9.535  0.0145 -0.0807  0.1824
  193loPI    C2 3074  13.015  11.879   9.756  0.0840 -0.1812  0.0859
  193loPI    C3 3075  12.675  11.738   9.914  0.1188 -0.1991  0.1452
  193loPI   PO4 3076  12.832  11.754   9.200 -0.4341 -0.3472  0.2191
  193loPI   GL1 3077  12.740  11.676   8.777  0.0489 -0.0090  0.0951
  193loPI   GL2 3078  12.443  11.750   8.698  0.1861 -0.1800 -0.0536
  193loPI   C1A 3079  12.977  11.316   8.494  0.1252 -0.4403  0.2675
  193loPI   C2A 3080  13.055  11.256   8.114 -0.0516 -0.0843  0.0741
  193loPI   C3A 3081  13.100  11.430   7.600  0.1673 -0.1740  0.1433
  193loPI   C4A 3082  13.396  11.348   7.322 -0.2723  0.4816  0.1540
  193loPI   C5A 3083  13.624  11.634   7.218 -0.2927 -0.2073 -0.0327
  193loPI   C6A 3084  13.903  11.952   6.973  0.1277  0.2669  0.3843
  193loPI   C1B 3085  12.567  11.551   8.290 -0.0718  0.0794 -0.3062
  193loPI   C2B 3086  12.618  11.394   7.936 -0.1308  0.0202  0.1268
  193loPI   C3B 3087  12.559  11.450   7.545 -0.0592 -0.0659  0.1667
  193loPI   C4B 3088  12.574  11.653   7.163  0.1364 -0.3273  0.3532
  194loPI    C1 3089   3.508   9.180   9.384 -0.0215 -0.1451  0.0732
  194loPI    C2 3090   3.220   9.124   9.657 -0.1793  0.2043 -0.0160
  194loPI    C3 3091   3.605   9.106   9.765 -0.2381  0.1250  0.1842
  194loPI   PO4 3092   3.354   9.284   9.105  0.1671  0.1849 -0.2287
  194loPI   GL1 3093   3.305   9.387   8.664  0.0367 -0.0531 -0.0651
  194loPI   GL2 3094   3.145   9.169   8.314  0.4096 -0.0138  0.0988
  194loPI   C1A 3095   3.182   9.627   8.242  0.2195  0.0407  0.2220
  194loPI   C2A 3096   2.839   9.682   7.948 -0.1250  0.1357  0.2274
  194loPI   C3A 3097   2.658   9.488   7.624  0.0823  0.2803  0.2450
  194loPI   C4A 3098   2.670   9.153   7.296 -0.1730 -0.0838  0.1632
  194loPI   C5A 3099   2.673   9.107   6.910  0.0846  0.0818 -0.1752
  194loPI   C6A 3100   2.629   9.332   6.559 -0.2038 -0.1830  0.3927
  194loPI   C1B 3101   3.315   9.188   7.945 -0.0445 -0.0320  0.1422
  194loPI   C2B 3102   3.141   9.097   7.596  0.0276  0.0753  0.3761
  194loPI   C3B 3103   3.150   9.207   7.117  0.1148  0.0417 -0.0239
  194loPI   C4B 3104   3.145   9.281   6.647 -0.3020  0.0911 -0.0813
  195loPI    C1 3105   6.574  14.566   9.307 -0.0470 -0.0842 -0.1745
  195loPI    C2 3106   6.769  14.216   9.304 -0.0899 -0.1079 -0.2440
  195loPI    C3 3107   6.591  14.344   9.639  0.1398 -0.0326 -0.1485
  195loPI   PO4 3108   6.815  14.738   9.157 -0.1539  0.1398  0.4125
  195loPI   GL1 3109   7.040  14.395   8.876 -0.0618  0.2610 -0.1686
  195loPI   GL2 3110   6.775  14.262   8.806 -0.2026  0.0020 -0.0008
  195loPI   C1A 3111   7.042  14.618   8.556 -0.0106  0.1089  0.4204
  195loPI   C2A 3112   6.654  14.794   8.349 -0.1131  0.1905  0.2342
  195loPI   C3A 3113   6.469  14.781   7.909  0.2332  0.0090 -0.3885
  195loPI   C4A 3114   6.370  14.488   7.561 -0.1416 -0.0435 -0.2810
  195loPI   C5A 3115   6.466  14.231   7.199 -0.0557  0.1086  0.3774
  195loPI   C6A 3116   6.882  14.188   7.042  0.2017 -0.1674 -0.1231
  195loPI   C1B 3117   6.669  14.277   8.489 -0.1082 -0.2499 -0.2240
  195loPI   C2B 3118   6.563  14.311   8.042  0.2415 -0.0007  0.0566
  195loPI   C3B 3119   6.807  14.300   7.629  0.2898 -0.1047  0.0376
  195loPI   C4B 3120   6.785  14.671   7.262 -0.2156  0.1583  0.0310
  196loPI    C1 3121  14.993   2.651  10.064 -0.0944  0.0054  0.1065
  196loPI    C2 3122  14.915   2.732  10.448 -0.1097 -0.2846  0.1674
  196loPI    C3 3123  14.961   2.353  10.329  0.3727 -0.1726 -0.0270
  196loPI   PO4 3124  14.883   2.743   9.933 -0.1049 -0.0911 -0.1335
  196loPI   GL1 3125  15.007   2.697   9.451 -0.0388  0.0170 -0.2230
  196loPI   GL2 3126  14.798   2.698   9.149  0.0243  0.1066  0.1752
  196loPI   C1A 3127  15.286   2.971   9.186  0.0444 -0.2181  0.2552
  196loPI   C2A 3128  15.061   3.264   8.997  0.1286 -0.1405  0.4325
  196loPI   C3A 3129  14.892   3.301   8.594 -0.2129  0.2761 -0.2059
  196loPI   C4A 3130  15.039   3.036   8.348 -0.1845  0.2537  0.4414
  196loPI   C5A 3131  15.112   2.764   8.028  0.0880  0.1779  0.0377
  196loPI   C6A 3132  14.923   2.678   7.742 -0.2276  0.1794 -0.2171
  196loPI   C1B 3133  14.958   2.708   8.754  0.1201 -0.0305 -0.2687
  196loPI   C2B 3134  14.886   2.452   8.381  0.1408 -0.1129  0.2054
  196loPI   C3B 3135  14.938   2.185   8.054 -0.3640  0.2467  0.1095
  196loPI   C4B 3136  15.203   2.131   7.671 -0.1241  0.0342 -0.0706
  197loPI    C1 3137  19.099   5.315   9.657  0.0705 -0.0034 -0.1863
  197loPI    C2 3138  19.204   4.937   9.736  0.0381  0.0953  0.3675
  197loPI    C3 3139  19.472   5.231   9.773  0.1551  0.1012 -0.3778
  197loPI   PO4 3140  18.957   5.265   9.415 -0.1732  0.4073 -0.3773
  197loPI   GL1 3141  18.763   5.528   9.085 -0.0318 -0.0020  0.2538
  197loPI   GL2 3142  18.532   5.326   8.986 -0.1866 -0.2341  0.0353
  197loPI   C1A 3143  18.969   5.620   8.676  0.0529 -0.2460  0.1825
  197loPI   C2A 3144  18.808   5.579   8.329  0.1245 -0.1088  0.2191
  197loPI   C3A 3145  18.686   5.266   8.010 -0.4150 -0.2360 -0.1574
  197loPI   C4A 3146  18.516   5.077   7.661  0.0554 -0.0232 -0.0008
  197loPI   C5A 3147  18.370   4.728   7.263 -0.1006 -0.1002 -0.1877
  197loPI   C6A 3148  18.492   4.551   6.877  0.2115  0.0569  0.2061
  197loPI   C1B 3149  18.462   5.278   8.503 -0.0212  0.0776  0.4961
  197loPI   C2B 3150  18.178   5.107   8.073  0.2139 -0.0782  0.0488
  197loPI   C3B 3151  17.771   4.918   7.971  0.1658  0.1803 -0.1595
  197loPI   C4B 3152  17.562   4.631   7.792  0.1237  0.1383  0.0723
  198loPI    C1 3153  18.357   4.273   9.090  0.1418 -0.0954  0.1533
  198loPI    C2 3154  18.725   4.348   9.226  0.1557 -0.1594  0.1509
  198loPI    C3 3155  18.407   4.480   9.428  0.1788 -0.1593  0.1871
  198loPI   PO4 3156  18.333   3.950   9.062  0.1022 -0.1079 -0.0506
  198loPI   GL1 3157  18.304   3.665   8.792 -0.1766  0.3128  0.1935
  198loPI   GL2 3158  17.945   3.654   8.760 -0.2042 -0.3878 -0.0580
  198loPI   C1A 3159  18.138   3.465   8.349 -0.0112  0.1683  0.0745
  198loPI   C2A 3160  17.961   3.411   7.931 -0.4629  0.1629 -0.3236
  198loPI   C3A 3161  17.952   3.496   7.470 -0.1070 -0.3012 -0.2773
  198loPI   C4A 3162  17.689   3.734   7.218 -0.0634 -0.1480  0.1048
  198loPI   C5A 3163  17.602   3.748   6.747 -0.3528 -0.0659 -0.3793
  198loPI   C6A 3164  17.212   3.658   6.375  0.0990 -0.0347 -0.3013
  198loPI   C1B 3165  17.664   3.445   8.538 -0.1392  0.0606  0.0396
  198loPI   C2B 3166  17.407   3.299   8.175 -0.4001  0.1500  0.1344
  198loPI   C3B 3167  17.128   3.333   7.759  0.1959 -0.1641  0.0986
  198loPI   C4B 3168  16.875   3.429   7.379  0.0825 -0.0413 -0.0363
  199loPI    C1 3169  19.183   2.838   9.546  0.0185  0.0563  0.0450
  199loPI    C2 3170  19.110   2.554   9.818 -0.1886  0.1343  0.0725
  199loPI    C3 3171  19.459   2.750   9.823 -0.0240 -0.1516  0.0229
  199loPI   PO4 3172  19.130   2.710   9.313 -0.1435  0.1453  0.0790
  199loPI   GL1 3173  18.870   2.831   8.969 -0.1594  0.1684  0.0297
  199loPI   GL2 3174  18.844   2.521   8.919 -0.1650 -0.0677  0.1444
  199loPI   C1A 3175  18.771   2.869   8.579 -0.0306  0.2058  0.1703
  199loPI   C2A 3176  18.920   2.732   8.127  0.2313  0.2459  0.0316
  199loPI   C3A 3177  18.756   2.584   7.780  0.0524 -0.0477  0.0543
  199loPI   C4A 3178  18.675   2.571   7.326  0.0150  0.3020  0.1442
  199loPI   C5A 3179  18.371   2.649   6.929 -0.4137 -0.3606  0.0669
  199loPI   C6A 3180  17.924   2.732   7.122 -0.0147 -0.3697 -0.0905
  199loPI   C1B 3181  18.870   2.278   8.588 -0.1462 -0.1311 -0.1516
  199loPI   C2B 3182  18.894   2.165   8.230 -0.4792  0.0405 -0.1757
  199loPI   C3B 3183  18.825   2.021   7.846  0.0621 -0.0673  0.1694
  199loPI   C4B 3184  18.632   2.057   7.482  0.0752  0.0311  0.2345
  200loPI    C1 3185   1.807  19.502   9.510 -0.0003  0.0275 -0.0445
  200loPI    C2 3186   1.711  19.242   9.798 -0.0742 -0.3055 -0.3620
  200loPI    C3 3187   1.423  19.410   9.577 -0.0352  0.1404 -0.0871
  200loPI   PO4 3188   1.975  19.339   9.317 -0.0406 -0.1339  0.1121
  200loPI   GL1 3189   1.745  19.319   8.814  0.1820  0.3174  0.2857
  200loPI   GL2 3190   1.873  19.624   8.647  0.1966  0.1594 -0.1071
  200loPI   C1A 3191   1.634  19.147   8.470 -0.3831  0.0042  0.2283
  200loPI   C2A 3192   1.741  19.146   7.978 -0.1413 -0.1054 -0.2109
  200loPI   C3A 3193   1.625  19.070   7.463  0.2417  0.1826 -0.0636
  200loPI   C4A 3194   1.579  18.666   7.219  0.2762 -0.2805 -0.2212
  200loPI   C5A 3195   1.655  18.391   6.977 -0.2020 -0.0787 -0.0712
  200loPI   C6A 3196   1.509  18.235   6.641 -0.0968  0.0311 -0.1390
  200loPI   C1B 3197   1.780  19.573   8.230  0.3073  0.2156 -0.1309
  200loPI   C2B 3198   1.598  19.584   7.809  0.0371  0.0544 -0.1286
  200loPI   C3B 3199   1.497  19.691   7.413 -0.0544 -0.1752  0.2582
  200loPI   C4B 3200   1.499  19.711   6.920  0.0441  0.0822 -0.0868
  201loPI    C1 3201  10.543  17.986   9.505 -0.2978  0.0393  0.2083
  201loPI    C2 3202  10.661  18.212   9.813  0.0193  0.1289  0.0251
  201loPI    C3 3203  10.432  17.891   9.878 -0.3330  0.4260  0.3005
  201loPI   PO4 3204  10.813  17.920   9.308  0.1782  0.3108  0.0164
  201loPI   GL1 3205  11.026  17.816   8.858 -0.1016  0.0063 -0.0050
  201loPI   GL2 3206  11.088  17.582   8.605 -0.1392 -0.1225  0.2994
  201loPI   C1A 3207  11.042  18.124   8.532 -0.1621  0.1167 -0.1270
  201loPI   C2A 3208  11.174  18.163   8.104 -0.2629  0.2209 -0.1760
  201loPI   C3A 3209  11.257  18.039   7.628 -0.0889 -0.1252 -0.1166
  201loPI   C4A 3210  11.345  18.065   7.157  0.2548  0.0425  0.1860
  201loPI   C5A 3211  11.682  17.770   6.954  0.0188 -0.0254  0.0966
  201loPI   C6A 3212  11.731  17.324   6.859 -0.1743  0.0975 -0.0713
  201loPI   C1B 3213  11.040  17.681   8.208 -0.0027 -0.1057  0.3119
  201loPI   C2B 3214  10.995  17.606   7.836 -0.0031 -0.1742  0.2178
  201loPI   C3B 3215  11.000  17.643   7.401  0.0251 -0.0081 -0.0331
  201loPI   C4B 3216  11.252  17.621   7.048  0.0988 -0.0082  0.2238
  202loPI    C1 3217   6.130  14.642   9.384  0.0941 -0.1923 -0.0704
  202loPI    C2 3218   5.996  14.963   9.581  0.2253 -0.0947 -0.1389
  202loPI    C3 3219   5.760  14.644   9.535  0.0685  0.0197 -0.1333
  202loPI   PO4 3220   6.134  14.674   9.079  0.1858 -0.0950  0.2648
  202loPI   GL1 3221   6.305  14.747   8.756  0.0552 -0.0128  0.1651
  202loPI   GL2 3222   6.593  15.018   8.777  0.0640  0.2593 -0.0137
  202loPI   C1A 3223   6.197  14.620   8.403  0.0041 -0.0093 -0.0510
  202loPI   C2A 3224   6.105  14.467   8.032 -0.2723 -0.2388 -0.0989
  202loPI   C3A 3225   5.959  14.273   7.609  0.0413  0.1469  0.1682
  202loPI   C4A 3226   5.994  14.366   7.187  0.0131 -0.1597 -0.0168
  202loPI   C5A 3227   6.242  14.478   6.838 -0.0790 -0.0944  0.1989
  202loPI   C6A 3228   6.143  14.389   6.405 -0.3018  0.2480  0.0333
  202loPI   C1B 3229   6.334  15.136   8.353  0.2197 -0.5118 -0.1904
  202loPI   C2B 3230   6.110  15.129   7.958 -0.0577  0.1055 -0.2304
  202loPI   C3B 3231   6.123  14.985   7.600  0.0108  0.0414  0.1030
  202loPI   C4B 3232   6.182  14.815   7.226  0.3042  0.0474  0.3240
  203loPI    C1 3233  15.939   4.274   9.972 -0.1188  0.0509 -0.0879
  203loPI    C2 3234  16.278   4.411  10.133 -0.1390  0.1584 -0.1365
  203loPI    C3 3235  15.944   4.396  10.352  0.0275 -0.4933  0.0942
  203loPI   PO4 3236  15.855   4.363   9.758  0.1874  0.0342 -0.1852
  203loPI   GL1 3237  15.894   4.266   9.349  0.2122 -0.0440  0.1400
  203loPI   GL2 3238  16.009   4.551   9.241  0.0216  0.0660  0.1889
  203loPI   C1A 3239  15.671   4.180   9.067  0.0732 -0.3981 -0.1277
  203loPI   C2A 3240  15.379   4.015   8.680  0.2827 -0.2098 -0.2977
  203loPI   C3A 3241  15.246   4.144   8.230 -0.2041 -0.0855  0.1264
  203loPI   C4A 3242  15.174   4.154   7.790 -0.1017  0.0462  0.0707
  203loPI   C5A 3243  15.272   4.440   7.580 -0.1184  0.0013  0.1324
  203loPI   C6A 3244  15.113   4.814   7.453 -0.0975 -0.3625 -0.1432
  203loPI   C1B 3245  15.959   4.542   8.819  0.1658 -0.3237 -0.0019
  203loPI   C2B 3246  15.786   4.869   8.567  0.1419  0.1037 -0.1369
  203loPI   C3B 3247  16.006   4.993   8.237  0.1526  0.1489 -0.0157
  203loPI   C4B 3248  16.133   4.867   7.756  0.0864 -0.0260  0.0129
  204loPI    C1 3249   2.245   6.204   9.011 -0.1367  0.1850 -0.1554
  204loPI    C2 3250   2.335   6.344   9.375  0.0828  0.0128 -0.1410
  204loPI    C3 3251   1.995   6.141   9.316 -0.0427  0.2009 -0.0746
  204loPI   PO4 3252   2.237   6.389   8.846  0.2895 -0.0857  0.1318
  204loPI   GL1 3253   2.343   6.390   8.377 -0.1453 -0.0112  0.1203
  204loPI   GL2 3254   2.185   6.163   8.399  0.1524 -0.1677  0.3014
  204loPI   C1A 3255   2.482   6.529   7.971  0.0484  0.0101  0.2432
  204loPI   C2A 3256   2.610   6.328   7.591 -0.0124  0.2160  0.2575
  204loPI   C3A 3257   2.656   6.247   7.139  0.0859 -0.0967 -0.1477
  204loPI   C4A 3258   2.796   6.331   6.680 -0.2765 -0.0264  0.0447
  204loPI   C5A 3259   3.033   6.208   6.387 -0.1528 -0.1162 -0.0865
  204loPI   C6A 3260   3.325   6.411   6.590 -0.0485  0.1596  0.0836
  204loPI   C1B 3261   2.375   6.022   7.956  0.1074 -0.1489  0.1926
  204loPI   C2B 3262   2.463   5.874   7.586  0.1699 -0.0244  0.0724
  204loPI   C3B 3263   2.695   5.748   7.091  0.0887  0.2768  0.1107
  204loPI   C4B 3264   2.818   5.596   6.577  0.0120 -0.1578 -0.3083
  205loPI    C1 3265   7.375   9.791   9.506  0.2130 -0.0325  0.0033
  205loPI    C2 3266   7.568   9.596   9.797  0.1470  0.0439  0.0989
  205loPI    C3 3267   7.276   9.855   9.888  0.2126  0.1642 -0.0283
  205loPI   PO4 3268   7.606   9.913   9.384 -0.0900  0.1315  0.0423
  205loPI   GL1 3269   7.690  10.220   9.011 -0.1533  0.1105 -0.2534
  205loPI   GL2 3270   7.390  10.038   8.973 -0.2984 -0.0934  0.2621
  205loPI   C1A 3271   7.837  10.084   8.705  0.2298  0.1950  0.1042
  205loPI   C2A 3272   7.778  10.039   8.259 -0.0780  0.0153  0.0427
  205loPI   C3A 3273   7.898  10.194   7.812 -0.0307 -0.2395  0.2797
  205loPI   C4A 3274   7.981  10.190   7.306  0.0199  0.0452 -0.4101
  205loPI   C5A 3275   7.845  10.357   6.967 -0.0163 -0.0001 -0.1099
  205loPI   C6A 3276   7.679  10.499   6.693 -0.0805  0.4413  0.0804
  205loPI   C1B 3277   7.486   9.710   8.576  0.0657 -0.1087  0.2295
  205loPI   C2B 3278   7.353   9.519   8.184 -0.0725  0.3440 -0.1684
  205loPI   C3B 3279   7.154   9.419   7.757  0.0583  0.2703 -0.2980
  205loPI   C4B 3280   7.175   9.234   7.328  0.0140 -0.0358  0.0236
  206loPI    C1 3281   4.264   6.652   9.435  0.0400 -0.1983 -0.2805
  206loPI    C2 3282   4.456   6.312   9.525 -0.1313 -0.2928 -0.2679
  206loPI    C3 3283   4.374   6.577   9.813  0.2397 -0.1138 -0.3202
  206loPI   PO4 3284   4.438   6.649   9.188  0.2504 -0.3231 -0.1254
  206loPI   GL1 3285   4.395   6.750   8.777 -0.0992  0.0466 -0.1080
  206loPI   GL2 3286   4.478   6.492   8.724  0.3935  0.0016  0.0796
  206loPI   C1A 3287   4.673   6.930   8.504 -0.0150 -0.0961 -0.3307
  206loPI   C2A 3288   4.963   6.978   8.100 -0.2313 -0.0571  0.0442
  206loPI   C3A 3289   5.187   6.829   7.728  0.1353 -0.2750  0.1272
  206loPI   C4A 3290   5.071   6.997   7.377 -0.0990 -0.0063  0.2506
  206loPI   C5A 3291   4.950   6.970   6.990  0.0720 -0.0408 -0.1058
  206loPI   C6A 3292   5.019   6.748   6.700 -0.0460  0.1491 -0.0358
  206loPI   C1B 3293   4.535   6.512   8.283  0.0053 -0.1007 -0.1209
  206loPI   C2B 3294   4.750   6.569   7.905  0.0761 -0.4422 -0.1352
  206loPI   C3B 3295   4.747   6.654   7.548  0.0649 -0.1077  0.0572
  206loPI   C4B 3296   4.564   6.571   7.075 -0.0749 -0.0949  0.2285
  207loPI    C1 3297  14.260   5.597   9.889 -0.2965  0.1860  0.1294
  207loPI    C2 3298  14.495   5.559  10.210  0.0305 -0.0258 -0.1282
  207loPI    C3 3299  14.396   5.923  10.077  0.1007  0.0642  0.0616
  207loPI   PO4 3300  14.177   5.482   9.734 -0.0695  0.0468  0.3647
  207loPI   GL1 3301  14.086   5.309   9.300  0.0145 -0.0389  0.0030
  207loPI   GL2 3302  14.379   5.472   9.118 -0.1327  0.0160  0.3006
  207loPI   C1A 3303  14.085   5.095   8.847  0.5329 -0.0899  0.2849
  207loPI   C2A 3304  13.869   4.740   8.630  0.2180  0.2197  0.3616
  207loPI   C3A 3305  13.738   4.547   8.326  0.1231  0.1444  0.2286
  207loPI   C4A 3306  13.642   4.377   7.854 -0.1262 -0.3918  0.0073
  207loPI   C5A 3307  13.533   4.348   7.383  0.2328  0.1151  0.3743
  207loPI   C6A 3308  13.756   4.468   6.947 -0.3520  0.3505 -0.1631
  207loPI   C1B 3309  14.475   5.409   8.715  0.1561  0.0070 -0.2091
  207loPI   C2B 3310  14.469   5.506   8.206  0.1599 -0.0142 -0.0063
  207loPI   C3B 3311  14.279   5.662   7.720 -0.1489  0.1870 -0.1060
  207loPI   C4B 3312  14.037   5.831   7.501  0.0478  0.0658  0.1933
  208loPI    C1 3313   6.657  19.470   9.219 -0.2119 -0.1279 -0.1236
  208loPI    C2 3314   6.969  19.411   9.462 -0.1793  0.1903 -0.0832
  208loPI    C3 3315   6.608  19.491   9.615 -0.2583 -0.0628 -0.1326
  208loPI   PO4 3316   6.622  19.205   9.038 -0.1067  0.0205  0.1637
  208loPI   GL1 3317   6.639  19.040   8.544  0.1238  0.1300  0.1412
  208loPI   GL2 3318   6.737  19.406   8.436  0.1313 -0.2360  0.0001
  208loPI   C1A 3319   6.443  18.995   8.106  0.0016  0.1428  0.2304
  208loPI   C2A 3320   6.247  18.980   7.713  0.1128  0.1677 -0.0602
  208loPI   C3A 3321   5.997  19.367   7.526  0.1504  0.3194 -0.0447
  208loPI   C4A 3322   6.106  19.730   7.455  0.0973  0.0491  0.5421
  208loPI   C5A 3323   6.006  19.991   6.993 -0.3737 -0.0097  0.0788
  208loPI   C6A 3324   6.078  19.916   6.591  0.0579  0.1782  0.0160
  208loPI   C1B 3325   6.863  19.220   7.991 -0.0488  0.0434 -0.0781
  208loPI   C2B 3326   6.983  19.127   7.576  0.1039  0.1684 -0.1736
  208loPI   C3B 3327   7.185  19.079   7.280 -0.0959 -0.0058 -0.1286
  208loPI   C4B 3328   7.239  18.859   6.896 -0.3259 -0.1411  0.0589
  209loPI    C1 3329   5.132  18.571   9.122  0.0015 -0.1083  0.2696
  209loPI    C2 3330   5.049  18.947   9.013  0.0267 -0.1615  0.0629
  209loPI    C3 3331   4.955  18.820   9.381 -0.1129  0.0038  0.0858
  209loPI   PO4 3332   5.083  18.467   8.762 -0.0076  0.2488 -0.0701
  209loPI   GL1 3333   4.902  18.482   8.432 -0.0688 -0.1992 -0.0030
  209loPI   GL2 3334   5.108  18.692   8.314  0.2095 -0.0525 -0.0958
  209loPI   C1A 3335   4.889  18.274   8.084 -0.2505  0.0225 -0.3344
  209loPI   C2A 3336   4.833  18.197   7.663  0.0322  0.4109  0.0289
  209loPI   C3A 3337   5.056  18.215   7.288  0.0136 -0.1977  0.1172
  209loPI   C4A 3338   5.053  18.237   6.830 -0.2448  0.1202  0.5462
  209loPI   C5A 3339   4.981  18.455   6.558 -0.1246  0.2706 -0.2758
  209loPI   C6A 3340   4.890  18.891   6.444 -0.1955  0.2655 -0.6658
  209loPI   C1B 3341   5.364  18.583   8.041 -0.2425 -0.0553 -0.0788
  209loPI   C2B 3342   5.317  18.470   7.722 -0.2500 -0.2245  0.4146
  209loPI   C3B 3343   5.103  18.743   7.422  0.0502  0.1524 -0.2692
  209loPI   C4B 3344   5.163  19.226   7.310 -0.0251 -0.0445 -0.1613
  210loPI    C1 3345   5.889   7.528   9.221 -0.2420 -0.1128  0.0727
  210loPI    C2 3346   5.924   7.729   9.565 -0.2959 -0.0458  0.0392
  210loPI    C3 3347   6.127   7.389   9.510 -0.1985  0.0035  0.0931
  210loPI   PO4 3348   5.940   7.625   9.011  0.3939 -0.0254  0.1085
  210loPI   GL1 3349   5.702   7.641   8.720  0.0923  0.4130  0.1156
  210loPI   GL2 3350   5.780   7.285   8.720 -0.1190  0.0645 -0.2166
  210loPI   C1A 3351   5.660   7.593   8.243 -0.2437  0.3013 -0.4301
  210loPI   C2A 3352   5.772   7.438   7.900 -0.0143 -0.1954  0.1988
  210loPI   C3A 3353   5.796   7.253   7.517  0.1343 -0.0967  0.1035
  210loPI   C4A 3354   5.944   7.172   7.150  0.1672 -0.3316  0.0009
  210loPI   C5A 3355   6.191   7.270   6.820  0.0317  0.1488  0.2293
  210loPI   C6A 3356   6.280   7.133   6.386  0.2271  0.0364  0.0608
  210loPI   C1B 3357   6.019   7.201   8.410  0.0350  0.0246 -0.0214
  210loPI   C2B 3358   6.072   7.051   7.996 -0.0563 -0.0275  0.1147
  210loPI   C3B 3359   6.248   7.304   7.607  0.3532  0.0704 -0.2625
  210loPI   C4B 3360   6.456   7.080   7.273 -0.0941  0.0844  0.2743
  211loPI    C1 3361  11.128  13.217   9.628 -0.1179  0.0655 -0.0064
  211loPI    C2 3362  11.256  13.477   9.904  0.1475  0.1870 -0.2387
  211loPI    C3 3363  11.304  13.084   9.961  0.1282  0.2077 -0.0764
  211loPI   PO4 3364  11.139  13.301   9.443  0.4723 -0.1358 -0.5286
  211loPI   GL1 3365  10.846  13.221   9.025 -0.1592 -0.1376  0.1507
  211loPI   GL2 3366  11.131  12.987   8.990  0.3823 -0.2351 -0.1532
  211loPI   C1A 3367  10.939  13.068   8.527 -0.0923 -0.1785  0.1018
  211loPI   C2A 3368  10.893  12.809   8.207  0.1322 -0.0961  0.3200
  211loPI   C3A 3369  10.580  12.897   7.931 -0.3866 -0.2350 -0.0633
  211loPI   C4A 3370  10.298  12.793   7.611  0.2676 -0.2943  0.1481
  211loPI   C5A 3371  10.243  12.596   7.256 -0.2733 -0.0802  0.1531
  211loPI   C6A 3372  10.381  12.522   6.895 -0.2903 -0.2055  0.0730
  211loPI   C1B 3373  10.979  12.634   8.705  0.0287 -0.1615 -0.1090
  211loPI   C2B 3374  10.531  12.392   8.540  0.1211 -0.4743  0.1491
  211loPI   C3B 3375  10.407  12.464   8.153  0.1290 -0.1829  0.0167
  211loPI   C4B 3376  10.121  12.820   8.084 -0.1127  0.1143 -0.4286
  212loPI    C1 3377  17.306  11.703   9.450 -0.0034  0.2697  0.0997
  212loPI    C2 3378  17.095  12.011   9.595  0.0128  0.2166  0.2382
  212loPI    C3 3379  17.119  11.670   9.802 -0.3074 -0.0081 -0.0825
  212loPI   PO4 3380  17.586  11.665   9.357  0.0644 -0.2314 -0.1753
  212loPI   GL1 3381  17.731  11.752   8.932 -0.2009 -0.0076 -0.1647
  212loPI   GL2 3382  17.381  11.677   8.902 -0.0659  0.0614  0.0205
  212loPI   C1A 3383  17.704  11.930   8.579 -0.0003  0.1840 -0.1979
  212loPI   C2A 3384  17.590  11.861   8.154  0.1374  0.1260 -0.0954
  212loPI   C3A 3385  17.598  11.803   7.689 -0.0445  0.0752  0.1742
  212loPI   C4A 3386  17.829  12.010   7.354  0.1714  0.1929 -0.1012
  212loPI   C5A 3387  17.894  12.450   7.236 -0.0102 -0.0515  0.0568
  212loPI   C6A 3388  17.576  12.732   7.161 -0.0084 -0.0496  0.2404
  212loPI   C1B 3389  17.091  11.915   8.609  0.1281 -0.1773  0.5063
  212loPI   C2B 3390  17.046  11.735   8.165 -0.0207  0.1828  0.3026
  212loPI   C3B 3391  16.989  11.843   7.720  0.3331  0.2051  0.0760
  212loPI   C4B 3392  16.954  11.906   7.277  0.0871  0.0347  0.1467
  213loPI    C1 3393   9.550   7.758   9.383 -0.2348  0.0039 -0.0196
  213loPI    C2 3394   9.329   7.482   9.570 -0.1550  0.0210  0.1015
  213loPI    C3 3395   9.728   7.454   9.573 -0.1562 -0.0681 -0.2060
  213loPI   PO4 3396   9.480   7.757   9.099  0.1484  0.0403  0.3262
  213loPI   GL1 3397   9.590   7.995   8.732 -0.0018 -0.0224 -0.0128
  213loPI   GL2 3398   9.678   8.159   8.376 -0.0322 -0.2623  0.1946
  213loPI   C1A 3399   9.409   7.779   8.481  0.1271 -0.2093  0.0646
  213loPI   C2A 3400   9.418   7.645   8.070  0.0305  0.1324  0.1854
  213loPI   C3A 3401   9.294   7.514   7.612  0.0053 -0.1008 -0.1670
  213loPI   C4A 3402   9.245   7.857   7.241  0.2103 -0.2529  0.1671
  213loPI   C5A 3403   8.803   8.036   7.232 -0.0243  0.0454 -0.0597
  213loPI   C6A 3404   8.509   7.971   7.100  0.1429 -0.1793 -0.0747
  213loPI   C1B 3405   9.613   8.158   7.974 -0.0551  0.0221  0.1744
  213loPI   C2B 3406   9.604   8.192   7.514 -0.1866 -0.0452 -0.1993
  213loPI   C3B 3407   9.715   7.978   7.077  0.0580 -0.2281  0.1422
  213loPI   C4B 3408   9.471   7.906   6.664 -0.0387 -0.4998 -0.2082
  214loPI    C1 3409  15.716   5.877   9.749 -0.0403  0.1122  0.0799
  214loPI    C2 3410  15.954   6.007  10.043  0.0832 -0.1537  0.1002
  214loPI    C3 3411  15.557   6.046  10.075  0.1104  0.0839  0.1689
  214loPI   PO4 3412  15.880   6.110   9.483  0.2537  0.2850 -0.0200
  214loPI   GL1 3413  16.012   6.434   9.228 -0.2371 -0.2823 -0.1494
  214loPI   GL2 3414  16.037   6.598   8.973 -0.1808  0.1157  0.2680
  214loPI   C1A 3415  15.935   5.974   8.862 -0.2088 -0.2673 -0.0412
  214loPI   C2A 3416  16.008   5.950   8.441  0.1705 -0.0284  0.0085
  214loPI   C3A 3417  16.168   5.838   7.968 -0.1984 -0.2221  0.1917
  214loPI   C4A 3418  16.053   5.380   7.687 -0.1761  0.0370 -0.0984
  214loPI   C5A 3419  16.045   5.009   7.306  0.0449  0.1334 -0.0940
  214loPI   C6A 3420  16.245   4.786   6.957 -0.0163  0.4064  0.1215
  214loPI   C1B 3421  15.906   6.483   8.560  0.3470 -0.0700 -0.2894
  214loPI   C2B 3422  16.088   6.348   8.097 -0.0636 -0.3250 -0.0171
  214loPI   C3B 3423  15.980   6.280   7.725  0.0846 -0.1130  0.1428
  214loPI   C4B 3424  15.827   6.542   7.421 -0.0397 -0.1538  0.1499
  215loPI    C1 3425   5.781   2.682   9.563  0.0584  0.4772  0.0375
  215loPI    C2 3426   5.733   3.079   9.556 -0.0792  0.4681  0.3232
  215loPI    C3 3427   5.539   2.859   9.828 -0.1204  0.1874  0.0720
  215loPI   PO4 3428   5.901   2.603   9.290  0.1577 -0.1225  0.0203
  215loPI   GL1 3429   5.663   2.513   8.865  0.0698  0.0650  0.0360
  215loPI   GL2 3430   5.657   2.078   8.832  0.1686 -0.0082  0.1719
  215loPI   C1A 3431   5.571   2.361   8.448 -0.1777 -0.0834  0.3347
  215loPI   C2A 3432   5.376   2.309   8.027  0.3564  0.2075  0.0026
  215loPI   C3A 3433   5.367   2.380   7.549  0.1540 -0.0805  0.2608
  215loPI   C4A 3434   5.538   2.546   7.174  0.0743  0.2090 -0.5247
  215loPI   C5A 3435   5.618   2.668   6.860  0.0782  0.0559  0.2305
  215loPI   C6A 3436   5.877   3.058   6.715  0.0167  0.0857 -0.1178
  215loPI   C1B 3437   5.853   1.893   8.600 -0.0489  0.1982 -0.2647
  215loPI   C2B 3438   6.137   1.988   8.302 -0.1791 -0.0405  0.1492
  215loPI   C3B 3439   6.149   1.933   7.859 -0.4041 -0.2381  0.0475
  215loPI   C4B 3440   6.202   1.715   7.476  0.0383 -0.2652 -0.2733
  216loPI    C1 3441  11.640   4.135   9.549  0.2096  0.1116  0.0027
  216loPI    C2 3442  11.919   4.400   9.657  0.1473  0.3220 -0.3358
  216loPI    C3 3443  11.534   4.508   9.646  0.0224 -0.0099  0.2791
  216loPI   PO4 3444  11.766   4.052   9.349 -0.2245 -0.1783 -0.0171
  216loPI   GL1 3445  11.624   3.885   9.082 -0.1268 -0.2232 -0.1280
  216loPI   GL2 3446  11.867   4.184   8.832 -0.1275  0.0711  0.2235
  216loPI   C1A 3447  11.192   3.685   9.042 -0.0682  0.4401  0.1100
  216loPI   C2A 3448  10.992   3.582   8.626 -0.0777 -0.0649 -0.2792
  216loPI   C3A 3449  10.695   3.603   8.311  0.3274 -0.3523  0.0995
  216loPI   C4A 3450  10.792   3.850   7.916 -0.2189 -0.2238 -0.0353
  216loPI   C5A 3451  10.788   3.920   7.457 -0.1560 -0.0237 -0.1452
  216loPI   C6A 3452  11.061   4.161   7.176  0.2452  0.0408 -0.0231
  216loPI   C1B 3453  11.824   3.989   8.396 -0.0644 -0.0154  0.3071
  216loPI   C2B 3454  11.725   3.593   8.105  0.1218  0.0586 -0.3232
  216loPI   C3B 3455  11.642   3.508   7.689  0.0629 -0.3893  0.1594
  216loPI   C4B 3456  11.467   3.254   7.485  0.0324 -0.1896 -0.0187
  217loPI    C1 3457   1.397  17.203   8.972  0.2647  0.1528  0.1072
  217loPI    C2 3458   1.738  17.168   9.177  0.2687  0.0435  0.0826
  217loPI    C3 3459   1.400  17.015   9.325  0.2543  0.0427  0.0488
  217loPI   PO4 3460   1.394  17.055   8.785  0.1096  0.0700 -0.0977
  217loPI   GL1 3461   1.564  16.744   8.526  0.0299  0.0980 -0.0618
  217loPI   GL2 3462   1.464  16.461   8.681 -0.0487  0.0772  0.3305
  217loPI   C1A 3463   1.721  16.433   8.280  0.0488  0.0255 -0.0908
  217loPI   C2A 3464   1.832  16.378   7.860 -0.0156  0.0235  0.0160
  217loPI   C3A 3465   1.967  16.213   7.488  0.0987  0.0052  0.0352
  217loPI   C4A 3466   1.746  16.105   7.085  0.2098 -0.1289 -0.0722
  217loPI   C5A 3467   1.767  15.960   6.689 -0.2224  0.0345  0.0804
  217loPI   C6A 3468   1.996  15.844   6.336  0.0357  0.1207  0.0269
  217loPI   C1B 3469   1.271  16.557   8.227  0.0487  0.2554 -0.0578
  217loPI   C2B 3470   1.397  16.577   7.803  0.0588  0.2975 -0.3463
  217loPI   C3B 3471   1.467  16.305   7.512  0.1135 -0.2174  0.1053
  217loPI   C4B 3472   1.276  16.068   7.248  0.0675  0.1507  0.2016
  218loPI    C1 3473   9.748  19.271   9.244  0.1144  0.2272 -0.1380
  218loPI    C2 3474   9.651  19.421   9.602  0.0455 -0.3263  0.0854
  218loPI    C3 3475   9.376  19.230   9.383  0.1118 -0.0732 -0.2269
  218loPI   PO4 3476   9.937  19.513   9.194  0.0429 -0.0546 -0.2947
  218loPI   GL1 3477  10.271  19.602   8.907 -0.2437 -0.2800 -0.2166
  218loPI   GL2 3478  10.375  19.870   9.079 -0.1375 -0.0276 -0.0350
  218loPI   C1A 3479  10.251  19.665   8.469  0.1097 -0.0868 -0.0460
  218loPI   C2A 3480  10.529  19.694   8.205 -0.2437 -0.1965  0.0857
  218loPI   C3A 3481  10.677  19.646   7.872 -0.1501  0.0153  0.0421
  218loPI   C4A 3482  10.864  19.795   7.517  0.0022  0.2344  0.3370
  218loPI   C5A 3483  10.891  19.940   7.038 -0.1102  0.2486 -0.0522
  218loPI   C6A 3484  11.065  19.924   6.726  0.0433  0.0108  0.0176
  218loPI   C1B 3485  10.603  20.100   8.727  0.0079  0.0740 -0.1747
  218loPI   C2B 3486  10.449  20.296   8.345  0.0068 -0.3439  0.0909
  218loPI   C3B 3487  10.363  20.430   7.936  0.1098  0.0374  0.1040
  218loPI   C4B 3488  10.491  20.722   7.627  0.0462 -0.1928 -0.1584
  219loPI    C1 3489  15.202   1.715  10.084 -0.2447 -0.0954 -0.3341
  219loPI    C2 3490  14.917   1.544  10.306 -0.0377 -0.1996 -0.1443
  219loPI    C3 3491  15.183   1.317  10.114  0.0098 -0.0994 -0.1978
  219loPI   PO4 3492  15.095   1.837   9.821  0.0993  0.2952 -0.0980
  219loPI   GL1 3493  15.306   1.863   9.452  0.2172 -0.1645 -0.1098
  219loPI   GL2 3494  15.086   1.944   9.332  0.4778 -0.0130 -0.2161
  219loPI   C1A 3495  15.488   1.886   9.022  0.2817 -0.0022  0.0217
  219loPI   C2A 3496  15.709   2.061   8.710 -0.0845  0.2507  0.1312
  219loPI   C3A 3497  15.910   2.382   8.564  0.0995 -0.0551  0.2773
  219loPI   C4A 3498  16.165   2.574   8.188  0.0147  0.1077 -0.1686
  219loPI   C5A 3499  16.002   2.540   7.813  0.0909 -0.0926  0.1246
  219loPI   C6A 3500  15.878   2.577   7.413 -0.3831  0.0813 -0.1046
  219loPI   C1B 3501  14.994   2.204   9.047 -0.0176 -0.0420 -0.1380
  219loPI   C2B 3502  15.176   2.107   8.680 -0.1272 -0.0849  0.1071
  219loPI   C3B 3503  15.363   2.175   8.310 -0.0130  0.0645 -0.0248
  219loPI   C4B 3504  15.591   2.149   7.969 -0.2737  0.0700  0.1728
  220loPI    C1 3505  13.535  13.856   9.504 -0.1242 -0.2356  0.0345
  220loPI    C2 3506  13.689  13.974   9.854 -0.3322  0.0149  0.0445
  220loPI    C3 3507  13.337  14.120   9.731 -0.4035 -0.2978 -0.1323
  220loPI   PO4 3508  13.793  13.779   9.385 -0.1226  0.1652 -0.1995
  220loPI   GL1 3509  14.000  13.718   9.121 -0.0040 -0.0350 -0.0935
  220loPI   GL2 3510  13.886  13.879   8.786 -0.1495  0.0151  0.0801
  220loPI   C1A 3511  14.186  13.526   8.739 -0.1017  0.0343 -0.1260
  220loPI   C2A 3512  14.178  13.730   8.291  0.0476  0.3472  0.2534
  220loPI   C3A 3513  14.129  13.807   7.806 -0.4259  0.0086  0.2797
  220loPI   C4A 3514  14.073  13.989   7.423  0.0361 -0.1827  0.2595
  220loPI   C5A 3515  14.017  14.331   7.127  0.1288 -0.1511 -0.4276
  220loPI   C6A 3516  13.957  14.703   6.899 -0.1495 -0.3489 -0.0264
  220loPI   C1B 3517  13.687  13.853   8.419 -0.1078 -0.5300  0.0487
  220loPI   C2B 3518  13.564  13.966   8.050 -0.0898  0.0153  0.2675
  220loPI   C3B 3519  13.497  13.976   7.730 -0.0874  0.3458  0.2263
  220loPI   C4B 3520  13.087  13.839   7.589  0.2844 -0.0677  0.0530
  221loPI    C1 3521   4.259  15.591   9.190 -0.0039  0.1635  0.0192
  221loPI    C2 3522   4.252  15.813   9.524 -0.1754  0.0728  0.0767
  221loPI    C3 3523   4.249  15.413   9.548 -0.1178  0.0653 -0.0323
  221loPI   PO4 3524   4.157  15.646   9.014  0.0041  0.0393 -0.1790
  221loPI   GL1 3525   4.197  15.533   8.588  0.1231 -0.0819  0.0252
  221loPI   GL2 3526   4.236  15.863   8.563  0.1277  0.0413 -0.0563
  221loPI   C1A 3527   4.532  15.568   8.347  0.3147 -0.1766  0.1188
  221loPI   C2A 3528   4.355  15.706   7.969 -0.0019  0.0876 -0.2181
  221loPI   C3A 3529   4.224  15.626   7.513 -0.1657  0.2571  0.2878
  221loPI   C4A 3530   4.181  15.635   7.072 -0.0282 -0.3029 -0.2674
  221loPI   C5A 3531   3.986  15.615   6.630 -0.3212 -0.0826 -0.2776
  221loPI   C6A 3532   3.966  15.404   6.256 -0.1941  0.0204  0.3604
  221loPI   C1B 3533   4.325  16.172   8.160 -0.1409  0.2141 -0.0080
  221loPI   C2B 3534   4.461  16.278   7.836 -0.1971 -0.0185 -0.0262
  221loPI   C3B 3535   4.481  16.436   7.445 -0.1605 -0.1771  0.1026
  221loPI   C4B 3536   4.399  16.939   7.336 -0.1053 -0.1365  0.1235
  222loPI    C1 3537  18.458   7.053   9.877 -0.1856 -0.1573  0.0804
  222loPI    C2 3538  18.810   7.063  10.068 -0.1672 -0.0919  0.0432
  222loPI    C3 3539  18.474   7.162  10.262 -0.1684 -0.1778  0.0855
  222loPI   PO4 3540  18.376   7.166   9.687 -0.3151 -0.5670 -0.0239
  222loPI   GL1 3541  18.531   7.289   9.294  0.0113  0.0632 -0.1500
  222loPI   GL2 3542  18.788   7.349   9.112  0.1037  0.2599 -0.1364
  222loPI   C1A 3543  18.263   7.381   8.925 -0.0780 -0.2850  0.0846
  222loPI   C2A 3544  17.829   7.328   8.789  0.2168  0.3194  0.0125
  222loPI   C3A 3545  17.687   7.523   8.450  0.1101  0.0248 -0.1460
  222loPI   C4A 3546  17.875   7.590   8.084  0.0967 -0.1580 -0.0529
  222loPI   C5A 3547  17.714   7.546   7.598 -0.1010  0.2312 -0.1346
  222loPI   C6A 3548  17.958   7.582   7.255  0.1108 -0.1180  0.0378
  222loPI   C1B 3549  18.675   7.628   8.798  0.1075  0.0031 -0.0230
  222loPI   C2B 3550  18.445   7.459   8.444  0.2562 -0.0321 -0.3460
  222loPI   C3B 3551  18.336   7.343   8.099 -0.0400  0.1237 -0.0777
  222loPI   C4B 3552  18.213   7.591   7.663 -0.0678  0.2824  0.0725
  223loPI    C1 3553   3.823  12.211   8.781 -0.0973 -0.1207 -0.0439
  223loPI    C2 3554   3.761  12.364   9.145 -0.3025 -0.0563 -0.1044
  223loPI    C3 3555   3.861  12.605   8.842  0.2809 -0.1600 -0.0055
  223loPI   PO4 3556   3.908  11.966   8.825  0.2344  0.1946 -0.0401
  223loPI   GL1 3557   4.133  11.713   8.530  0.4371 -0.1235 -0.1026
  223loPI   GL2 3558   4.371  11.951   8.544 -0.2631 -0.1313  0.3377
  223loPI   C1A 3559   4.144  11.792   8.027 -0.2292  0.2273  0.2095
  223loPI   C2A 3560   3.876  11.744   7.621 -0.0947 -0.3444  0.0060
  223loPI   C3A 3561   3.777  11.664   7.262  0.0106  0.0162  0.0843
  223loPI   C4A 3562   3.785  11.391   7.030  0.1284  0.0475 -0.0592
  223loPI   C5A 3563   3.882  11.107   6.717  0.0222 -0.1522  0.2541
  223loPI   C6A 3564   4.066  11.162   6.317 -0.0544  0.1676  0.4687
  223loPI   C1B 3565   4.505  12.166   8.197 -0.0230 -0.0875  0.1479
  223loPI   C2B 3566   4.500  12.248   7.823  0.0274  0.2938  0.2420
  223loPI   C3B 3567   4.568  12.496   7.507 -0.0474 -0.0415 -0.1812
  223loPI   C4B 3568   4.386  12.820   7.176  0.0890  0.2293 -0.2919
  224loPI    C1 3569  15.334   5.011   9.831 -0.0123 -0.0250  0.0742
  224loPI    C2 3570  15.540   5.351   9.781  0.1630 -0.1202  0.1408
  224loPI    C3 3571  15.616   5.115  10.095  0.0676 -0.2394  0.0754
  224loPI   PO4 3572  15.053   5.044   9.712 -0.1491 -0.1346 -0.1636
  224loPI   GL1 3573  15.107   5.043   9.233 -0.2617  0.1549 -0.1957
  224loPI   GL2 3574  15.278   5.334   9.339  0.1612  0.2423  0.2956
  224loPI   C1A 3575  14.764   4.861   8.926  0.0552  0.1430  0.1530
  224loPI   C2A 3576  14.423   4.922   8.537 -0.2659 -0.2789 -0.0984
  224loPI   C3A 3577  14.173   5.010   8.212 -0.1247  0.1357 -0.2417
  224loPI   C4A 3578  14.004   4.749   7.947 -0.1284  0.0927 -0.2886
  224loPI   C5A 3579  13.706   4.802   7.565  0.2538  0.0463 -0.3168
  224loPI   C6A 3580  13.699   4.923   7.183  0.3315 -0.1045  0.0787
  224loPI   C1B 3581  15.245   5.412   8.880  0.1201  0.1088 -0.0658
  224loPI   C2B 3582  15.537   5.303   8.530  0.0555 -0.1497 -0.1701
  224loPI   C3B 3583  15.501   5.050   8.170 -0.1176  0.0882 -0.0103
  224loPI   C4B 3584  15.569   4.907   7.752  0.0599  0.1006 -0.1418
  225loPI    C1 3585  13.039   9.508   9.569 -0.2946  0.0355 -0.0742
  225loPI    C2 3586  12.938   9.822   9.794  0.2064  0.1693 -0.0248
  225loPI    C3 3587  12.878   9.451   9.930 -0.2516  0.2385 -0.0219
  225loPI   PO4 3588  13.005   9.540   9.337 -0.3277 -0.1580  0.2097
  225loPI   GL1 3589  12.947   9.332   8.902  0.3315 -0.1947 -0.0822
  225loPI   GL2 3590  13.266   9.351   8.765 -0.3717  0.1998  0.2309
  225loPI   C1A 3591  12.842   9.430   8.482 -0.1214 -0.2098  0.1692
  225loPI   C2A 3592  12.867   9.336   7.973 -0.0183  0.1760  0.4077
  225loPI   C3A 3593  12.819   9.457   7.494  0.0584  0.3331  0.3838
  225loPI   C4A 3594  12.605   9.346   7.203 -0.0882 -0.0049 -0.0422
  225loPI   C5A 3595  12.591   9.275   6.720  0.0783 -0.0706 -0.2319
  225loPI   C6A 3596  12.604   9.135   6.289  0.0196 -0.2695  0.2055
  225loPI   C1B 3597  13.247   9.260   8.300  0.0526  0.1655  0.1525
  225loPI   C2B 3598  13.383   9.427   7.815 -0.1947 -0.0108  0.1712
  225loPI   C3B 3599  13.474   9.473   7.334  0.1799 -0.2722 -0.2563
  225loPI   C4B 3600  13.706   9.504   6.938  0.0206  0.2352  0.0761
  226loPI    C1 3601  16.396  16.028   9.763  0.0786  0.2220  0.0369
  226loPI    C2 3602  16.011  16.083   9.854 -0.0042  0.1581 -0.2617
  226loPI    C3 3603  16.273  16.381   9.905 -0.0179  0.0852  0.2994
  226loPI   PO4 3604  16.295  15.840   9.466 -0.1768  0.1865  0.1396
  226loPI   GL1 3605  16.302  16.048   9.102  0.1223  0.1051 -0.2811
  226loPI   GL2 3606  16.534  16.005   9.063  0.1267 -0.1222  0.3808
  226loPI   C1A 3607  15.983  16.256   8.708 -0.3720 -0.0986 -0.4955
  226loPI   C2A 3608  16.124  16.314   8.315 -0.2281 -0.1524 -0.1175
  226loPI   C3A 3609  16.041  16.210   7.924 -0.0403 -0.1823 -0.2651
  226loPI   C4A 3610  16.265  16.206   7.480 -0.0786  0.0522  0.0847
  226loPI   C5A 3611  16.450  16.386   7.053 -0.1451  0.1215 -0.2495
  226loPI   C6A 3612  16.887  16.517   7.066  0.0146 -0.3973  0.0699
  226loPI   C1B 3613  16.507  16.046   8.558  0.3771  0.2549  0.3285
  226loPI   C2B 3614  16.553  16.043   8.148 -0.1621  0.3031  0.0133
  226loPI   C3B 3615  16.667  16.175   7.781 -0.0692  0.2055  0.0049
  226loPI   C4B 3616  16.887  16.083   7.432 -0.1997  0.1586 -0.1598
  227loPI    C1 3617   8.581   5.889   9.818 -0.0483 -0.2052  0.0982
  227loPI    C2 3618   8.631   6.271   9.924  0.0146 -0.1630 -0.0804
  227loPI    C3 3619   8.386   6.036  10.134 -0.1799  0.0296 -0.0884
  227loPI   PO4 3620   8.484   5.908   9.522 -0.1914  0.1959 -0.1169
  227loPI   GL1 3621   8.292   6.049   9.208 -0.0045 -0.0356  0.1405
  227loPI   GL2 3622   8.530   5.858   9.041  0.1899 -0.0736  0.1604
  227loPI   C1A 3623   8.162   6.311   8.838  0.1767 -0.2034 -0.0921
  227loPI   C2A 3624   8.345   6.479   8.485 -0.3099 -0.1599  0.1227
  227loPI   C3A 3625   8.246   6.371   8.078 -0.2272  0.1964  0.2089
  227loPI   C4A 3626   8.030   6.424   7.790 -0.0390  0.2180 -0.0079
  227loPI   C5A 3627   8.119   6.328   7.339  0.0941  0.1040  0.1939
  227loPI   C6A 3628   7.755   6.327   7.062  0.1317  0.0195  0.0491
  227loPI   C1B 3629   8.539   6.014   8.706 -0.1345  0.1298 -0.0508
  227loPI   C2B 3630   8.620   5.945   8.208  0.2496 -0.1545 -0.0039
  227loPI   C3B 3631   8.801   6.124   7.795  0.0098  0.1429  0.4840
  227loPI   C4B 3632   8.640   6.041   7.430 -0.1280  0.1958 -0.1573
  228loPI    C1 3633   7.633  17.036   8.841 -0.1253  0.1056  0.1689
  228loPI    C2 3634   7.983  16.954   9.017 -0.0622  0.1842  0.0816
  228loPI    C3 3635   7.657  16.742   9.110  0.0510 -0.0212  0.0172
  228loPI   PO4 3636   7.743  17.072   8.497 -0.0390  0.1551 -0.3558
  228loPI   GL1 3637   7.387  17.350   8.248 -0.4616 -0.1076  0.0004
  228loPI   GL2 3638   7.677  17.393   8.102  0.2737 -0.1900  0.2411
  228loPI   C1A 3639   7.264  17.258   7.842 -0.0742  0.2033 -0.1479
  228loPI   C2A 3640   7.330  16.889   7.586 -0.1113 -0.0405 -0.0987
  228loPI   C3A 3641   7.680  16.626   7.279  0.3451  0.1841 -0.0053
  228loPI   C4A 3642   8.049  16.471   7.002  0.2674 -0.1487 -0.1117
  228loPI   C5A 3643   8.278  16.276   6.635  0.0454  0.3030  0.1293
  228loPI   C6A 3644   8.705  16.265   6.541  0.1758 -0.0221 -0.0318
  228loPI   C1B 3645   7.727  17.280   7.759  0.0571  0.5407 -0.0065
  228loPI   C2B 3646   7.701  17.209   7.414  0.4532 -0.2459  0.1107
  228loPI   C3B 3647   7.597  16.987   7.005  0.2024  0.4092 -0.0707
  228loPI   C4B 3648   7.564  17.138   6.604 -0.0869  0.1300  0.1831
  229loPI    C1 3649   4.171  17.638   9.046 -0.0432 -0.0163  0.2267
  229loPI    C2 3650   4.234  17.283   8.873 -0.0650  0.1109 -0.0468
  229loPI    C3 3651   3.949  17.322   9.150  0.0996 -0.1393  0.1628
  229loPI   PO4 3652   4.137  17.841   8.848 -0.0132  0.0781 -0.5089
  229loPI   GL1 3653   4.125  17.871   8.391 -0.1562 -0.2738  0.0936
  229loPI   GL2 3654   4.226  18.137   8.087  0.0649  0.0654  0.0125
  229loPI   C1A 3655   3.994  17.669   7.968  0.2151 -0.1361  0.0186
  229loPI   C2A 3656   3.894  17.654   7.478 -0.1426 -0.2968  0.0367
  229loPI   C3A 3657   4.128  17.718   7.150 -0.0223 -0.2330  0.0474
  229loPI   C4A 3658   4.136  17.754   6.708 -0.2729  0.0279 -0.3792
  229loPI   C5A 3659   3.863  17.655   6.367 -0.1651 -0.1696  0.0280
  229loPI   C6A 3660   3.597  17.295   6.337  0.0954 -0.1381  0.1405
  229loPI   C1B 3661   4.358  17.894   7.729 -0.2633 -0.2060  0.1880
  229loPI   C2B 3662   4.553  17.927   7.392  0.1550  0.1257 -0.1949
  229loPI   C3B 3663   4.636  17.935   7.018  0.1498 -0.1501 -0.0441
  229loPI   C4B 3664   4.583  17.946   6.589 -0.2812  0.2419  0.1706
  230loPI    C1 3665  19.916  10.081   9.589  0.0119  0.0237  0.0734
  230loPI    C2 3666  19.872  10.466   9.688 -0.1568  0.0100  0.0548
  230loPI    C3 3667  19.716  10.180   9.921 -0.0442 -0.0469  0.0610
  230loPI   PO4 3668  19.827  10.110   9.250  0.2577  0.0730 -0.1082
  230loPI   GL1 3669  19.746  10.011   8.847 -0.0786  0.0120  0.0488
  230loPI   GL2 3670  19.674   9.722   8.653 -0.3449  0.0712  0.2861
  230loPI   C1A 3671  19.959  10.098   8.430  0.1417 -0.1710 -0.2481
  230loPI   C2A 3672  19.910  10.149   7.970 -0.2747  0.2392 -0.1115
  230loPI   C3A 3673  19.909  10.157   7.518  0.0360  0.1609  0.0980
  230loPI   C4A 3674  19.908  10.028   7.026  0.2433  0.1131 -0.0681
  230loPI   C5A 3675  20.127   9.997   6.682 -0.0751 -0.0999 -0.2201
  230loPI   C6A 3676  20.086   9.628   6.371  0.2648  0.1796 -0.3641
  230loPI   C1B 3677  19.760   9.759   8.157  0.0201  0.0108  0.3251
  230loPI   C2B 3678  19.729   9.606   7.690 -0.1119 -0.4578 -0.0120
  230loPI   C3B 3679  19.654   9.552   7.206  0.1524 -0.2048 -0.2176
  230loPI   C4B 3680  19.553   9.545   6.748 -0.3884 -0.1752  0.1333
  231loPI    C1 3681   7.644  14.743   9.585  0.1187 -0.0990  0.0023
  231loPI    C2 3682   7.715  14.365   9.694  0.0926 -0.0304  0.2632
  231loPI    C3 3683   7.417  14.570   9.865 -0.1533 -0.0190 -0.1644
  231loPI   PO4 3684   7.707  14.779   9.229 -0.0738  0.1449 -0.1996
  231loPI   GL1 3685   7.855  14.841   8.854  0.1718  0.0142 -0.0018
  231loPI   GL2 3686   8.022  14.595   8.761 -0.0933 -0.0485  0.0015
  231loPI   C1A 3687   7.618  14.926   8.535  0.0886 -0.2375 -0.2978
  231loPI   C2A 3688   7.406  15.215   8.281 -0.0103  0.1390 -0.4920
  231loPI   C3A 3689   7.249  15.086   7.922 -0.1651  0.1367  0.2444
  231loPI   C4A 3690   7.308  15.070   7.453 -0.0477 -0.1364  0.1739
  231loPI   C5A 3691   7.186  14.951   7.086 -0.0245  0.2798  0.1416
  231loPI   C6A 3692   7.143  14.621   6.868 -0.0328 -0.2077  0.2333
  231loPI   C1B 3693   7.595  14.425   8.614  0.2307 -0.1149 -0.0828
  231loPI   C2B 3694   7.392  14.519   8.253 -0.0569 -0.2794 -0.0787
  231loPI   C3B 3695   7.030  14.474   8.035 -0.0390 -0.2204  0.1571
  231loPI   C4B 3696   6.922  14.782   7.722  0.2562 -0.2842  0.0206
  232loPI    C1 3697   8.269   6.678   9.808 -0.2583  0.1983  0.0087
  232loPI    C2 3698   7.991   6.823  10.056 -0.0439  0.1291  0.2947
  232loPI    C3 3699   8.152   6.463  10.124 -0.1078  0.0319 -0.0469
  232loPI   PO4 3700   8.106   6.698   9.519  0.0245  0.1104  0.0161
  232loPI   GL1 3701   8.328   6.718   9.073  0.1380  0.0215 -0.1905
  232loPI   GL2 3702   7.948   6.711   9.034 -0.0060 -0.2432 -0.2412
  232loPI   C1A 3703   8.371   6.929   8.692 -0.2611 -0.0387 -0.0035
  232loPI   C2A 3704   8.288   6.940   8.208  0.0126 -0.1529  0.1564
  232loPI   C3A 3705   8.118   6.887   7.826 -0.1408  0.1192  0.0063
  232loPI   C4A 3706   7.874   6.770   7.442  0.0247 -0.1538  0.2715
  232loPI   C5A 3707   7.617   6.821   7.112  0.0276  0.0084  0.1106
  232loPI   C6A 3708   7.209   7.074   6.893 -0.1186  0.0164 -0.5741
  232loPI   C1B 3709   7.936   6.717   8.628  0.2465 -0.1551  0.2947
  232loPI   C2B 3710   7.797   6.645   8.161 -0.2464  0.1125  0.3582
  232loPI   C3B 3711   7.572   6.575   7.729 -0.0323  0.0398  0.1269
  232loPI   C4B 3712   7.258   6.743   7.402 -0.1371  0.3306  0.0355
  233loPI    C1 3713   4.462   1.359   9.358  0.2888  0.0378  0.0822
  233loPI    C2 3714   4.468   1.091   9.655 -0.2559 -0.1241 -0.0419
  233loPI    C3 3715   4.443   1.481   9.738 -0.0528 -0.1456  0.1281
  233loPI   PO4 3716   4.676   1.211   9.123 -0.1319  0.0073 -0.0266
  233loPI   GL1 3717   4.842   0.792   8.844 -0.2067  0.1680 -0.0663
  233loPI   GL2 3718   4.664   0.473   8.785  0.0989 -0.1058 -0.0064
  233loPI   C1A 3719   4.850   1.088   8.486 -0.1222  0.3954 -0.0997
  233loPI   C2A 3720   5.051   1.234   8.058 -0.3814 -0.1676  0.3496
  233loPI   C3A 3721   5.049   1.154   7.678  0.2655  0.2640  0.1428
  233loPI   C4A 3722   4.817   1.135   7.221 -0.0273  0.1165  0.2608
  233loPI   C5A 3723   4.581   1.313   6.935  0.0857 -0.1391  0.2898
  233loPI   C6A 3724   4.704   1.272   6.433  0.0610 -0.3936  0.0976
  233loPI   C1B 3725   4.739   0.409   8.289 -0.3968 -0.0912  0.1776
  233loPI   C2B 3726   4.661   0.327   7.850  0.2841 -0.1062  0.1521
  233loPI   C3B 3727   4.660   0.198   7.431  0.1641  0.2419  0.3314
  233loPI   C4B 3728   4.523   0.161   7.065  0.2232 -0.2955  0.0347
  234loPI    C1 3729  11.310  17.317   9.104 -0.1765 -0.0634 -0.1820
  234loPI    C2 3730  11.226  17.613   9.360 -0.3509 -0.2904  0.0272
  234loPI    C3 3731  10.933  17.444   9.147 -0.2245 -0.1892 -0.2306
  234loPI   PO4 3732  11.546  17.369   8.986 -0.1822  0.0423 -0.2363
  234loPI   GL1 3733  11.799  17.330   8.617  0.3269 -0.1089  0.2269
  234loPI   GL2 3734  12.129  17.413   8.727 -0.0665 -0.0541 -0.2275
  234loPI   C1A 3735  11.839  17.308   8.172  0.2694 -0.3974 -0.0954
  234loPI   C2A 3736  11.930  17.412   7.774  0.0043  0.2922  0.2325
  234loPI   C3A 3737  12.162  17.370   7.291 -0.0776 -0.1833 -0.1940
  234loPI   C4A 3738  12.271  17.200   6.911  0.0597  0.1305 -0.1345
  234loPI   C5A 3739  12.060  16.968   6.584 -0.3100 -0.0406  0.0256
  234loPI   C6A 3740  12.168  16.688   6.205  0.1559 -0.2605 -0.1617
  234loPI   C1B 3741  12.411  17.161   8.437 -0.0461 -0.0375  0.2489
  234loPI   C2B 3742  12.527  17.117   7.971 -0.2520 -0.0310 -0.3216
  234loPI   C3B 3743  12.584  17.225   7.529  0.0698 -0.0468  0.3976
  234loPI   C4B 3744  12.615  17.507   7.231 -0.0658 -0.1285  0.0081
  235loPI    C1 3745  18.183   4.971   9.336 -0.0100 -0.1016 -0.0607
  235loPI    C2 3746  18.013   4.785   9.647  0.2970 -0.1100  0.1058
  235loPI    C3 3747  17.833   5.102   9.481  0.0919 -0.1543  0.2399
  235loPI   PO4 3748  18.153   4.774   9.096  0.1196 -0.0489  0.0639
  235loPI   GL1 3749  18.131   4.964   8.681 -0.3829 -0.2911 -0.1163
  235loPI   GL2 3750  17.986   4.630   8.658 -0.1849  0.2314 -0.0581
  235loPI   C1A 3751  17.715   5.075   8.531 -0.1463 -0.2061 -0.0458
  235loPI   C2A 3752  17.342   4.952   8.249  0.1788 -0.2509 -0.0625
  235loPI   C3A 3753  17.050   4.720   7.894 -0.2638 -0.0496  0.2505
  235loPI   C4A 3754  16.701   4.833   7.705 -0.4273 -0.2238  0.0190
  235loPI   C5A 3755  16.466   5.203   7.612  0.0991  0.1529 -0.1328
  235loPI   C6A 3756  16.374   5.563   7.290 -0.1986 -0.0487  0.2194
  235loPI   C1B 3757  18.259   4.472   8.422 -0.0497  0.1525 -0.1615
  235loPI   C2B 3758  18.388   4.250   8.010  0.1777  0.1154 -0.5628
  235loPI   C3B 3759  18.449   4.117   7.639  0.2176  0.1346 -0.3529
  235loPI   C4B 3760  18.348   3.833   7.375  0.1274  0.1890 -0.1005
  236loPI    C1 3761  12.237  11.202   9.330  0.2705 -0.1255 -0.1451
  236loPI    C2 3762  12.385  11.536   9.167  0.0265 -0.0197 -0.1543
  236loPI    C3 3763  12.396  11.485   9.564  0.3039 -0.1216 -0.1723
  236loPI   PO4 3764  12.041  11.170   9.141 -0.1938  0.0405  0.1564
  236loPI   GL1 3765  11.888  11.149   8.577  0.1845 -0.1628  0.0681
  236loPI   GL2 3766  12.019  11.449   8.728 -0.1677  0.2060 -0.2383
  236loPI   C1A 3767  12.048  11.250   8.009 -0.0385 -0.2505 -0.4164
  236loPI   C2A 3768  12.038  11.350   7.559  0.2218  0.1872  0.0854
  236loPI   C3A 3769  12.088  11.391   7.112  0.0129 -0.0657 -0.2621
  236loPI   C4A 3770  12.230  11.277   6.612 -0.0219  0.3053 -0.0304
  236loPI   C5A 3771  11.956  11.645   6.508  0.4188 -0.2520  0.2324
  236loPI   C6A 3772  11.739  11.996   6.599  0.0568 -0.3871  0.0041
  236loPI   C1B 3773  12.075  11.615   8.334 -0.0512  0.0767  0.2675
  236loPI   C2B 3774  12.302  11.772   7.818  0.2117 -0.0971  0.0008
  236loPI   C3B 3775  12.134  11.808   7.388 -0.1330 -0.3232 -0.1574
  236loPI   C4B 3776  12.002  11.951   7.117  0.3409  0.0836 -0.1170
  237loPI    C1 3777   6.765  15.546   9.101 -0.1042  0.0834  0.0332
  237loPI    C2 3778   6.939  15.338   9.395  0.1373  0.3010  0.0489
  237loPI    C3 3779   6.767  15.690   9.475 -0.1998  0.1491  0.0088
  237loPI   PO4 3780   6.584  15.485   9.024  0.2086  0.3490  0.0291
  237loPI   GL1 3781   6.557  15.588   8.597 -0.0442  0.1870 -0.2163
  237loPI   GL2 3782   6.184  15.707   8.484  0.0373  0.0245  0.1395
  237loPI   C1A 3783   6.670  15.621   8.197 -0.0682  0.0066 -0.0637
  237loPI   C2A 3784   6.657  15.603   7.745 -0.3191 -0.0310 -0.0522
  237loPI   C3A 3785   6.607  15.602   7.285  0.2353 -0.3418  0.1719
  237loPI   C4A 3786   6.503  15.719   6.819 -0.1833 -0.2756 -0.0613
  237loPI   C5A 3787   6.258  16.031   6.541  0.1685  0.0440  0.0794
  237loPI   C6A 3788   6.291  16.255   6.208  0.1725  0.0933  0.0876
  237loPI   C1B 3789   6.213  15.620   7.931  0.0101  0.2299  0.0514
  237loPI   C2B 3790   6.187  15.453   7.538 -0.0708 -0.4303  0.1399
  237loPI   C3B 3791   6.106  15.470   7.047  0.2335  0.3740  0.0777
  237loPI   C4B 3792   6.118  15.528   6.522  0.1250  0.2247 -0.0788
  238loPI    C1 3793   3.058   3.164   9.290  0.2119  0.0051 -0.1607
  238loPI    C2 3794   2.789   3.383   9.091  0.2419  0.1389 -0.0552
  238loPI    C3 3795   2.774   3.361   9.490  0.2337 -0.0594 -0.0653
  238loPI   PO4 3796   3.279   3.266   9.056  0.3000 -0.0525 -0.5116
  238loPI   GL1 3797   3.298   3.236   8.688  0.1472  0.0265  0.2451
  238loPI   GL2 3798   3.173   3.573   8.599 -0.0983 -0.0993 -0.0792
  238loPI   C1A 3799   2.922   3.104   8.409  0.0269 -0.2163  0.1956
  238loPI   C2A 3800   3.184   2.876   8.007 -0.2213  0.1746 -0.3373
  238loPI   C3A 3801   3.426   2.819   7.706 -0.0631 -0.0218 -0.1847
  238loPI   C4A 3802   3.485   2.820   7.271  0.3532  0.1403  0.3326
  238loPI   C5A 3803   3.481   2.544   7.058 -0.0727  0.2119 -0.0500
  238loPI   C6A 3804   3.370   2.122   6.876 -0.0799 -0.0783  0.1149
  238loPI   C1B 3805   3.270   3.439   8.224  0.2708 -0.0749  0.0349
  238loPI   C2B 3806   3.325   3.417   7.812 -0.2154 -0.1805 -0.0374
  238loPI   C3B 3807   3.286   3.367   7.397  0.2729 -0.1158 -0.5315
  238loPI   C4B 3808   3.185   3.143   7.003 -0.3739  0.0335 -0.1552
  239loPI    C1 3809   4.503   1.946   9.528  0.1185 -0.2114 -0.1621
  239loPI    C2 3810   4.883   2.027   9.436  0.1275 -0.1528 -0.0745
  239loPI    C3 3811   4.799   1.797   9.752  0.0877 -0.0853 -0.0359
  239loPI   PO4 3812   4.421   1.913   9.197 -0.2637 -0.0679  0.1750
  239loPI   GL1 3813   4.447   1.749   8.773 -0.2307 -0.2366 -0.1182
  239loPI   GL2 3814   4.597   1.546   8.757  0.1345  0.2164 -0.0188
  239loPI   C1A 3815   4.460   1.974   8.423 -0.0278 -0.0641 -0.1448
  239loPI   C2A 3816   4.562   1.984   7.988 -0.1381  0.2345  0.0042
  239loPI   C3A 3817   4.723   1.621   7.600 -0.1742 -0.0200  0.1768
  239loPI   C4A 3818   5.073   1.563   7.389 -0.0840 -0.1013  0.0355
  239loPI   C5A 3819   5.066   1.645   6.902 -0.0460 -0.0165 -0.2175
  239loPI   C6A 3820   4.618   1.739   6.606 -0.0533 -0.1054  0.0064
  239loPI   C1B 3821   4.428   1.395   8.421 -0.2812 -0.0316 -0.0893
  239loPI   C2B 3822   4.558   1.351   8.069  0.1268  0.0759 -0.0544
  239loPI   C3B 3823   4.462   1.052   7.740  0.0055 -0.1303  0.4941
  239loPI   C4B 3824   4.323   0.712   7.612  0.1098  0.2423  0.0670
  240loPI    C1 3825  17.606   7.808   9.908  0.0061  0.0705 -0.0703
  240loPI    C2 3826  17.915   8.061   9.931  0.0123  0.0650 -0.0950
  240loPI    C3 3827  17.746   7.922  10.265  0.0699  0.0274 -0.0815
  240loPI   PO4 3828  17.736   7.609   9.761  0.2173 -0.1550 -0.0535
  240loPI   GL1 3829  17.886   7.417   9.288 -0.1048 -0.2333  0.0494
  240loPI   GL2 3830  18.133   7.033   9.254  0.0929 -0.1320  0.0255
  240loPI   C1A 3831  17.733   7.796   9.056  0.1285  0.2060  0.0192
  240loPI   C2A 3832  17.529   7.929   8.705  0.0733  0.0291  0.2364
  240loPI   C3A 3833  17.511   7.944   8.185  0.2737 -0.0922 -0.1317
  240loPI   C4A 3834  17.426   7.993   7.682  0.0807  0.1395  0.0768
  240loPI   C5A 3835  17.110   7.882   7.396 -0.0276  0.0510 -0.1784
  240loPI   C6A 3836  16.944   7.701   7.018 -0.2809  0.3595 -0.0179
  240loPI   C1B 3837  18.433   6.922   8.943  0.1704 -0.0434 -0.1272
  240loPI   C2B 3838  18.472   7.009   8.533  0.1373 -0.1183  0.0000
  240loPI   C3B 3839  18.279   6.825   8.132 -0.1089 -0.1649  0.2152
  240loPI   C4B 3840  18.366   6.569   7.826 -0.2061  0.0646 -0.0364
  241loPI    C1 3841  11.307  10.300   9.417 -0.0912 -0.1062  0.4933
  241loPI    C2 3842  11.216  10.678   9.510 -0.0223 -0.0222  0.2285
  241loPI    C3 3843  11.580  10.535   9.591  0.0929  0.1027 -0.0550
  241loPI   PO4 3844  11.266  10.229   9.177  0.2084  0.3561 -0.1621
  241loPI   GL1 3845  11.338  10.232   8.792 -0.0559 -0.1627 -0.1550
  241loPI   GL2 3846  11.417   9.986   8.648 -0.1731  0.1831 -0.0600
  241loPI   C1A 3847  11.378  10.680   8.539 -0.0941 -0.0616 -0.2050
  241loPI   C2A 3848  11.493  11.037   8.185 -0.2347 -0.2602  0.0854
  241loPI   C3A 3849  11.554  11.217   7.715 -0.0044 -0.0643  0.1835
  241loPI   C4A 3850  11.590  11.534   7.269  0.4838 -0.0436 -0.0547
  241loPI   C5A 3851  11.649  11.562   6.876 -0.1594  0.2131  0.0597
  241loPI   C6A 3852  11.334  11.724   6.518  0.2693  0.1614 -0.0560
  241loPI   C1B 3853  11.690  10.187   8.319 -0.1020  0.1188 -0.1507
  241loPI   C2B 3854  11.726  10.278   7.879 -0.1464  0.1601  0.4385
  241loPI   C3B 3855  11.685  10.300   7.371  0.0592  0.1078 -0.1123
  241loPI   C4B 3856  11.664  10.318   6.943  0.4564  0.2016 -0.0122
  242loPI    C1 3857  13.622   7.254   9.778  0.2640 -0.1460 -0.0027
  242loPI    C2 3858  13.729   6.878   9.697 -0.0695 -0.2238 -0.1001
  242loPI    C3 3859  13.651   6.987  10.074  0.0577 -0.2432 -0.0678
  242loPI   PO4 3860  13.452   7.368   9.531 -0.1947  0.2808 -0.1454
  242loPI   GL1 3861  13.611   7.392   9.134 -0.1821 -0.0818  0.1073
  242loPI   GL2 3862  14.037   7.386   9.010 -0.0849  0.1288 -0.0335
  242loPI   C1A 3863  13.630   7.705   8.802  0.1555 -0.3735 -0.1238
  242loPI   C2A 3864  13.543   7.691   8.341  0.0261  0.0526  0.4769
  242loPI   C3A 3865  13.506   7.303   8.120  0.2391  0.4901 -0.1150
  242loPI   C4A 3866  13.403   7.188   7.665  0.0336 -0.0498  0.1939
  242loPI   C5A 3867  13.339   7.017   7.270 -0.1094 -0.2803 -0.1429
  242loPI   C6A 3868  12.913   6.648   7.102  0.2820 -0.2910 -0.0646
  242loPI   C1B 3869  13.919   7.305   8.522 -0.0341  0.2155 -0.1478
  242loPI   C2B 3870  13.937   7.043   8.083 -0.1115 -0.1713  0.1127
  242loPI   C3B 3871  13.665   6.738   7.809  0.1527 -0.0711  0.0261
  242loPI   C4B 3872  13.707   6.494   7.482 -0.4179 -0.0278 -0.1728
  243loPI    C1 3873  16.289   6.696  10.146 -0.2246 -0.0128  0.1409
  243loPI    C2 3874  16.493   6.643  10.487 -0.2836  0.3593  0.2389
  243loPI    C3 3875  16.270   6.346  10.338 -0.0677  0.1149  0.3960
  243loPI   PO4 3876  16.404   6.861   9.906 -0.2750  0.0678 -0.1969
  243loPI   GL1 3877  16.532   6.861   9.419  0.0093 -0.0867  0.1753
  243loPI   GL2 3878  16.549   6.504   9.367  0.3269 -0.1378 -0.2266
  243loPI   C1A 3879  16.263   6.994   9.126 -0.3816  0.2098 -0.0009
  243loPI   C2A 3880  16.033   6.959   8.666  0.1675  0.0633  0.2931
  243loPI   C3A 3881  15.940   6.919   8.256 -0.0269  0.2381  0.2595
  243loPI   C4A 3882  15.969   6.897   7.787  0.0723  0.2628  0.1533
  243loPI   C5A 3883  16.020   7.004   7.395  0.0538 -0.1217 -0.3010
  243loPI   C6A 3884  15.960   6.741   6.982 -0.0246 -0.0625  0.1608
  243loPI   C1B 3885  16.507   6.656   8.954 -0.2075 -0.2838  0.0059
  243loPI   C2B 3886  16.517   6.709   8.429  0.0308  0.0991  0.5310
  243loPI   C3B 3887  16.471   6.856   7.992 -0.1449 -0.2090  0.0934
  243loPI   C4B 3888  16.597   6.957   7.583  0.2207  0.0328  0.5097
  244loPI    C1 3889  10.334  17.412   9.142  0.0040 -0.1746  0.0531
  244loPI    C2 3890  10.551  17.442   9.477 -0.2047  0.2796  0.1561
  244loPI    C3 3891  10.206  17.643   9.443 -0.3428 -0.0075 -0.2144
  244loPI   PO4 3892  10.561  17.539   8.859 -0.1807  0.0005  0.1058
  244loPI   GL1 3893  10.563  17.285   8.558 -0.1173  0.3323  0.0317
  244loPI   GL2 3894  10.418  17.439   8.308  0.0882  0.2356  0.0473
  244loPI   C1A 3895  10.854  17.060   8.319  0.0831  0.2266 -0.0300
  244loPI   C2A 3896  10.902  17.132   7.994 -0.1093 -0.0716  0.1709
  244loPI   C3A 3897  10.797  17.201   7.506 -0.0762 -0.3407  0.2078
  244loPI   C4A 3898  10.950  17.274   7.042  0.1326  0.0025 -0.0824
  244loPI   C5A 3899  10.849  17.356   6.644 -0.1990  0.3384  0.2618
  244loPI   C6A 3900  10.847  17.595   6.373 -0.1786  0.0456  0.1430
  244loPI   C1B 3901  10.512  17.399   7.947  0.0790 -0.3787 -0.0735
  244loPI   C2B 3902  10.481  17.586   7.545 -0.1628  0.0313 -0.1597
  244loPI   C3B 3903  10.537  17.793   7.109  0.0867  0.2624  0.0904
  244loPI   C4B 3904  10.788  17.859   6.863 -0.1826  0.0321  0.4154
  245loPI    C1 3905  17.618   6.800   9.903 -0.1929  0.0465  0.0071
  245loPI    C2 3906  17.697   7.004   9.568 -0.0932  0.1043  0.0655
  245loPI    C3 3907  17.882   7.101   9.910 -0.1209 -0.0185  0.1156
  245loPI   PO4 3908  17.419   6.611   9.694  0.0696 -0.5586  0.2997
  245loPI   GL1 3909  17.407   6.655   9.296  0.4263 -0.2377 -0.1335
  245loPI   GL2 3910  17.187   6.303   9.442  0.2455  0.0231  0.2258
  245loPI   C1A 3911  17.308   6.627   8.899  0.0765  0.0644 -0.0389
  245loPI   C2A 3912  17.420   6.561   8.504  0.1286  0.0449  0.2195
  245loPI   C3A 3913  17.713   6.702   8.261  0.1132  0.4143  0.1245
  245loPI   C4A 3914  17.398   6.552   7.994 -0.3287 -0.1334 -0.2160
  245loPI   C5A 3915  17.319   6.618   7.573  0.1135 -0.1630  0.1949
  245loPI   C6A 3916  17.293   6.417   7.137  0.1920  0.1578  0.2197
  245loPI   C1B 3917  16.997   6.303   9.075  0.0510 -0.2240  0.1028
  245loPI   C2B 3918  16.922   6.426   8.655  0.2176 -0.0779  0.5511
  245loPI   C3B 3919  16.953   6.613   8.276  0.0268 -0.1684  0.2512
  245loPI   C4B 3920  17.008   6.806   7.905  0.3278  0.2487 -0.0146
  246loPI    C1 3921   1.520  18.178   9.596 -0.1892 -0.0361 -0.1036
  246loPI    C2 3922   1.780  18.129   9.896 -0.1710 -0.1289 -0.1342
  246loPI    C3 3923   1.410  18.263   9.971 -0.1210 -0.0151 -0.0882
  246loPI   PO4 3924   1.695  18.320   9.392 -0.0600 -0.1926  0.0047
  246loPI   GL1 3925   1.863  18.298   8.921  0.2528 -0.0319 -0.0011
  246loPI   GL2 3926   1.808  18.708   8.755  0.0171  0.1318  0.3429
  246loPI   C1A 3927   1.615  18.366   8.455 -0.1256  0.1314 -0.0843
  246loPI   C2A 3928   1.591  18.036   8.206 -0.0374 -0.0467 -0.0237
  246loPI   C3A 3929   1.511  17.579   7.856 -0.0106 -0.3560 -0.4397
  246loPI   C4A 3930   1.510  17.584   7.342  0.1203  0.0146  0.4111
  246loPI   C5A 3931   1.544  17.866   7.025  0.0283 -0.3292 -0.0255
  246loPI   C6A 3932   1.988  17.966   6.836 -0.0423 -0.0917 -0.2804
  246loPI   C1B 3933   1.884  18.771   8.270 -0.1263  0.2551 -0.3021
  246loPI   C2B 3934   2.376  18.763   8.138  0.1573 -0.1008  0.1422
  246loPI   C3B 3935   2.835  18.741   8.217 -0.1706  0.0472  0.0941
  246loPI   C4B 3936   3.074  18.801   8.589 -0.3522 -0.0984  0.1754
  247loPI    C1 3937  19.429   7.499   9.938  0.0846  0.1838  0.1483
  247loPI    C2 3938  19.216   7.835   9.896 -0.0493  0.1079  0.2144
  247loPI    C3 3939  19.075   7.535  10.119  0.1610  0.0850  0.3194
  247loPI   PO4 3940  19.592   7.620   9.735 -0.2673 -0.3534  0.1727
  247loPI   GL1 3941  19.514   7.632   9.352 -0.1798  0.1185  0.2782
  247loPI   GL2 3942  19.191   7.691   9.346 -0.5457 -0.0582  0.2062
  247loPI   C1A 3943  19.664   7.773   9.029  0.1166 -0.0791 -0.1836
  247loPI   C2A 3944  19.617   7.852   8.522  0.0735 -0.1655 -0.1988
  247loPI   C3A 3945  19.491   7.775   8.039 -0.1614 -0.2824 -0.3988
  247loPI   C4A 3946  19.504   7.788   7.637  0.0459  0.2444 -0.0686
  247loPI   C5A 3947  19.650   7.652   7.258  0.0605 -0.0091 -0.0014
  247loPI   C6A 3948  19.591   7.759   6.893 -0.4044 -0.0369  0.0868
  247loPI   C1B 3949  19.101   7.859   8.967 -0.3596  0.0968 -0.0731
  247loPI   C2B 3950  18.820   8.073   8.739 -0.0274  0.3711  0.1591
  247loPI   C3B 3951  18.602   8.072   8.481  0.2280  0.3518 -0.0338
  247loPI   C4B 3952  18.464   7.798   8.085 -0.2013  0.1594 -0.1718
  248loPI    C1 3953   2.124   2.698   9.380  0.1072  0.1769 -0.0070
  248loPI    C2 3954   1.748   2.715   9.515  0.0449 -0.0144 -0.1509
  248loPI    C3 3955   2.054   2.751   9.770 -0.0707 -0.0356 -0.0083
  248loPI   PO4 3956   2.024   2.831   9.067  0.0490  0.1489  0.0621
  248loPI   GL1 3957   2.207   3.007   8.679  0.1031  0.3260 -0.0057
  248loPI   GL2 3958   2.318   3.337   8.693 -0.0808  0.1205 -0.0083
  248loPI   C1A 3959   1.983   2.876   8.270 -0.2506 -0.2218  0.2103
  248loPI   C2A 3960   2.172   2.760   7.903 -0.1610 -0.1650  0.0587
  248loPI   C3A 3961   1.931   2.643   7.607 -0.0503  0.2124 -0.1162
  248loPI   C4A 3962   2.048   2.364   7.188  0.2008  0.1922 -0.1181
  248loPI   C5A 3963   2.286   2.241   6.791 -0.0814 -0.3529 -0.0663
  248loPI   C6A 3964   2.552   2.204   6.443  0.0584 -0.0361 -0.2823
  248loPI   C1B 3965   2.291   3.246   8.237  0.0139 -0.0579  0.1471
  248loPI   C2B 3966   2.285   3.285   7.790  0.1077  0.0274 -0.1504
  248loPI   C3B 3967   2.207   3.193   7.284 -0.0274  0.1766 -0.0328
  248loPI   C4B 3968   2.184   3.097   6.810 -0.1560 -0.2475 -0.1896
  249loPI    C1 3969   6.458   6.805   9.158  0.0884  0.0939 -0.0210
  249loPI    C2 3970   6.482   6.743   9.552 -0.1556 -0.1793 -0.0455
  249loPI    C3 3971   6.155   6.912   9.395 -0.0596 -0.0723 -0.1323
  249loPI   PO4 3972   6.670   6.918   9.131  0.0857 -0.1959  0.0908
  249loPI   GL1 3973   6.830   7.222   8.872  0.3661  0.0196 -0.2316
  249loPI   GL2 3974   6.886   7.570   8.780 -0.1993 -0.1271  0.4485
  249loPI   C1A 3975   7.009   7.155   8.483 -0.0998  0.1263  0.0522
  249loPI   C2A 3976   6.866   7.227   8.070 -0.2297  0.0063  0.0264
  249loPI   C3A 3977   6.720   7.367   7.718  0.0705  0.0263  0.1463
  249loPI   C4A 3978   6.653   7.562   7.222 -0.0282  0.1225 -0.4081
  249loPI   C5A 3979   6.674   7.811   6.936  0.2797 -0.1050  0.0424
  249loPI   C6A 3980   6.458   8.015   6.703 -0.0384  0.1657 -0.1165
  249loPI   C1B 3981   6.790   7.610   8.409 -0.0972 -0.3089  0.0951
  249loPI   C2B 3982   6.790   7.810   7.957 -0.1605 -0.4487  0.0393
  249loPI   C3B 3983   6.791   8.057   7.647 -0.0268  0.2478 -0.1065
  249loPI   C4B 3984   6.776   8.190   7.207 -0.2094  0.0292 -0.0349
  250loPI    C1 3985   2.596   5.832   9.112  0.0863  0.0703  0.0386
  250loPI    C2 3986   2.772   5.996   9.432  0.1380 -0.0752  0.0851
  250loPI    C3 3987   2.414   5.821   9.467  0.1891 -0.1809  0.0856
  250loPI   PO4 3988   2.716   5.613   9.036 -0.1392 -0.1134  0.2763
  250loPI   GL1 3989   3.057   5.646   8.711 -0.0740 -0.1935  0.0844
  250loPI   GL2 3990   3.143   5.986   8.646 -0.0441  0.5667 -0.2450
  250loPI   C1A 3991   3.109   5.651   8.173  0.0750 -0.0048  0.2036
  250loPI   C2A 3992   3.222   5.475   7.725 -0.0782 -0.2125  0.1649
  250loPI   C3A 3993   3.088   5.463   7.122 -0.0744  0.0040 -0.2736
  250loPI   C4A 3994   3.331   5.496   6.728 -0.0808  0.0567  0.2982
  250loPI   C5A 3995   3.290   5.421   6.405 -0.2336  0.0053 -0.0563
  250loPI   C6A 3996   3.183   5.073   6.003  0.0418  0.1271 -0.1915
  250loPI   C1B 3997   2.832   6.095   8.291 -0.1897  0.1344 -0.0537
  250loPI   C2B 3998   2.921   5.983   7.769 -0.2302  0.0277  0.2136
  250loPI   C3B 3999   3.102   5.984   7.353 -0.1491 -0.2096 -0.1217
  250loPI   C4B 4000   3.187   6.072   6.914 -0.1900  0.0535  0.1114
  251loPI    C1 4001   8.572  10.556   9.572  0.0660 -0.2411  0.1434
  251loPI    C2 4002   8.187  10.462   9.513  0.0155  0.2824 -0.4684
  251loPI    C3 4003   8.290  10.707   9.812 -0.0706 -0.1578 -0.0665
  251loPI   PO4 4004   8.613  10.522   9.301 -0.1893  0.0095  0.0295
  251loPI   GL1 4005   8.617  10.508   8.849  0.1818 -0.1732  0.3134
  251loPI   GL2 4006   8.926  10.551   8.784 -0.2105  0.0417 -0.0158
  251loPI   C1A 4007   8.524  10.284   8.528 -0.2216  0.1111  0.0283
  251loPI   C2A 4008   8.674  10.351   8.269  0.1582  0.0423 -0.3584
  251loPI   C3A 4009   8.679  10.422   7.892  0.2507  0.1265 -0.1766
  251loPI   C4A 4010   8.823  10.456   7.573 -0.1569 -0.0676  0.2884
  251loPI   C5A 4011   8.608  10.432   7.211  0.2308 -0.0062 -0.2833
  251loPI   C6A 4012   8.358  10.386   6.862  0.0639  0.2525  0.0677
  251loPI   C1B 4013   9.022  10.698   8.431 -0.1422 -0.3200  0.1297
  251loPI   C2B 4014   9.042  10.829   7.945 -0.2285 -0.0162  0.0423
  251loPI   C3B 4015   9.089  11.040   7.549 -0.1249 -0.2732 -0.0241
  251loPI   C4B 4016   9.109  10.797   7.143  0.2619  0.5322 -0.2698
  252loPI    C1 4017   6.472  12.746   9.634  0.1011 -0.1608  0.0653
  252loPI    C2 4018   6.161  12.984   9.714  0.0867 -0.0747 -0.2343
  252loPI    C3 4019   6.384  12.840  10.013  0.0891  0.3060 -0.0465
  252loPI   PO4 4020   6.548  12.824   9.426 -0.3435  0.0325 -0.1804
  252loPI   GL1 4021   6.579  12.868   9.047  0.0796 -0.4077 -0.3871
  252loPI   GL2 4022   6.887  12.981   8.887  0.2912  0.1924  0.0601
  252loPI   C1A 4023   6.221  12.901   8.741 -0.2481 -0.3538 -0.1337
  252loPI   C2A 4024   6.179  12.875   8.383 -0.0766 -0.1185 -0.0317
  252loPI   C3A 4025   6.284  12.986   7.895 -0.0832  0.0687 -0.3000
  252loPI   C4A 4026   6.321  12.898   7.444 -0.2694 -0.1390  0.0247
  252loPI   C5A 4027   6.322  12.852   7.047  0.1337  0.0105 -0.0356
  252loPI   C6A 4028   6.183  13.097   6.725  0.0703  0.1047  0.2514
  252loPI   C1B 4029   6.736  12.804   8.446  0.2512  0.0431  0.0982
  252loPI   C2B 4030   6.698  12.995   8.159  0.0143  0.1253  0.3191
  252loPI   C3B 4031   6.866  12.904   7.673  0.2061 -0.3205  0.1868
  252loPI   C4B 4032   6.760  12.972   7.217 -0.0536  0.4851  0.0824
  253loPI    C1 4033  15.101  19.595   9.560 -0.1514 -0.1217  0.2362
  253loPI    C2 4034  15.155  19.853   9.861  0.1924 -0.1650  0.2158
  253loPI    C3 4035  15.262  19.470   9.904  0.0359 -0.2213  0.1143
  253loPI   PO4 4036  15.185  19.691   9.416  0.2417 -0.1512  0.0222
  253loPI   GL1 4037  15.394  19.735   9.072 -0.2216  0.1716  0.1720
  253loPI   GL2 4038  15.672  19.913   9.135 -0.0183 -0.1319  0.3847
  253loPI   C1A 4039  15.274  19.713   8.673  0.0832  0.1132 -0.0470
  253loPI   C2A 4040  15.187  19.661   8.294  0.1469 -0.3709 -0.4324
  253loPI   C3A 4041  15.450  19.767   7.895 -0.0558  0.1112 -0.4074
  253loPI   C4A 4042  15.403  19.918   7.448 -0.0815 -0.1147  0.2589
  253loPI   C5A 4043  15.656  19.833   7.111  0.0868  0.0623 -0.0319
  253loPI   C6A 4044  15.963  19.719   6.949 -0.0781  0.1649  0.1359
  253loPI   C1B 4045  15.804  19.727   8.654  0.2047  0.0779 -0.1712
  253loPI   C2B 4046  15.798  19.739   8.217  0.0763  0.2968  0.2684
  253loPI   C3B 4047  15.886  19.784   7.697 -0.1268 -0.1067 -0.0377
  253loPI   C4B 4048  15.978  20.013   7.410 -0.2503  0.0997 -0.1250
  254loPI    C1 4049  16.915  10.072   9.785  0.1623  0.0284  0.0685
  254loPI    C2 4050  17.029   9.690   9.758 -0.3151 -0.1158  0.0017
  254loPI    C3 4051  16.831   9.817  10.081  0.0369  0.1340  0.1253
  254loPI   PO4 4052  16.720  10.176   9.463 -0.0232 -0.1386  0.0111
  254loPI   GL1 4053  16.916  10.228   9.005 -0.0663  0.2977  0.2749
  254loPI   GL2 4054  16.600  10.471   9.146  0.0158  0.1206  0.1371
  254loPI   C1A 4055  16.603  10.203   8.659  0.0600  0.1864  0.1807
  254loPI   C2A 4056  16.561  10.316   8.274 -0.1570 -0.3004  0.1237
  254loPI   C3A 4057  16.470  10.216   7.802 -0.1425  0.1903 -0.1823
  254loPI   C4A 4058  16.568  10.296   7.329  0.0219  0.0663 -0.1805
  254loPI   C5A 4059  16.600   9.976   6.997 -0.3066  0.1736 -0.2377
  254loPI   C6A 4060  16.676   9.771   6.640  0.0101  0.2263 -0.0431
  254loPI   C1B 4061  16.150  10.207   8.952 -0.2426  0.1794  0.1354
  254loPI   C2B 4062  15.989  10.213   8.528 -0.0249 -0.0410 -0.3668
  254loPI   C3B 4063  16.044  10.224   8.142  0.3859  0.3952 -0.1531
  254loPI   C4B 4064  15.957  10.275   7.727 -0.0684 -0.2138 -0.1105
  255loPI    C1 4065   8.592   8.104   9.666  0.0090 -0.2245  0.3077
  255loPI    C2 4066   8.629   8.464   9.834 -0.1581 -0.1640  0.2165
  255loPI    C3 4067   8.946   8.223   9.808  0.0342  0.1069 -0.0175
  255loPI   PO4 4068   8.418   8.101   9.398 -0.1655 -0.0670 -0.1611
  255loPI   GL1 4069   8.511   7.868   9.021  0.0389 -0.0082  0.1387
  255loPI   GL2 4070   8.236   8.040   8.920 -0.0282 -0.0236  0.1345
  255loPI   C1A 4071   8.399   7.830   8.524 -0.2336  0.2980 -0.1899
  255loPI   C2A 4072   8.291   7.679   8.111 -0.1990  0.2489  0.1744
  255loPI   C3A 4073   8.171   7.434   7.710 -0.1860  0.2826 -0.0664
  255loPI   C4A 4074   8.219   7.590   7.406 -0.0577  0.0339  0.0766
  255loPI   C5A 4075   8.063   7.671   7.010 -0.2241  0.3100 -0.0546
  255loPI   C6A 4076   8.064   7.582   6.572  0.1722  0.0923  0.3035
  255loPI   C1B 4077   8.201   8.350   8.460  0.0460  0.1839  0.1768
  255loPI   C2B 4078   8.184   8.345   8.015 -0.2172 -0.3564 -0.1734
  255loPI   C3B 4079   8.336   8.633   7.710 -0.2028 -0.1240 -0.1370
  255loPI   C4B 4080   8.547   9.001   7.739 -0.2677  0.1542 -0.2308
  256loPI    C1 4081  18.930  15.023   9.544 -0.0742 -0.1813 -0.0545
  256loPI    C2 4082  19.179  15.088   9.850 -0.0315 -0.0985 -0.1064
  256loPI    C3 4083  18.791  15.015   9.919 -0.0850  0.2305 -0.0453
  256loPI   PO4 4084  18.998  15.205   9.348  0.0473  0.3242  0.0509
  256loPI   GL1 4085  19.205  15.393   9.019  0.0978  0.0756  0.3873
  256loPI   GL2 4086  19.264  15.174   8.738 -0.0815  0.2249  0.0889
  256loPI   C1A 4087  18.818  15.288   8.707 -0.1911 -0.1550 -0.2213
  256loPI   C2A 4088  18.697  15.415   8.324  0.3091 -0.3577 -0.1222
  256loPI   C3A 4089  18.518  15.247   7.917  0.0732  0.2108  0.0218
  256loPI   C4A 4090  18.430  15.187   7.587 -0.0396  0.1433 -0.0387
  256loPI   C5A 4091  18.373  15.104   7.153  0.0162 -0.0031  0.2261
  256loPI   C6A 4092  18.376  15.294   6.692 -0.0206  0.0036 -0.1993
  256loPI   C1B 4093  19.072  14.997   8.425 -0.0859 -0.0321 -0.0947
  256loPI   C2B 4094  18.982  14.995   7.999  0.0421 -0.0267 -0.1194
  256loPI   C3B 4095  18.900  15.145   7.619  0.1480 -0.3094  0.0602
  256loPI   C4B 4096  18.857  15.345   7.177  0.3764 -0.2119 -0.2111
  257loPI    C1 4097   1.563   3.870   9.371 -0.0690  0.0054 -0.0474
  257loPI    C2 4098   1.217   4.030   9.490 -0.0298  0.0662 -0.0151
  257loPI    C3 4099   1.548   4.085   9.708 -0.0098 -0.0328 -0.0203
  257loPI   PO4 4100   1.657   3.842   9.083  0.1695  0.0586  0.0273
  257loPI   GL1 4101   1.989   3.638   8.896 -0.0182  0.1506  0.1124
  257loPI   GL2 4102   2.207   3.910   8.628 -0.0103 -0.4263 -0.1762
  257loPI   C1A 4103   1.910   3.462   8.459 -0.1623 -0.2611 -0.0278
  257loPI   C2A 4104   1.795   3.328   7.993 -0.1292 -0.0218  0.0556
  257loPI   C3A 4105   1.814   3.190   7.556 -0.2190  0.0837 -0.0354
  257loPI   C4A 4106   1.820   2.838   7.192  0.0166 -0.0774 -0.1377
  257loPI   C5A 4107   1.637   2.910   6.882  0.4389 -0.0035 -0.4625
  257loPI   C6A 4108   1.623   3.223   6.604  0.2054 -0.1710 -0.1194
  257loPI   C1B 4109   2.164   3.913   8.291 -0.0546 -0.0936 -0.3074
  257loPI   C2B 4110   2.034   3.758   7.966  0.1839  0.0054  0.0858
  257loPI   C3B 4111   2.162   3.653   7.540  0.3816 -0.2327  0.4360
  257loPI   C4B 4112   1.938   3.544   7.022 -0.1552  0.1659 -0.0299
  258loPI    C1 4113  11.178  15.149   9.565  0.0262  0.0204 -0.0280
  258loPI    C2 4114  11.059  14.785   9.680 -0.0575  0.0849  0.0925
  258loPI    C3 4115  10.826  15.102   9.750  0.0048  0.1591 -0.0326
  258loPI   PO4 4116  11.222  15.236   9.222 -0.0039  0.3683 -0.3521
  258loPI   GL1 4117  11.366  15.021   8.848  0.1839 -0.0378  0.1606
  258loPI   GL2 4118  11.689  14.971   8.932 -0.2353  0.0010  0.0637
  258loPI   C1A 4119  11.302  15.071   8.526  0.1514 -0.3610 -0.2008
  258loPI   C2A 4120  11.090  15.193   8.034  0.2516  0.0386  0.2049
  258loPI   C3A 4121  11.053  15.375   7.646  0.2108 -0.1091  0.1689
  258loPI   C4A 4122  10.914  15.256   7.258 -0.0440  0.0409  0.1704
  258loPI   C5A 4123  10.805  15.094   6.814 -0.1890  0.0580  0.0578
  258loPI   C6A 4124  10.918  14.805   6.424 -0.1766  0.0512 -0.1781
  258loPI   C1B 4125  11.737  14.777   8.573 -0.0131  0.1025 -0.1452
  258loPI   C2B 4126  11.815  14.527   8.145  0.2793 -0.0899 -0.1323
  258loPI   C3B 4127  12.035  14.690   7.686  0.0903  0.0136  0.0387
  258loPI   C4B 4128  12.343  14.997   7.468  0.0116  0.1552 -0.0527
  259loPI    C1 4129   3.718   2.445   9.415  0.1934  0.2035  0.0254
  259loPI    C2 4130   3.739   2.546   9.801 -0.0255  0.1674  0.0476
  259loPI    C3 4131   3.388   2.443   9.640  0.1208 -0.1463 -0.0786
  259loPI   PO4 4132   3.808   2.607   9.227  0.2446  0.2009  0.0862
  259loPI   GL1 4133   3.905   2.534   8.834 -0.4026 -0.2045 -0.2396
  259loPI   GL2 4134   3.951   2.847   8.758  0.1039  0.1404 -0.0347
  259loPI   C1A 4135   3.685   2.654   8.391 -0.1763  0.1177  0.2362
  259loPI   C2A 4136   3.879   2.647   7.934 -0.0989 -0.0025 -0.1730
  259loPI   C3A 4137   3.949   2.789   7.446 -0.0517  0.0742  0.0560
  259loPI   C4A 4138   3.980   2.696   7.161 -0.4298 -0.2960  0.2214
  259loPI   C5A 4139   4.071   2.507   6.737  0.0224  0.0815 -0.0339
  259loPI   C6A 4140   4.499   2.357   6.589 -0.1105 -0.1627  0.0919
  259loPI   C1B 4141   4.128   2.889   8.325  0.4513  0.1747  0.0280
  259loPI   C2B 4142   4.325   2.788   7.865  0.0307 -0.0749 -0.0766
  259loPI   C3B 4143   4.406   2.692   7.469 -0.3134  0.0256  0.0909
  259loPI   C4B 4144   4.467   2.482   7.075 -0.0617 -0.2027  0.1162
  260loPI    C1 4145   7.915  13.067   9.635 -0.0628 -0.0539  0.0194
  260loPI    C2 4146   7.787  13.432   9.740  0.2058  0.0765 -0.0969
  260loPI    C3 4147   7.926  13.181  10.019 -0.2098 -0.0341  0.0185
  260loPI   PO4 4148   7.762  13.067   9.361 -0.1530 -0.2018  0.0560
  260loPI   GL1 4149   7.755  12.819   9.011  0.0189  0.1812  0.2396
  260loPI   GL2 4150   8.035  12.903   8.650  0.1248  0.3313  0.1484
  260loPI   C1A 4151   7.429  12.859   8.660 -0.1506  0.2452 -0.1165
  260loPI   C2A 4152   7.266  12.984   8.318 -0.2232 -0.2016  0.0544
  260loPI   C3A 4153   7.404  13.259   8.037  0.1181  0.4109  0.0731
  260loPI   C4A 4154   7.490  13.327   7.552  0.2685 -0.2191 -0.1619
  260loPI   C5A 4155   7.546  13.238   7.089 -0.0544 -0.2427 -0.2746
  260loPI   C6A 4156   7.649  13.008   6.725  0.0763  0.0560 -0.1327
  260loPI   C1B 4157   7.921  13.167   8.290  0.0938 -0.1935 -0.2703
  260loPI   C2B 4158   7.973  13.326   7.839  0.0258  0.2329  0.0676
  260loPI   C3B 4159   8.015  13.029   7.572 -0.0291  0.1380  0.1496
  260loPI   C4B 4160   7.755  12.638   7.396  0.0391 -0.4385  0.0079
  261loPI    C1 4161  10.417  10.078   9.372  0.1635 -0.2224  0.1102
  261loPI    C2 4162  10.487   9.870   9.707 -0.1143  0.1438  0.4054
  261loPI    C3 4163  10.361  10.249   9.730  0.0415  0.2358 -0.1198
  261loPI   PO4 4164  10.390   9.877   9.219  0.1198  0.3571 -0.2911
  261loPI   GL1 4165  10.352   9.848   8.883 -0.1616  0.0595  0.1156
  261loPI   GL2 4166  10.288   9.593   8.748 -0.1668  0.3957 -0.0615
  261loPI   C1A 4167  10.120  10.056   8.522 -0.3237 -0.1756 -0.0212
  261loPI   C2A 4168  10.126  10.165   8.071  0.0495  0.2899  0.1065
  261loPI   C3A 4169  10.062  10.121   7.659 -0.0983  0.1722 -0.0753
  261loPI   C4A 4170  10.089  10.088   7.259 -0.5794  0.1060 -0.3990
  261loPI   C5A 4171   9.853   9.997   6.840  0.1079 -0.0203 -0.1993
  261loPI   C6A 4172   9.780   9.713   6.498  0.0390 -0.0916  0.0785
  261loPI   C1B 4173  10.421   9.615   8.293  0.1580  0.0347  0.1269
  261loPI   C2B 4174  10.414   9.755   7.878  0.0583  0.0951 -0.1298
  261loPI   C3B 4175  10.518   9.672   7.435  0.0488  0.3633  0.0772
  261loPI   C4B 4176  10.428   9.600   7.073 -0.0830  0.0020  0.0044
  262loPI    C1 4177   8.377   1.831   9.367 -0.2434  0.0848  0.0771
  262loPI    C2 4178   8.274   2.218   9.374 -0.2343  0.0862  0.1308
  262loPI    C3 4179   8.220   1.990   9.699  0.1705  0.1495  0.2483
  262loPI   PO4 4180   8.556   1.816   9.185 -0.1252 -0.2338 -0.2945
  262loPI   GL1 4181   8.551   1.421   8.796 -0.0372 -0.0723  0.1552
  262loPI   GL2 4182   8.409   1.728   8.625 -0.0185  0.3807  0.1322
  262loPI   C1A 4183   8.608   1.339   8.428 -0.1589  0.1959 -0.3272
  262loPI   C2A 4184   8.565   1.343   8.046  0.2638  0.1718 -0.5397
  262loPI   C3A 4185   8.384   1.282   7.640  0.1786  0.0733 -0.0864
  262loPI   C4A 4186   8.590   1.234   7.161  0.0115 -0.2927 -0.0651
  262loPI   C5A 4187   8.724   1.613   6.839 -0.0217 -0.0418 -0.3112
  262loPI   C6A 4188   8.882   1.449   6.474  0.2502 -0.0847  0.1945
  262loPI   C1B 4189   8.247   1.737   8.252 -0.0520  0.0844 -0.2536
  262loPI   C2B 4190   8.134   1.722   7.833  0.2104  0.1685 -0.0249
  262loPI   C3B 4191   8.120   1.650   7.384 -0.1022 -0.1139 -0.1105
  262loPI   C4B 4192   8.214   1.539   6.892  0.1579 -0.1017 -0.0754
  263loPI    C1 4193   5.323  11.376   9.513 -0.2188 -0.0306 -0.0046
  263loPI    C2 4194   5.418  11.572   9.849 -0.2091 -0.1736  0.0768
  263loPI    C3 4195   5.313  11.186   9.865 -0.1169 -0.2070 -0.0957
  263loPI   PO4 4196   5.615  11.590   9.336 -0.1567  0.2915  0.0993
  263loPI   GL1 4197   5.742  11.751   8.995 -0.0855  0.0576  0.2384
  263loPI   GL2 4198   6.012  11.999   9.090 -0.2767  0.2948 -0.2632
  263loPI   C1A 4199   5.805  11.551   8.476  0.2994 -0.3381 -0.2277
  263loPI   C2A 4200   5.862  11.477   7.984  0.3513 -0.3097 -0.2672
  263loPI   C3A 4201   5.961  11.455   7.501 -0.1078 -0.2702 -0.1445
  263loPI   C4A 4202   5.862  11.479   7.076  0.1910  0.2343 -0.0790
  263loPI   C5A 4203   6.024  11.125   6.932 -0.2521  0.0378 -0.1755
  263loPI   C6A 4204   6.434  10.994   6.686 -0.1495 -0.0788  0.2520
  263loPI   C1B 4205   6.157  11.927   8.704  0.0908  0.0084  0.0586
  263loPI   C2B 4206   6.126  11.932   8.208 -0.0395 -0.0738  0.1623
  263loPI   C3B 4207   6.306  12.002   7.692 -0.0576 -0.0491  0.0723
  263loPI   C4B 4208   6.510  11.759   7.421  0.0850  0.0154  0.1184
  264loPI    C1 4209   6.377   1.073   9.547  0.0319  0.0289  0.1038
  264loPI    C2 4210   6.499   1.396   9.749  0.3707  0.0711 -0.1585
  264loPI    C3 4211   6.509   1.035   9.922  0.1536  0.1751  0.0769
  264loPI   PO4 4212   6.139   1.052   9.486 -0.0538 -0.0543 -0.2107
  264loPI   GL1 4213   6.125   1.009   8.929 -0.1135  0.1517  0.0887
  264loPI   GL2 4214   6.234   0.937   8.655  0.0614  0.0447  0.0164
  264loPI   C1A 4215   6.133   1.434   8.730 -0.1207 -0.1681 -0.1108
  264loPI   C2A 4216   5.942   1.507   8.327 -0.0521 -0.2666 -0.0477
  264loPI   C3A 4217   6.070   1.504   7.973 -0.2079  0.2381  0.0072
  264loPI   C4A 4218   6.010   1.257   7.566 -0.3598 -0.0738  0.1877
  264loPI   C5A 4219   5.964   1.371   7.181 -0.1206  0.0490 -0.1060
  264loPI   C6A 4220   5.984   1.721   6.873  0.1725 -0.0780 -0.0896
  264loPI   C1B 4221   5.963   1.036   8.386 -0.1963  0.1931  0.0264
  264loPI   C2B 4222   5.877   1.005   7.974  0.0141  0.2653 -0.1241
  264loPI   C3B 4223   5.953   0.722   7.695 -0.1838 -0.0665 -0.3684
  264loPI   C4B 4224   5.967   0.823   7.269  0.0350 -0.0239  0.2093
  265loPI    C1 4225   1.796   6.572   9.059  0.1316  0.0660 -0.0203
  265loPI    C2 4226   1.739   6.933   9.221  0.2032  0.0354  0.0736
  265loPI    C3 4227   2.110   6.804   9.145  0.1611  0.1780 -0.4084
  265loPI   PO4 4228   1.646   6.546   8.849 -0.0982 -0.1389 -0.0585
  265loPI   GL1 4229   1.830   6.610   8.458  0.0470  0.1333 -0.1554
  265loPI   GL2 4230   1.666   6.291   8.389  0.1902 -0.3197  0.3306
  265loPI   C1A 4231   1.878   6.751   8.019  0.2365 -0.0895  0.0319
  265loPI   C2A 4232   2.019   6.745   7.618 -0.1598 -0.1157 -0.2996
  265loPI   C3A 4233   1.912   6.825   7.186 -0.0252 -0.1766  0.0263
  265loPI   C4A 4234   1.916   6.762   6.825 -0.4489  0.4342  0.0285
  265loPI   C5A 4235   1.814   6.485   6.543  0.2370  0.5005 -0.0029
  265loPI   C6A 4236   1.740   6.531   6.118  0.3887 -0.0704  0.0851
  265loPI   C1B 4237   1.850   6.248   7.992 -0.1763 -0.1464 -0.2190
  265loPI   C2B 4238   2.078   6.247   7.579 -0.3094  0.1543 -0.1134
  265loPI   C3B 4239   2.176   6.352   7.204 -0.1218 -0.0395  0.1380
  265loPI   C4B 4240   2.251   6.337   6.759  0.1212  0.0417 -0.0696
  266loPI    C1 4241  12.836   8.841   8.956  0.3362  0.0776 -0.2393
  266loPI    C2 4242  12.783   9.055   9.290  0.0884  0.0484 -0.2583
  266loPI    C3 4243  12.911   8.677   9.313 -0.0319  0.0114 -0.1889
  266loPI   PO4 4244  12.630   8.895   8.822 -0.0058  0.0721 -0.0900
  266loPI   GL1 4245  12.298   8.979   8.571 -0.7174 -0.2302 -0.1583
  266loPI   GL2 4246  12.301   9.292   8.648  0.2504 -0.1203  0.2277
  266loPI   C1A 4247  12.171   8.736   8.292 -0.2817  0.4034  0.0766
  266loPI   C2A 4248  12.397   8.424   7.987 -0.0272  0.3973  0.0011
  266loPI   C3A 4249  12.375   8.202   7.637  0.1710 -0.1299  0.1230
  266loPI   C4A 4250  12.117   7.819   7.415  0.6092 -0.2625 -0.0876
  266loPI   C5A 4251  11.974   7.671   6.906  0.3745  0.0744 -0.0633
  266loPI   C6A 4252  11.939   7.205   6.884 -0.0439 -0.1537 -0.1315
  266loPI   C1B 4253  12.417   9.414   8.275  0.0809  0.1810 -0.0606
  266loPI   C2B 4254  12.408   9.472   7.762  0.1701 -0.2094 -0.2124
  266loPI   C3B 4255  12.124   9.355   7.388 -0.1158 -0.2310 -0.2899
  266loPI   C4B 4256  12.025   9.301   6.965 -0.4412  0.0149  0.2506
  267loPI    C1 4257  13.021  15.786   9.604  0.0749 -0.0597 -0.0987
  267loPI    C2 4258  12.808  15.448   9.627  0.0516 -0.0292  0.1546
  267loPI    C3 4259  13.138  15.492   9.849  0.1527  0.0452 -0.0087
  267loPI   PO4 4260  12.984  15.841   9.205  0.2644 -0.1397 -0.1431
  267loPI   GL1 4261  13.094  15.837   8.804  0.0109 -0.3087  0.3024
  267loPI   GL2 4262  13.401  15.603   8.833 -0.0918  0.1162 -0.0468
  267loPI   C1A 4263  12.941  15.492   8.551 -0.2728  0.1732 -0.0509
  267loPI   C2A 4264  12.969  15.292   8.011 -0.2444 -0.1399 -0.4279
  267loPI   C3A 4265  12.856  15.305   7.623 -0.3184 -0.0505 -0.2188
  267loPI   C4A 4266  12.696  15.172   7.194  0.1976  0.1217 -0.2208
  267loPI   C5A 4267  12.440  15.062   6.830 -0.0079  0.1803 -0.3100
  267loPI   C6A 4268  12.052  14.900   6.548  0.0881 -0.2204 -0.0936
  267loPI   C1B 4269  13.715  15.490   8.608  0.3609  0.0449  0.1086
  267loPI   C2B 4270  13.774  15.491   8.220  0.2282 -0.0484  0.0524
  267loPI   C3B 4271  14.029  15.256   7.923  0.0354 -0.0933 -0.2066
  267loPI   C4B 4272  13.938  15.149   7.474  0.0365 -0.1977 -0.0797
  268loPI    C1 4273  11.598  19.651   9.503 -0.1844 -0.2897 -0.1031
  268loPI    C2 4274  11.646  19.885   9.824  0.2010 -0.2522 -0.1833
  268loPI    C3 4275  11.389  19.578   9.836  0.2429 -0.2779  0.1753
  268loPI   PO4 4276  11.592  19.840   9.234  0.0723  0.4035  0.1652
  268loPI   GL1 4277  11.921  19.893   8.913 -0.2727  0.1249 -0.3005
  268loPI   GL2 4278  12.041  20.153   9.027 -0.0908 -0.1813  0.0201
  268loPI   C1A 4279  11.977  19.766   8.499 -0.0069 -0.1886  0.0961
  268loPI   C2A 4280  11.892  19.798   8.069  0.0024  0.0733 -0.1205
  268loPI   C3A 4281  11.760  19.751   7.650  0.0899 -0.1772  0.0503
  268loPI   C4A 4282  11.949  19.788   7.159 -0.2649 -0.3855 -0.3493
  268loPI   C5A 4283  12.262  19.912   6.963  0.2639 -0.1823 -0.2812
  268loPI   C6A 4284  12.177  20.116   6.581  0.0847  0.2996 -0.3620
  268loPI   C1B 4285  12.044  20.338   8.654  0.0558 -0.0663  0.0003
  268loPI   C2B 4286  12.096  20.260   8.260  0.1107  0.1060 -0.0375
  268loPI   C3B 4287  11.873  20.297   7.988  0.2888 -0.0144 -0.0537
  268loPI   C4B 4288  11.788  20.224   7.550 -0.3869  0.1590  0.1228
  269loPI    C1 4289  11.037   7.058   9.370  0.0606  0.0839  0.1444
  269loPI    C2 4290  11.314   7.083   9.658 -0.0780 -0.0858  0.2954
  269loPI    C3 4291  11.237   6.731   9.484 -0.0509  0.0011  0.1043
  269loPI   PO4 4292  11.104   7.224   9.113  0.1033 -0.3865  0.1549
  269loPI   GL1 4293  11.150   7.149   8.627  0.0867  0.0196 -0.1791
  269loPI   GL2 4294  10.754   7.141   8.767 -0.4402  0.1474  0.0819
  269loPI   C1A 4295  11.255   7.197   8.296  0.0452 -0.3828 -0.1554
  269loPI   C2A 4296  11.250   7.206   7.906  0.1583 -0.2966 -0.3998
  269loPI   C3A 4297  11.261   7.348   7.488 -0.2701 -0.3510  0.0388
  269loPI   C4A 4298  11.496   7.463   7.030 -0.0338  0.2047 -0.0402
  269loPI   C5A 4299  11.464   7.455   6.707  0.1677  0.0026  0.1635
  269loPI   C6A 4300  11.841   7.410   6.429 -0.1656  0.3265  0.2266
  269loPI   C1B 4301  10.769   7.121   8.300  0.3447  0.0965  0.2407
  269loPI   C2B 4302  10.765   7.294   7.934 -0.1194  0.1659 -0.0688
  269loPI   C3B 4303  10.690   7.214   7.558 -0.2683 -0.1459 -0.3253
  269loPI   C4B 4304  10.722   7.265   7.142  0.0832 -0.2546 -0.3070
  270loPI    C1 4305  16.152  13.460   9.795  0.2009 -0.2710  0.2697
  270loPI    C2 4306  15.793  13.509   9.963  0.1460  0.1258  0.0502
  270loPI    C3 4307  15.940  13.141   9.908 -0.2773 -0.0465  0.0348
  270loPI   PO4 4308  16.150  13.814   9.745  0.0834 -0.0715  0.2054
  270loPI   GL1 4309  16.210  13.966   9.333 -0.0444  0.3027 -0.0276
  270loPI   GL2 4310  16.461  14.157   9.197  0.0096  0.1718 -0.1831
  270loPI   C1A 4311  16.118  13.918   8.859  0.1006  0.1862 -0.0940
  270loPI   C2A 4312  15.900  13.811   8.457 -0.4123 -0.1718 -0.4789
  270loPI   C3A 4313  15.783  13.943   7.974  0.1951  0.1287  0.0644
  270loPI   C4A 4314  15.616  14.094   7.551 -0.1471 -0.2028 -0.1625
  270loPI   C5A 4315  15.688  14.008   7.133  0.2904 -0.2978 -0.0068
  270loPI   C6A 4316  15.750  14.149   6.738 -0.2229 -0.0022  0.1033
  270loPI   C1B 4317  16.399  14.362   8.895 -0.1318 -0.0052 -0.2216
  270loPI   C2B 4318  16.176  14.320   8.494  0.0176  0.1707 -0.1185
  270loPI   C3B 4319  16.182  14.165   8.039  0.1916  0.2756  0.0048
  270loPI   C4B 4320  16.061  14.174   7.590 -0.0212  0.0941 -0.0380
  271loPI    C1 4321   0.909  16.081   9.157 -0.1440  0.1524 -0.1718
  271loPI    C2 4322   0.732  15.727   9.102 -0.1576  0.1234  0.0504
  271loPI    C3 4323   1.109  15.744   9.235 -0.1036  0.1906 -0.1091
  271loPI   PO4 4324   0.908  16.265   8.939 -0.2731  0.1778  0.0195
  271loPI   GL1 4325   0.847  16.222   8.487  0.0471 -0.4883 -0.0841
  271loPI   GL2 4326   0.679  15.930   8.635 -0.2073  0.3644 -0.2797
  271loPI   C1A 4327   0.811  16.305   8.046 -0.1902  0.0023 -0.0913
  271loPI   C2A 4328   0.943  16.331   7.622 -0.0235 -0.1526 -0.1056
  271loPI   C3A 4329   0.663  16.120   7.284 -0.0936 -0.0088 -0.2579
  271loPI   C4A 4330   0.691  15.938   6.950  0.2749 -0.2110 -0.0123
  271loPI   C5A 4331   0.778  15.887   6.597 -0.1609 -0.1017 -0.1639
  271loPI   C6A 4332   0.867  15.604   6.441  0.1082  0.0422  0.1450
  271loPI   C1B 4333   0.833  15.812   8.256 -0.0252  0.2039 -0.0393
  271loPI   C2B 4334   0.658  15.784   7.802  0.0765  0.1064 -0.1183
  271loPI   C3B 4335   0.227  15.801   7.583 -0.0063 -0.0625 -0.0804
  271loPI   C4B 4336   0.097  15.761   7.132 -0.1344  0.2638  0.0431
  272loPI    C1 4337   8.208   5.504   9.354  0.1564  0.0053 -0.0315
  272loPI    C2 4338   8.264   5.483   9.749 -0.0137 -0.0903 -0.0116
  272loPI    C3 4339   7.960   5.698   9.601  0.0799 -0.0132 -0.0934
  272loPI   PO4 4340   8.337   5.158   9.341  0.4482 -0.0781 -0.0567
  272loPI   GL1 4341   8.388   4.956   8.994  0.0068  0.0527 -0.0397
  272loPI   GL2 4342   8.567   5.330   8.952  0.3958  0.1461 -0.1175
  272loPI   C1A 4343   8.269   5.220   8.586  0.1407 -0.2081 -0.0663
  272loPI   C2A 4344   7.947   5.292   8.336  0.0606 -0.1070 -0.3295
  272loPI   C3A 4345   7.808   5.552   8.039  0.0109  0.1321 -0.1337
  272loPI   C4A 4346   7.926   5.614   7.719 -0.0258 -0.2394 -0.0173
  272loPI   C5A 4347   8.140   5.712   7.266 -0.2631  0.0148 -0.0162
  272loPI   C6A 4348   8.228   6.001   7.005  0.1594 -0.1259 -0.1735
  272loPI   C1B 4349   8.768   5.133   8.718  0.0200 -0.3308 -0.1337
  272loPI   C2B 4350   9.116   5.059   8.461  0.0935 -0.2175 -0.3431
  272loPI   C3B 4351   9.198   4.764   8.129  0.2955 -0.0534 -0.0425
  272loPI   C4B 4352   9.120   4.597   7.780  0.2076  0.0388 -0.1333
  273loPI    C1 4353   9.805  17.327   9.317 -0.1316 -0.2261 -0.0145
  273loPI    C2 4354  10.088  17.065   9.421  0.0116 -0.0932 -0.0653
  273loPI    C3 4355   9.803  17.166   9.683  0.2299  0.0570  0.1184
  273loPI   PO4 4356   9.825  17.306   9.039 -0.0245  0.0899 -0.0241
  273loPI   GL1 4357  10.085  17.535   8.701  0.0783  0.0050  0.2653
  273loPI   GL2 4358  10.053  17.769   8.556  0.1581  0.0282 -0.1674
  273loPI   C1A 4359   9.938  17.365   8.313 -0.1164  0.5112 -0.2005
  273loPI   C2A 4360  10.017  17.250   7.942 -0.3144  0.3005  0.1295
  273loPI   C3A 4361  10.021  17.389   7.589 -0.0423  0.1997 -0.1382
  273loPI   C4A 4362  10.053  17.552   7.110 -0.0138 -0.1580 -0.2043
  273loPI   C5A 4363   9.886  17.797   6.848  0.0577  0.2381  0.0601
  273loPI   C6A 4364   9.471  17.861   6.690 -0.1870 -0.0921  0.1898
  273loPI   C1B 4365  10.116  17.788   8.129  0.0797  0.0516 -0.2300
  273loPI   C2B 4366  10.176  17.899   7.748 -0.2667 -0.1131 -0.0700
  273loPI   C3B 4367  10.140  18.059   7.309  0.0646  0.2010  0.1063
  273loPI   C4B 4368  10.230  18.248   6.940  0.2794 -0.0675 -0.2587
  274loPI    C1 4369  13.122   5.647   9.881 -0.2159  0.1599  0.1883
  274loPI    C2 4370  13.220   5.261   9.923 -0.2320  0.1350  0.0023
  274loPI    C3 4371  12.877   5.398  10.077 -0.3753  0.0062 -0.1959
  274loPI   PO4 4372  13.169   5.644   9.629 -0.2251  0.1015 -0.0753
  274loPI   GL1 4373  13.235   5.508   9.128  0.0170  0.1621 -0.1319
  274loPI   GL2 4374  13.047   5.676   9.053  0.0840 -0.0074  0.1053
  274loPI   C1A 4375  13.052   5.324   8.694  0.1949  0.0780 -0.1125
  274loPI   C2A 4376  13.025   5.067   8.333 -0.2434 -0.2286 -0.2967
  274loPI   C3A 4377  12.888   5.099   7.892  0.4132 -0.0119 -0.0613
  274loPI   C4A 4378  12.871   5.084   7.502 -0.1073  0.2717  0.2659
  274loPI   C5A 4379  12.674   4.979   7.109 -0.1670 -0.2305  0.1115
  274loPI   C6A 4380  12.522   5.266   6.788 -0.1537 -0.1377  0.0949
  274loPI   C1B 4381  12.977   5.930   8.759  0.0332  0.0128 -0.2052
  274loPI   C2B 4382  13.212   6.009   8.353  0.1735 -0.1140  0.0365
  274loPI   C3B 4383  13.505   6.301   8.284  0.2856 -0.1924  0.0416
  274loPI   C4B 4384  13.593   6.761   8.359 -0.3958 -0.3346  0.0677
  275loPI    C1 4385  12.388  16.742   9.244  0.1569  0.0417  0.1778
  275loPI    C2 4386  12.388  17.056   9.492  0.3672 -0.0159  0.2526
  275loPI    C3 4387  12.233  16.707   9.611 -0.1173  0.1303  0.0730
  275loPI   PO4 4388  12.604  16.661   9.208 -0.3466 -0.0300  0.1256
  275loPI   GL1 4389  12.816  16.552   8.815 -0.1771 -0.1510 -0.1250
  275loPI   GL2 4390  12.740  16.233   8.864  0.1071 -0.1322 -0.2841
  275loPI   C1A 4391  12.976  16.861   8.502  0.1920 -0.0484  0.3312
  275loPI   C2A 4392  13.077  16.944   8.064  0.0890 -0.1880 -0.0635
  275loPI   C3A 4393  13.083  16.892   7.654 -0.0708 -0.3351  0.3092
  275loPI   C4A 4394  13.050  17.169   7.296  0.1454 -0.1465  0.0103
  275loPI   C5A 4395  13.236  17.128   6.900 -0.1573 -0.2201  0.1946
  275loPI   C6A 4396  13.447  17.313   6.608 -0.0470 -0.3541 -0.0753
  275loPI   C1B 4397  12.950  16.291   8.432  0.2592  0.0703 -0.3032
  275loPI   C2B 4398  13.066  15.827   8.225  0.0915  0.1835 -0.1545
  275loPI   C3B 4399  13.272  15.673   7.878  0.0393 -0.3275 -0.1546
  275loPI   C4B 4400  13.648  15.772   7.695  0.2149  0.0783 -0.2669
  276loPI    C1 4401   2.483  14.167   9.361 -0.0089 -0.2479  0.1860
  276loPI    C2 4402   2.210  14.017   9.110 -0.0052 -0.1323  0.1123
  276loPI    C3 4403   2.272  13.844   9.465 -0.1306 -0.1956  0.1036
  276loPI   PO4 4404   2.441  14.453   9.213  0.0860 -0.2423  0.1715
  276loPI   GL1 4405   2.347  14.346   8.759 -0.2096  0.1273  0.2433
  276loPI   GL2 4406   2.630  14.269   8.564 -0.1989 -0.3946  0.0530
  276loPI   C1A 4407   2.143  14.212   8.456 -0.1848  0.2726 -0.0177
  276loPI   C2A 4408   1.992  14.130   8.029  0.1104 -0.0077 -0.0295
  276loPI   C3A 4409   1.743  13.988   7.562 -0.0676 -0.1190 -0.1431
  276loPI   C4A 4410   1.643  14.148   7.157 -0.3026 -0.1025 -0.3690
  276loPI   C5A 4411   1.555  14.062   6.701 -0.0408  0.4256 -0.0412
  276loPI   C6A 4412   1.680  13.834   6.282  0.0636  0.1680 -0.1748
  276loPI   C1B 4413   2.575  14.582   8.312  0.2505  0.0002 -0.1796
  276loPI   C2B 4414   2.424  14.418   7.902 -0.1061 -0.1152 -0.2304
  276loPI   C3B 4415   2.481  14.465   7.579  0.0818 -0.2097  0.3224
  276loPI   C4B 4416   2.319  14.686   7.239  0.2344  0.1357  0.5987
  277loPI    C1 4417  14.396  14.587   9.502 -0.0963 -0.2038 -0.1601
  277loPI    C2 4418  14.412  14.923   9.718 -0.1757 -0.2756 -0.0409
  277loPI    C3 4419  14.741  14.787   9.534 -0.0702 -0.2930  0.1572
  277loPI   PO4 4420  14.218  14.600   9.328 -0.1182  0.1723  0.0324
  277loPI   GL1 4421  13.875  14.703   9.022  0.1033 -0.1573 -0.2240
  277loPI   GL2 4422  14.194  14.728   8.876  0.0555 -0.0486 -0.3435
  277loPI   C1A 4423  13.795  14.915   8.664  0.0223 -0.2135 -0.2363
  277loPI   C2A 4424  13.818  14.933   8.269  0.0017  0.0693  0.3820
  277loPI   C3A 4425  13.796  14.797   7.775  0.2383 -0.3173 -0.0455
  277loPI   C4A 4426  13.630  14.660   7.326 -0.0118 -0.2081  0.0376
  277loPI   C5A 4427  13.524  15.049   7.089 -0.0373 -0.2238 -0.3437
  277loPI   C6A 4428  13.928  15.309   7.001 -0.2845  0.0545  0.1953
  277loPI   C1B 4429  14.234  14.719   8.551 -0.1480 -0.1540  0.3040
  277loPI   C2B 4430  14.294  14.732   8.113  0.1604  0.1381  0.0924
  277loPI   C3B 4431  14.319  14.888   7.723  0.0824  0.0207 -0.4840
  277loPI   C4B 4432  14.200  14.736   7.330 -0.2359  0.0045  0.1194
  278loPI    C1 4433  13.781   5.735   9.489  0.0273 -0.0465  0.2306
  278loPI    C2 4434  13.620   5.682   9.851 -0.1835 -0.1986  0.1171
  278loPI    C3 4435  13.629   5.379   9.590  0.0192 -0.1063  0.0147
  278loPI   PO4 4436  13.665   5.980   9.315  0.3021  0.3693  0.0353
  278loPI   GL1 4437  13.571   5.919   8.896  0.2204 -0.0586  0.0399
  278loPI   GL2 4438  13.626   6.214   8.795  0.0196  0.1336 -0.4660
  278loPI   C1A 4439  13.813   5.557   8.879  0.0231  0.0345  0.0683
  278loPI   C2A 4440  14.006   5.442   8.442 -0.0828 -0.2273  0.0482
  278loPI   C3A 4441  13.914   5.468   8.071 -0.1399 -0.0542 -0.2326
  278loPI   C4A 4442  13.977   5.208   7.734 -0.0803  0.2808  0.0931
  278loPI   C5A 4443  13.956   5.356   7.417 -0.2602 -0.1100  0.0752
  278loPI   C6A 4444  13.905   5.587   6.962 -0.0173  0.0414 -0.0853
  278loPI   C1B 4445  13.176   6.349   8.727  0.1305 -0.1852  0.1618
  278loPI   C2B 4446  13.063   6.573   8.367 -0.1761  0.3445  0.0332
  278loPI   C3B 4447  13.164   6.641   7.914  0.0875  0.2259  0.0759
  278loPI   C4B 4448  13.190   6.590   7.535 -0.0398  0.1302  0.4214
  279loPI    C1 4449  15.826  15.586   9.678  0.0620  0.1652  0.2113
  279loPI    C2 4450  16.079  15.556   9.986  0.0180 -0.2378  0.2132
  279loPI    C3 4451  15.685  15.525  10.047 -0.0005 -0.1597  0.1368
  279loPI   PO4 4452  15.982  15.385   9.508  0.3288  0.1128 -0.2789
  279loPI   GL1 4453  16.153  15.447   9.130  0.3987 -0.1280 -0.0102
  279loPI   GL2 4454  16.038  15.140   9.067 -0.2842  0.0723 -0.0065
  279loPI   C1A 4455  16.332  15.572   8.754 -0.1065 -0.0394  0.1012
  279loPI   C2A 4456  16.629  15.534   8.442 -0.1862 -0.2539  0.4971
  279loPI   C3A 4457  16.709  15.611   8.006  0.2204  0.2076 -0.0831
  279loPI   C4A 4458  16.540  15.687   7.617 -0.1227 -0.1659 -0.2385
  279loPI   C5A 4459  16.683  15.605   7.164  0.1821 -0.0075 -0.1380
  279loPI   C6A 4460  16.628  15.393   6.777 -0.1077 -0.0039 -0.0957
  279loPI   C1B 4461  15.683  14.971   8.932  0.0603  0.1624  0.2021
  279loPI   C2B 4462  15.362  15.061   8.663  0.1974  0.0126 -0.0701
  279loPI   C3B 4463  15.260  15.176   8.236 -0.4660  0.0607 -0.0228
  279loPI   C4B 4464  15.662  15.415   8.251 -0.1575 -0.1294  0.0467
  280loPI    C1 4465   0.620  10.422   9.208  0.1388  0.1778  0.0094
  280loPI    C2 4466   0.813  10.389   9.557  0.0382 -0.1687  0.0355
  280loPI    C3 4467   0.420  10.465   9.552  0.0746  0.0215 -0.0077
  280loPI   PO4 4468   0.712  10.683   9.074 -0.0740 -0.1171 -0.1089
  280loPI   GL1 4469   0.827  10.857   8.692 -0.4778 -0.0225 -0.4067
  280loPI   GL2 4470   0.893  10.582   8.517  0.1623 -0.0054 -0.0959
  280loPI   C1A 4471   0.567  11.108   8.420 -0.0423  0.1106 -0.0110
  280loPI   C2A 4472   0.546  11.114   7.964  0.0868  0.0261 -0.1525
  280loPI   C3A 4473   0.511  11.120   7.589  0.0920 -0.1364  0.0372
  280loPI   C4A 4474   0.328  11.048   7.287  0.0830 -0.0680 -0.0277
  280loPI   C5A 4475   0.060  11.075   6.936 -0.2209  0.0088 -0.0872
  280loPI   C6A 4476   0.069  10.979   6.475 -0.3682  0.2697 -0.0843
  280loPI   C1B 4477   0.753  10.615   8.193 -0.2260 -0.0217 -0.0073
  280loPI   C2B 4478   0.703  10.693   7.797 -0.0316 -0.2545 -0.0348
  280loPI   C3B 4479   0.551  10.645   7.533 -0.2856 -0.0411  0.0351
  280loPI   C4B 4480   0.425  10.545   7.185  0.1939 -0.3634  0.0080
  281loPI    C1 4481  18.754  19.436   9.621  0.0463  0.0575  0.3723
  281loPI    C2 4482  18.851  19.284   9.264 -0.1063  0.3521  0.2016
  281loPI    C3 4483  18.948  19.088   9.598 -0.1197 -0.0156 -0.0056
  281loPI   PO4 4484  18.751  19.679   9.516 -0.1703  0.2141 -0.1310
  281loPI   GL1 4485  18.692  19.718   9.021 -0.1365  0.1112 -0.2350
  281loPI   GL2 4486  18.860  19.910   8.831  0.0662  0.1248 -0.1297
  281loPI   C1A 4487  18.716  19.408   8.727  0.2221 -0.3645  0.0270
  281loPI   C2A 4488  18.696  19.136   8.422 -0.2729  0.0007  0.2341
  281loPI   C3A 4489  18.732  19.224   8.036  0.0074  0.1306  0.0693
  281loPI   C4A 4490  18.909  19.088   7.596  0.1709 -0.1471  0.3514
  281loPI   C5A 4491  18.891  19.358   7.173  0.1965 -0.2376 -0.0447
  281loPI   C6A 4492  18.477  19.325   6.933  0.2185  0.1782  0.2349
  281loPI   C1B 4493  19.110  19.902   8.477  0.0139 -0.0899 -0.2987
  281loPI   C2B 4494  19.392  19.799   8.217  0.0331 -0.1622 -0.0883
  281loPI   C3B 4495  19.632  19.773   7.845  0.1859  0.0622 -0.0328
  281loPI   C4B 4496  19.586  19.889   7.413 -0.1833  0.1710 -0.0195
  282loPI    C1 4497   2.025  17.571   9.222  0.0510 -0.1369  0.1634
  282loPI    C2 4498   1.718  17.815   9.141  0.0087 -0.2421  0.0015
  282loPI    C3 4499   1.846  17.773   9.517 -0.1233 -0.1367  0.0590
  282loPI   PO4 4500   2.090  17.431   9.013  0.0713  0.1234  0.2574
  282loPI   GL1 4501   1.717  17.470   8.715  0.0845 -0.4160 -0.2034
  282loPI   GL2 4502   1.986  17.808   8.641  0.0939 -0.0015 -0.1899
  282loPI   C1A 4503   1.577  17.398   8.312 -0.1866 -0.0709 -0.2388
  282loPI   C2A 4504   1.604  16.990   8.075  0.0428  0.0164 -0.1485
  282loPI   C3A 4505   1.452  17.022   7.629 -0.1874  0.3370  0.1764
  282loPI   C4A 4506   1.183  16.946   7.287  0.2012 -0.1619 -0.1313
  282loPI   C5A 4507   1.123  17.153   6.859  0.1558 -0.0369  0.1284
  282loPI   C6A 4508   0.963  17.156   6.421  0.1783  0.0128  0.1116
  282loPI   C1B 4509   2.088  17.922   8.203  0.0167  0.1666 -0.0669
  282loPI   C2B 4510   1.870  17.919   7.784  0.1274 -0.0352  0.0628
  282loPI   C3B 4511   1.788  18.223   7.402 -0.0627  0.1750 -0.2052
  282loPI   C4B 4512   2.148  18.322   7.133  0.1581 -0.0586 -0.0649
  283loPI    C1 4513  12.422   6.401   9.577 -0.1020 -0.0934 -0.1824
  283loPI    C2 4514  12.387   6.038   9.741 -0.3064  0.1287  0.2827
  283loPI    C3 4515  12.066   6.218   9.584 -0.1685  0.0371 -0.1154
  283loPI   PO4 4516  12.582   6.391   9.410 -0.2978  0.1472  0.1068
  283loPI   GL1 4517  12.678   6.209   9.071  0.2781  0.1679 -0.0016
  283loPI   GL2 4518  12.485   6.003   9.100 -0.0067  0.0725  0.1279
  283loPI   C1A 4519  12.671   6.378   8.686  0.0708 -0.0605  0.0885
  283loPI   C2A 4520  12.668   6.210   8.319 -0.2327 -0.4492  0.2797
  283loPI   C3A 4521  12.963   6.133   7.941  0.1411 -0.0681  0.0972
  283loPI   C4A 4522  13.360   6.168   7.762  0.3651  0.0354  0.0475
  283loPI   C5A 4523  13.797   6.167   7.885 -0.2832 -0.1749  0.0167
  283loPI   C6A 4524  14.206   6.120   7.836 -0.0429  0.0556  0.2470
  283loPI   C1B 4525  12.332   6.030   8.668  0.3265 -0.1845  0.3413
  283loPI   C2B 4526  12.234   5.969   8.230  0.0440 -0.0489 -0.1110
  283loPI   C3B 4527  12.448   5.976   7.877 -0.2855 -0.0642  0.2577
  283loPI   C4B 4528  12.732   5.704   7.749  0.0299  0.0255  0.1796
  284loPI    C1 4529  19.222  13.252   9.643 -0.0125  0.0528 -0.0073
  284loPI    C2 4530  18.956  13.027   9.841 -0.0173  0.2138  0.1727
  284loPI    C3 4531  19.269  13.184  10.035  0.1500  0.1171 -0.0151
  284loPI   PO4 4532  19.184  13.282   9.385  0.2479 -0.2385 -0.1939
  284loPI   GL1 4533  19.133  13.067   8.921  0.1271 -0.2115  0.3564
  284loPI   GL2 4534  18.817  12.855   8.946  0.0999 -0.4286 -0.0808
  284loPI   C1A 4535  18.965  13.162   8.510  0.1841 -0.3592 -0.1129
  284loPI   C2A 4536  18.826  13.108   8.044 -0.1003 -0.1660 -0.1422
  284loPI   C3A 4537  18.600  13.088   7.630  0.0274 -0.0518  0.0759
  284loPI   C4A 4538  18.246  13.116   7.349 -0.0981 -0.1540  0.0777
  284loPI   C5A 4539  18.172  13.361   6.872 -0.3102  0.2791 -0.0643
  284loPI   C6A 4540  17.943  13.749   6.551 -0.1659 -0.5365 -0.0910
  284loPI   C1B 4541  18.456  12.938   8.544 -0.1762 -0.3193 -0.2414
  284loPI   C2B 4542  18.360  13.164   8.193  0.2418 -0.0048  0.1145
  284loPI   C3B 4543  18.140  13.239   7.853  0.2963 -0.5315  0.1094
  284loPI   C4B 4544  17.754  13.084   7.498 -0.1496 -0.0730 -0.0075
  285loPI    C1 4545  10.025   9.522   9.262  0.0730 -0.2551  0.1383
  285loPI    C2 4546   9.662   9.499   9.428 -0.0952 -0.1022 -0.1983
  285loPI    C3 4547   9.988   9.488   9.659 -0.3240  0.2358  0.1542
  285loPI   PO4 4548   9.946   9.305   9.080 -0.0771 -0.1874 -0.0732
  285loPI   GL1 4549   9.879   9.298   8.665 -0.1415 -0.1625  0.1905
  285loPI   GL2 4550   9.606   9.080   8.543  0.0341 -0.0031 -0.3667
  285loPI   C1A 4551   9.888   9.545   8.360 -0.0868  0.1125  0.2273
  285loPI   C2A 4552   9.913   9.655   7.875  0.0937 -0.1945 -0.2593
  285loPI   C3A 4553  10.049   9.615   7.416  0.1289 -0.1217  0.1495
  285loPI   C4A 4554   9.960   9.342   7.027  0.3793  0.1515  0.3628
  285loPI   C5A 4555   9.861   9.232   6.568 -0.0078  0.0329 -0.3920
  285loPI   C6A 4556   9.487   9.269   6.277  0.1111 -0.1794 -0.0417
  285loPI   C1B 4557   9.314   9.035   8.159 -0.2584  0.0057 -0.0206
  285loPI   C2B 4558   9.066   8.876   7.803  0.2161  0.0536  0.1585
  285loPI   C3B 4559   8.867   8.839   7.384  0.0955 -0.4938  0.0393
  285loPI   C4B 4560   8.895   8.636   7.017 -0.0330 -0.0374  0.0698
  286loPI    C1 4561  13.520  16.554   9.489 -0.1155  0.2778 -0.1923
  286loPI    C2 4562  13.775  16.838   9.607  0.0719  0.1287 -0.2327
  286loPI    C3 4563  13.497  16.700   9.860  0.2362  0.0681 -0.0833
  286loPI   PO4 4564  13.568  16.635   9.186 -0.0457 -0.1781 -0.2703
  286loPI   GL1 4565  13.376  16.546   8.806  0.3693  0.0003 -0.2401
  286loPI   GL2 4566  13.453  16.900   8.795  0.2574  0.1367  0.0799
  286loPI   C1A 4567  13.411  16.521   8.329 -0.5448 -0.0945  0.2258
  286loPI   C2A 4568  13.202  16.422   7.933 -0.0746  0.4191  0.3140
  286loPI   C3A 4569  13.241  16.098   7.641  0.0153 -0.2483  0.0835
  286loPI   C4A 4570  13.227  15.748   7.326  0.2240  0.2123 -0.1187
  286loPI   C5A 4571  13.147  15.407   7.088  0.2396 -0.1992 -0.2070
  286loPI   C6A 4572  12.875  15.405   6.710  0.1259 -0.1628  0.2076
  286loPI   C1B 4573  13.803  16.856   8.437 -0.0627  0.0512 -0.0081
  286loPI   C2B 4574  13.649  16.636   7.923 -0.2430  0.2134 -0.4055
  286loPI   C3B 4575  13.472  16.623   7.529  0.0486  0.0319  0.0606
  286loPI   C4B 4576  13.180  16.687   7.162 -0.0738  0.0960  0.1027
  287loPI    C1 4577  19.710  13.431   9.260  0.0091  0.0532 -0.0700
  287loPI    C2 4578  19.607  13.768   9.072  0.0908  0.0940 -0.0419
  287loPI    C3 4579  19.532  13.727   9.462 -0.0798  0.0090 -0.0828
  287loPI   PO4 4580  19.776  13.324   8.892 -0.0386 -0.2333  0.0570
  287loPI   GL1 4581  19.831  13.466   8.548  0.3605  0.1207  0.1969
  287loPI   GL2 4582  19.764  13.746   8.600 -0.1433 -0.0606  0.1214
  287loPI   C1A 4583  19.953  13.356   8.095 -0.3518  0.4132 -0.0060
  287loPI   C2A 4584  19.917  13.412   7.638 -0.0869  0.1307  0.2553
  287loPI   C3A 4585  19.758  13.673   7.320 -0.0279 -0.1572 -0.1882
  287loPI   C4A 4586  19.516  13.961   7.145  0.2800  0.0468 -0.2751
  287loPI   C5A 4587  19.170  13.934   6.901  0.0651  0.3726  0.1803
  287loPI   C6A 4588  18.836  14.321   6.807 -0.2757  0.3052  0.2346
  287loPI   C1B 4589  19.506  13.907   8.398 -0.4444 -0.0129 -0.0843
  287loPI   C2B 4590  19.388  14.111   8.033 -0.1636 -0.2686 -0.1858
  287loPI   C3B 4591  19.346  14.298   7.650  0.1812 -0.0235  0.0959
  287loPI   C4B 4592  19.181  14.462   7.227 -0.0299 -0.2065  0.0494
  288loPI    C1 4593  16.834  17.230  10.113 -0.0510  0.0439  0.2854
  288loPI    C2 4594  16.745  17.103  10.482  0.0497 -0.0263  0.2861
  288loPI    C3 4595  17.028  16.917  10.270  0.0608  0.0758  0.2108
  288loPI   PO4 4596  16.594  17.198   9.873 -0.0981  0.0905  0.0880
  288loPI   GL1 4597  16.580  17.103   9.426 -0.2171 -0.1263  0.1524
  288loPI   GL2 4598  16.429  16.955   9.157  0.1427  0.1062  0.3484
  288loPI   C1A 4599  16.794  17.348   9.088  0.0977 -0.3321  0.0396
  288loPI   C2A 4600  16.720  17.564   8.645  0.0208 -0.1022  0.1666
  288loPI   C3A 4601  16.580  17.669   8.292 -0.1611 -0.5789 -0.0096
  288loPI   C4A 4602  16.261  17.668   7.810 -0.0280  0.0771 -0.0879
  288loPI   C5A 4603  16.208  17.858   7.319 -0.1143 -0.1966  0.2996
  288loPI   C6A 4604  16.301  18.213   6.936 -0.1907  0.0429 -0.1230
  288loPI   C1B 4605  16.579  17.058   8.724 -0.1167 -0.3230  0.2421
  288loPI   C2B 4606  16.524  17.065   8.301 -0.2313  0.1919 -0.1024
  288loPI   C3B 4607  16.505  17.169   7.834  0.1873  0.3504 -0.0017
  288loPI   C4B 4608  16.554  17.362   7.546 -0.0121  0.2860 -0.0231
  289loPI    C1 4609   7.168   5.817   9.535 -0.0617  0.0604  0.2130
  289loPI    C2 4610   7.470   6.071   9.599 -0.0859  0.1125  0.1209
  289loPI    C3 4611   7.093   6.187   9.665 -0.0948  0.0901  0.1102
  289loPI   PO4 4612   7.224   5.721   9.325 -0.0654 -0.1331 -0.2751
  289loPI   GL1 4613   7.650   5.673   9.111  0.1015  0.2056  0.1911
  289loPI   GL2 4614   7.560   5.478   8.878 -0.0293 -0.0056 -0.2215
  289loPI   C1A 4615   7.936   5.802   8.838  0.1097 -0.1007  0.1482
  289loPI   C2A 4616   8.193   5.816   8.434  0.0007  0.2527 -0.0839
  289loPI   C3A 4617   8.321   5.539   8.155 -0.0282  0.0178  0.3656
  289loPI   C4A 4618   8.707   5.600   7.802  0.2549 -0.3996  0.0085
  289loPI   C5A 4619   8.837   5.448   7.466  0.0193 -0.0135  0.3314
  289loPI   C6A 4620   8.640   5.610   7.047 -0.3313 -0.0219 -0.0307
  289loPI   C1B 4621   7.539   5.607   8.520  0.1622 -0.1363  0.0955
  289loPI   C2B 4622   7.386   5.850   8.288  0.1908 -0.1364  0.2083
  289loPI   C3B 4623   7.476   5.927   7.859 -0.1345  0.1255  0.4057
  289loPI   C4B 4624   7.726   6.057   7.556 -0.0352 -0.1859  0.4042
  290loPI    C1 4625   4.596  18.588   8.849  0.3159 -0.1955  0.2172
  290loPI    C2 4626   4.260  18.420   8.988  0.0306  0.1672 -0.0152
  290loPI    C3 4627   4.544  18.541   9.243 -0.1429  0.1213  0.2024
  290loPI   PO4 4628   4.433  18.696   8.617 -0.3314  0.0022 -0.3036
  290loPI   GL1 4629   4.515  18.541   8.145  0.7114  0.2192  0.4021
  290loPI   GL2 4630   4.436  18.942   8.032  0.0284  0.1353 -0.2558
  290loPI   C1A 4631   4.431  18.496   7.672 -0.1534 -0.1796 -0.1766
  290loPI   C2A 4632   4.672  18.464   7.319  0.1645 -0.0170  0.2108
  290loPI   C3A 4633   4.799  18.748   6.999  0.0221  0.4216 -0.3343
  290loPI   C4A 4634   4.499  18.874   6.752  0.3305 -0.0840 -0.1748
  290loPI   C5A 4635   4.464  19.186   6.470 -0.2213  0.6458 -0.2461
  290loPI   C6A 4636   4.492  19.547   6.294  0.3397 -0.1140  0.1253
  290loPI   C1B 4637   4.315  18.978   7.618 -0.0117  0.1527 -0.0055
  290loPI   C2B 4638   4.156  18.808   7.272 -0.0149  0.1333 -0.2337
  290loPI   C3B 4639   4.024  18.717   6.820 -0.2191  0.0369 -0.0236
  290loPI   C4B 4640   3.907  18.999   6.546 -0.0754  0.1581  0.1270
  291loPI    C1 4641   7.740  15.271   9.163 -0.1432 -0.0122 -0.1211
  291loPI    C2 4642   7.791  15.591   9.398 -0.0184 -0.1708  0.0717
  291loPI    C3 4643   8.096  15.453   9.180 -0.0351 -0.2368  0.0898
  291loPI   PO4 4644   7.501  15.277   9.142 -0.1185  0.0241  0.1836
  291loPI   GL1 4645   7.293  15.391   8.761 -0.0495 -0.1301  0.1164
  291loPI   GL2 4646   7.087  15.221   8.907  0.0686  0.2687 -0.1951
  291loPI   C1A 4647   7.128  15.586   8.444 -0.1424  0.1783 -0.0143
  291loPI   C2A 4648   7.091  15.636   8.022  0.0104 -0.0228 -0.0935
  291loPI   C3A 4649   7.150  15.497   7.647  0.1217  0.1720 -0.0646
  291loPI   C4A 4650   7.098  15.473   7.267  0.0179 -0.0379 -0.1994
  291loPI   C5A 4651   6.972  15.560   6.903  0.1416  0.1051 -0.1692
  291loPI   C6A 4652   7.044  15.797   6.617  0.1540  0.1381  0.1293
  291loPI   C1B 4653   6.913  15.176   8.454 -0.0462 -0.2884 -0.2521
  291loPI   C2B 4654   6.757  15.194   8.002 -0.0251 -0.1201  0.2746
  291loPI   C3B 4655   6.615  15.126   7.548  0.0210  0.2080  0.0452
  291loPI   C4B 4656   6.705  15.137   7.041 -0.2635  0.1176  0.3783
  292loPI    C1 4657  17.736  13.199   9.774  0.1410  0.3018 -0.1877
  292loPI    C2 4658  18.096  13.315   9.905  0.1227  0.0192  0.1265
  292loPI    C3 4659  17.832  13.157  10.160 -0.2711  0.3286 -0.0780
  292loPI   PO4 4660  17.583  13.334   9.673 -0.3274  0.1773  0.0286
  292loPI   GL1 4661  17.340  13.259   9.256 -0.3711 -0.1357  0.0948
  292loPI   GL2 4662  17.589  13.081   9.174 -0.2187 -0.0760 -0.3670
  292loPI   C1A 4663  17.219  13.353   8.762  0.1576  0.0893  0.2265
  292loPI   C2A 4664  17.205  13.279   8.268  0.0042 -0.1220  0.1342
  292loPI   C3A 4665  17.039  13.113   7.924 -0.3814 -0.1002  0.0888
  292loPI   C4A 4666  16.985  13.429   7.593 -0.0862 -0.1730 -0.1002
  292loPI   C5A 4667  16.691  13.638   7.397  0.0754  0.0849 -0.0094
  292loPI   C6A 4668  16.457  13.941   7.292 -0.5793  0.2992  0.0834
  292loPI   C1B 4669  17.668  13.454   8.884 -0.0147 -0.2260  0.2229
  292loPI   C2B 4670  17.594  13.587   8.533  0.0352 -0.0959  0.1094
  292loPI   C3B 4671  17.499  13.729   8.175 -0.5073 -0.2575  0.1549
  292loPI   C4B 4672  17.473  13.973   7.712 -0.1750  0.0634  0.1549
  293loPI    C1 4673  19.797   8.516   9.741  0.1937 -0.0326 -0.0604
  293loPI    C2 4674  19.849   8.912   9.737 -0.1504  0.0177  0.0974
  293loPI    C3 4675  19.579   8.748   9.982  0.0075 -0.3184  0.0522
  293loPI   PO4 4676  19.865   8.397   9.418  0.0258 -0.0616  0.1863
  293loPI   GL1 4677  19.976   8.151   9.076 -0.0752 -0.0640  0.0525
  293loPI   GL2 4678  19.677   8.266   8.943 -0.0241 -0.2524  0.0079
  293loPI   C1A 4679  20.081   8.099   8.586  0.0115  0.3412  0.2133
  293loPI   C2A 4680  20.015   7.939   8.155  0.0497 -0.0416 -0.0836
  293loPI   C3A 4681  19.973   7.856   7.692 -0.2781 -0.2681 -0.0209
  293loPI   C4A 4682  20.083   7.999   7.377 -0.1178 -0.0934  0.0525
  293loPI   C5A 4683  20.203   8.010   6.943  0.2645 -0.0272 -0.5107
  293loPI   C6A 4684  20.696   8.020   6.682  0.0848 -0.0838  0.1536
  293loPI   C1B 4685  19.301   8.241   8.745  0.2611 -0.0909 -0.0673
  293loPI   C2B 4686  19.104   8.240   8.369  0.3794 -0.1263  0.2414
  293loPI   C3B 4687  18.779   8.289   7.982 -0.2746  0.1793 -0.3095
  293loPI   C4B 4688  18.455   8.100   7.676  0.4215  0.1091  0.3458
  294loPI    C1 4689   3.479  17.149   9.036 -0.0057 -0.1288  0.0953
  294loPI    C2 4690   3.310  16.796   8.955 -0.1992 -0.0372  0.0944
  294loPI    C3 4691   3.168  17.022   9.252  0.0122 -0.0213  0.1853
  294loPI   PO4 4692   3.533  17.202   8.730  0.1573  0.0685  0.0111
  294loPI   GL1 4693   3.432  17.403   8.318 -0.0868  0.2844  0.1418
  294loPI   GL2 4694   3.602  16.963   8.332  0.2448  0.4543 -0.0515
  294loPI   C1A 4695   3.498  17.556   7.869 -0.3753 -0.1291  0.0459
  294loPI   C2A 4696   3.397  17.427   7.506 -0.6250  0.0411  0.2269
  294loPI   C3A 4697   3.234  17.675   7.072  0.3048 -0.1486 -0.0676
  294loPI   C4A 4698   2.814  17.707   6.900  0.0922  0.0830  0.0399
  294loPI   C5A 4699   2.500  17.949   7.096  0.0113 -0.1684  0.2442
  294loPI   C6A 4700   2.175  17.906   7.357 -0.0515  0.3573  0.3474
  294loPI   C1B 4701   3.531  16.813   7.971 -0.0077  0.1476 -0.1626
  294loPI   C2B 4702   3.484  16.833   7.561 -0.2990  0.3642 -0.0352
  294loPI   C3B 4703   3.602  16.845   7.162  0.0153  0.0915 -0.0388
  294loPI   C4B 4704   3.742  16.955   6.756  0.3507 -0.1210  0.1018
  295loPI    C1 4705  11.455  18.889   9.548  0.2801 -0.0624  0.0725
  295loPI    C2 4706  11.493  18.502   9.456  0.3997 -0.0709  0.1546
  295loPI    C3 4707  11.408  18.611   9.831  0.0174 -0.0318  0.0612
  295loPI   PO4 4708  11.335  18.944   9.329  0.1624 -0.0985 -0.3565
  295loPI   GL1 4709  11.382  18.835   8.911  0.1311  0.1073 -0.0747
  295loPI   GL2 4710  11.435  18.483   8.763  0.3557  0.1324 -0.0791
  295loPI   C1A 4711  11.428  18.826   8.405  0.0476 -0.0268 -0.0683
  295loPI   C2A 4712  11.349  18.618   8.098 -0.2900  0.1238 -0.2616
  295loPI   C3A 4713  11.543  18.551   7.754  0.0830  0.0497 -0.0355
  295loPI   C4A 4714  11.272  18.478   7.397 -0.0101  0.0860  0.0685
  295loPI   C5A 4715  11.206  18.591   6.948  0.2529  0.0293  0.0095
  295loPI   C6A 4716  11.569  18.739   6.779 -0.1007  0.1299  0.1643
  295loPI   C1B 4717  11.548  18.275   8.474 -0.0958  0.4326 -0.1849
  295loPI   C2B 4718  11.759  18.183   8.150 -0.0766  0.0692 -0.0242
  295loPI   C3B 4719  12.003  18.133   7.800  0.1145  0.0688 -0.3416
  295loPI   C4B 4720  11.818  17.952   7.454 -0.3989  0.4264 -0.0707
  296loPI    C1 4721   0.114  11.980   9.312 -0.1933  0.1414 -0.0660
  296loPI    C2 4722  -0.084  12.106   9.635  0.0167  0.1385  0.0654
  296loPI    C3 4723   0.150  11.783   9.658  0.1791  0.2470 -0.0406
  296loPI   PO4 4724  -0.071  11.998   9.159  0.1719  0.0769 -0.5022
  296loPI   GL1 4725  -0.333  12.082   8.826  0.0405 -0.3307  0.0622
  296loPI   GL2 4726  -0.083  12.322   8.681  0.0645 -0.1977  0.0180
  296loPI   C1A 4727  -0.327  11.907   8.442 -0.1940  0.0733  0.0780
  296loPI   C2A 4728  -0.491  12.040   8.061  0.1430 -0.2101  0.0086
  296loPI   C3A 4729  -0.435  12.226   7.627  0.2243  0.4951 -0.2489
  296loPI   C4A 4730  -0.383  12.089   7.238  0.0891  0.2328  0.0177
  296loPI   C5A 4731  -0.320  11.963   6.891  0.2440  0.3621 -0.0694
  296loPI   C6A 4732  -0.202  12.103   6.499 -0.0412  0.0208  0.1603
  296loPI   C1B 4733   0.032  12.388   8.204 -0.1558 -0.1478 -0.0576
  296loPI   C2B 4734  -0.014  12.263   7.842  0.0796  0.0238  0.0060
  296loPI   C3B 4735   0.013  12.395   7.407  0.3861 -0.3401  0.0692
  296loPI   C4B 4736  -0.022  12.401   6.887  0.0011  0.2719  0.0189
  297loPI    C1 4737  10.985   4.752   9.419  0.0106 -0.1743  0.0063
  297loPI    C2 4738  11.100   4.793   9.800 -0.0252 -0.3108  0.0325
  297loPI    C3 4739  10.719   4.707   9.714 -0.1652  0.3442 -0.0619
  297loPI   PO4 4740  11.267   4.784   9.324  0.0581  0.3207  0.0171
  297loPI   GL1 4741  11.215   4.933   8.898  0.5740 -0.1104  0.0096
  297loPI   GL2 4742  11.478   4.743   8.811 -0.1076 -0.0052  0.1756
  297loPI   C1A 4743  11.259   5.292   8.632  0.1601  0.0758  0.0828
  297loPI   C2A 4744  11.285   5.347   8.236 -0.0618  0.1093  0.2603
  297loPI   C3A 4745  11.326   5.401   7.852  0.2857 -0.0581  0.0044
  297loPI   C4A 4746  11.227   5.375   7.385 -0.2061 -0.1939  0.1454
  297loPI   C5A 4747  11.113   5.083   7.008 -0.3575  0.0633 -0.4558
  297loPI   C6A 4748  11.157   4.628   6.921 -0.1197  0.2048 -0.0419
  297loPI   C1B 4749  11.678   4.547   8.547 -0.2101  0.0676  0.2042
  297loPI   C2B 4750  11.495   4.318   8.172 -0.2142 -0.1033 -0.2983
  297loPI   C3B 4751  11.697   4.045   7.840  0.0538  0.2526 -0.0070
  297loPI   C4B 4752  11.946   3.898   7.474 -0.2147  0.2923 -0.2933
  298loPI    C1 4753   2.275   5.404   9.152 -0.0795  0.1287 -0.0335
  298loPI    C2 4754   2.136   5.364   9.525 -0.0831  0.0221 -0.0460
  298loPI    C3 4755   2.525   5.309   9.450 -0.0691  0.1184 -0.0456
  298loPI   PO4 4756   2.171   5.674   8.992  0.0084 -0.0189  0.0440
  298loPI   GL1 4757   2.022   5.652   8.671  0.1554 -0.1551  0.2455
  298loPI   GL2 4758   1.798   5.585   8.657  0.0875  0.3013  0.0445
  298loPI   C1A 4759   2.151   5.437   8.345  0.0169 -0.0201  0.1859
  298loPI   C2A 4760   2.472   5.595   8.148 -0.0700 -0.0922 -0.0747
  298loPI   C3A 4761   2.759   5.498   7.811 -0.0099 -0.2002 -0.2137
  298loPI   C4A 4762   2.785   5.259   7.455 -0.1214 -0.1498 -0.0246
  298loPI   C5A 4763   2.612   5.213   7.078  0.3888 -0.3609  0.1343
  298loPI   C6A 4764   2.398   5.356   6.733 -0.2381 -0.1945 -0.0663
  298loPI   C1B 4765   1.652   5.333   8.269  0.1509 -0.2341  0.2398
  298loPI   C2B 4766   1.548   5.445   7.856 -0.2866 -0.0295  0.1608
  298loPI   C3B 4767   1.802   5.502   7.448  0.0876  0.3662  0.1769
  298loPI   C4B 4768   2.282   5.422   7.360 -0.2413  0.2645  0.3209
  299loPI    C1 4769  17.757  17.583  10.131 -0.1018  0.1271 -0.0004
  299loPI    C2 4770  17.428  17.383  10.240  0.0438 -0.1318 -0.0285
  299loPI    C3 4771  17.561  17.686  10.465 -0.1975 -0.0427 -0.0030
  299loPI   PO4 4772  17.728  17.491   9.845 -0.2493 -0.0067  0.1001
  299loPI   GL1 4773  17.605  17.418   9.449  0.2866 -0.0153  0.0104
  299loPI   GL2 4774  17.355  17.352   9.317  0.3251  0.0999 -0.0798
  299loPI   C1A 4775  17.806  17.150   9.193 -0.3048  0.2071  0.1157
  299loPI   C2A 4776  17.967  17.142   8.763 -0.2217  0.1598  0.0807
  299loPI   C3A 4777  18.025  17.275   8.273  0.2753 -0.2186  0.0590
  299loPI   C4A 4778  18.170  17.117   7.854  0.0600 -0.0621 -0.2209
  299loPI   C5A 4779  18.411  17.218   7.421  0.0130  0.0018  0.1634
  299loPI   C6A 4780  18.785  17.511   7.290 -0.2580  0.0935 -0.1918
  299loPI   C1B 4781  17.303  17.313   8.902  0.1780 -0.0927  0.3815
  299loPI   C2B 4782  17.297  17.498   8.454  0.1221 -0.3182  0.1741
  299loPI   C3B 4783  17.230  17.672   8.047  0.0127 -0.2733  0.1762
  299loPI   C4B 4784  16.841  17.675   7.861  0.1748  0.1906  0.0464
  300loPI    C1 4785   2.892  16.435   8.728  0.2927 -0.0124 -0.0646
  300loPI    C2 4786   2.935  16.432   9.126 -0.2023 -0.4695 -0.0021
  300loPI    C3 4787   2.748  16.737   8.946  0.1624 -0.1840  0.0907
  300loPI   PO4 4788   2.817  16.157   8.775 -0.0866 -0.2223  0.1418
  300loPI   GL1 4789   2.803  15.934   8.467  0.2480  0.1381  0.0640
  300loPI   GL2 4790   3.027  16.163   8.310 -0.1263  0.2488  0.1847
  300loPI   C1A 4791   2.576  15.900   8.075 -0.2777  0.1996  0.0293
  300loPI   C2A 4792   2.643  15.883   7.627  0.1684  0.0583  0.2296
  300loPI   C3A 4793   2.415  16.019   7.274 -0.1627 -0.0187  0.0791
  300loPI   C4A 4794   2.205  15.959   6.936  0.0605  0.2530 -0.2746
  300loPI   C5A 4795   2.474  15.903   6.562  0.0681 -0.3458 -0.0685
  300loPI   C6A 4796   2.944  15.938   6.339 -0.0082  0.1985 -0.1799
  300loPI   C1B 4797   3.036  16.096   7.864  0.0775 -0.1209  0.2718
  300loPI   C2B 4798   3.199  15.993   7.479 -0.0221 -0.0007  0.4070
  300loPI   C3B 4799   2.930  16.187   7.131 -0.2097 -0.0115 -0.2802
  300loPI   C4B 4800   2.966  15.919   6.833 -0.0371 -0.2042 -0.1977
  301loPI    C1 4801   3.753   2.010   9.278  0.0599 -0.1165 -0.0194
  301loPI    C2 4802   3.519   1.833   9.006  0.1093  0.1273 -0.2245
  301loPI    C3 4803   3.604   1.646   9.350 -0.1255 -0.0956 -0.2848
  301loPI   PO4 4804   3.973   2.079   9.084 -0.4275 -0.1255  0.0686
  301loPI   GL1 4805   4.012   2.077   8.624 -0.0495 -0.3542 -0.0812
  301loPI   GL2 4806   3.977   1.722   8.601 -0.3022 -0.2247  0.0664
  301loPI   C1A 4807   3.696   2.033   8.309 -0.1516 -0.0280 -0.0172
  301loPI   C2A 4808   3.675   2.149   7.897  0.3171  0.1215 -0.2260
  301loPI   C3A 4809   3.733   2.367   7.469 -0.1609 -0.1185  0.0807
  301loPI   C4A 4810   3.825   2.183   7.019 -0.1308 -0.0319 -0.1481
  301loPI   C5A 4811   3.761   1.904   6.742  0.1151  0.0732  0.6539
  301loPI   C6A 4812   4.180   1.882   6.443  0.0057  0.0734 -0.2165
  301loPI   C1B 4813   4.136   1.775   8.134  0.3034  0.1239  0.0765
  301loPI   C2B 4814   4.202   1.546   7.766 -0.0725 -0.0385 -0.3261
  301loPI   C3B 4815   4.306   1.565   7.347 -0.3050  0.0647  0.1998
  301loPI   C4B 4816   4.275   1.951   7.062 -0.1584  0.0388 -0.1046
  302loPI    C1 4817  18.015  15.489   9.600  0.0286  0.0309  0.0520
  302loPI    C2 4818  17.873  15.331   9.938  0.1785  0.0025  0.1025
  302loPI    C3 4819  18.263  15.414   9.905  0.1212  0.2514  0.0329
  302loPI   PO4 4820  17.835  15.293   9.452  0.0447 -0.1342 -0.2436
  302loPI   GL1 4821  17.765  14.942   9.197  0.3916 -0.0855 -0.1438
  302loPI   GL2 4822  18.084  15.123   9.089 -0.0548  0.0923 -0.1981
  302loPI   C1A 4823  17.563  14.833   8.874 -0.4173 -0.3617 -0.1517
  302loPI   C2A 4824  17.237  14.834   8.507 -0.2287 -0.0933  0.0643
  302loPI   C3A 4825  17.113  14.716   8.089  0.3550 -0.1455 -0.1843
  302loPI   C4A 4826  17.090  14.354   7.767  0.0657 -0.0691  0.4738
  302loPI   C5A 4827  16.950  14.092   7.461 -0.1230  0.1875  0.0491
  302loPI   C6A 4828  17.121  13.790   7.210  0.1637  0.1700  0.1707
  302loPI   C1B 4829  17.887  15.124   8.613 -0.0578 -0.1959 -0.0742
  302loPI   C2B 4830  17.683  15.248   8.276  0.2290  0.3136 -0.2433
  302loPI   C3B 4831  17.527  15.401   7.854 -0.1462  0.1399 -0.2474
  302loPI   C4B 4832  17.359  15.433   7.435  0.1706 -0.1010  0.0286
  303loPI    C1 4833   2.932   3.777   9.781 -0.1926  0.1701 -0.0601
  303loPI    C2 4834   3.239   4.011   9.677 -0.1218  0.0317 -0.1657
  303loPI    C3 4835   3.273   3.764   9.990 -0.2041  0.1765 -0.0408
  303loPI   PO4 4836   2.718   3.860   9.479  0.0122  0.0798  0.1181
  303loPI   GL1 4837   2.532   3.791   9.039 -0.0701  0.0185 -0.0916
  303loPI   GL2 4838   2.646   4.062   9.037  0.1411 -0.2601 -0.0298
  303loPI   C1A 4839   2.635   3.663   8.575  0.2135  0.0360  0.2169
  303loPI   C2A 4840   2.811   3.549   8.174  0.1442 -0.4116  0.0085
  303loPI   C3A 4841   2.878   3.294   7.767  0.0293 -0.2755 -0.0083
  303loPI   C4A 4842   2.778   3.365   7.283 -0.0429 -0.1073 -0.0960
  303loPI   C5A 4843   2.713   3.278   6.920  0.0480 -0.2203 -0.0286
  303loPI   C6A 4844   2.570   3.312   6.570 -0.1375 -0.3519  0.0456
  303loPI   C1B 4845   2.697   4.162   8.650 -0.1798  0.1903  0.0042
  303loPI   C2B 4846   2.596   4.196   8.293  0.0403  0.0116  0.2532
  303loPI   C3B 4847   2.570   4.019   8.037 -0.0721 -0.3611 -0.0405
  303loPI   C4B 4848   2.615   3.732   7.754 -0.0382  0.0326  0.1089
  304loPI    C1 4849  19.663  10.928   9.284  0.1279 -0.1136  0.1361
  304loPI    C2 4850  19.459  11.237   9.436  0.1262 -0.0169 -0.0601
  304loPI    C3 4851  19.394  10.867   9.574  0.0995  0.0638  0.1479
  304loPI   PO4 4852  19.719  11.023   9.057 -0.1800 -0.2085  0.0750
  304loPI   GL1 4853  19.798  10.841   8.719  0.1888  0.0083 -0.2095
  304loPI   GL2 4854  19.766  10.522   8.637 -0.1346  0.3051 -0.1808
  304loPI   C1A 4855  19.585  10.903   8.379 -0.1359 -0.0616  0.3976
  304loPI   C2A 4856  19.516  10.903   8.019  0.1950 -0.0635  0.3483
  304loPI   C3A 4857  19.207  10.860   7.660 -0.1086 -0.1316 -0.0489
  304loPI   C4A 4858  19.213  10.905   7.350  0.0392  0.1661  0.0860
  304loPI   C5A 4859  19.475  10.900   6.984  0.5979 -0.0725  0.1796
  304loPI   C6A 4860  19.465  11.023   6.571  0.0025 -0.0408  0.2173
  304loPI   C1B 4861  19.575  10.414   8.192  0.1625 -0.1335  0.0405
  304loPI   C2B 4862  19.566  10.468   7.724 -0.1275  0.0083 -0.1131
  304loPI   C3B 4863  19.530  10.457   7.314  0.1020 -0.1996 -0.1814
  304loPI   C4B 4864  19.187  10.411   7.013  0.2126  0.0504  0.2266
  305loPI    C1 4865  10.763   3.381   9.842  0.1095  0.0042  0.0417
  305loPI    C2 4866  10.372   3.443   9.784  0.0836 -0.1675  0.0288
  305loPI    C3 4867  10.544   3.558  10.126  0.0525  0.0397 -0.0237
  305loPI   PO4 4868  10.814   3.434   9.607  0.0747  0.2755 -0.0554
  305loPI   GL1 4869  10.787   3.277   9.139  0.0203 -0.0267 -0.1363
  305loPI   GL2 4870  11.153   3.101   9.127 -0.1224 -0.0979  0.2694
  305loPI   C1A 4871  10.634   3.642   8.969 -0.0936  0.0301  0.2109
  305loPI   C2A 4872  10.235   3.715   8.569  0.2380 -0.0276 -0.0611
  305loPI   C3A 4873  10.174   3.669   8.107  0.0723  0.1519  0.0703
  305loPI   C4A 4874  10.314   3.784   7.773 -0.3708 -0.0281  0.1618
  305loPI   C5A 4875  10.057   3.716   7.428  0.0854 -0.1276 -0.2003
  305loPI   C6A 4876   9.855   3.890   7.062 -0.2241 -0.0615 -0.0879
  305loPI   C1B 4877  11.283   3.119   8.734 -0.1017  0.3555 -0.1723
  305loPI   C2B 4878  11.271   3.306   8.278  0.3016  0.0410 -0.4582
  305loPI   C3B 4879  11.216   3.457   8.000  0.0962  0.0415  0.3463
  305loPI   C4B 4880  11.041   3.553   7.632  0.3534  0.2198 -0.0930
  306loPI    C1 4881  15.221   9.167   9.541  0.0524 -0.0171  0.0043
  306loPI    C2 4882  15.242   8.878   9.817 -0.1719  0.1072  0.1541
  306loPI    C3 4883  15.159   9.254   9.927 -0.0995  0.1885 -0.0648
  306loPI   PO4 4884  15.354   9.098   9.386  0.4058 -0.0138 -0.1158
  306loPI   GL1 4885  15.517   9.093   9.024  0.1737 -0.0497 -0.3095
  306loPI   GL2 4886  15.385   8.741   9.020 -0.0382 -0.0405 -0.3449
  306loPI   C1A 4887  15.552   9.295   8.646 -0.2801  0.0835  0.0401
  306loPI   C2A 4888  15.552   9.402   8.165 -0.2905 -0.1013 -0.1184
  306loPI   C3A 4889  15.461   9.371   7.661  0.2037  0.1187 -0.0274
  306loPI   C4A 4890  15.326   9.466   7.306  0.0322 -0.1827 -0.0508
  306loPI   C5A 4891  15.136   9.675   6.966 -0.3296 -0.0638  0.0109
  306loPI   C6A 4892  14.960  10.057   6.637 -0.3757 -0.0559 -0.0450
  306loPI   C1B 4893  15.204   8.865   8.699  0.0463 -0.0070 -0.2334
  306loPI   C2B 4894  15.280   8.916   8.230 -0.2321  0.0818 -0.0555
  306loPI   C3B 4895  15.199   8.950   7.873  0.0725 -0.0152  0.5151
  306loPI   C4B 4896  15.315   8.936   7.349  0.0293 -0.0744  0.6903
  307loPI    C1 4897   7.188  16.255   8.966 -0.4221  0.2386 -0.1546
  307loPI    C2 4898   6.999  16.115   9.289  0.0181 -0.0575 -0.0163
  307loPI    C3 4899   7.224  16.444   9.316  0.2267 -0.2025  0.0344
  307loPI   PO4 4900   7.008  16.222   8.777 -0.0955  0.2050  0.0518
  307loPI   GL1 4901   7.021  16.350   8.280 -0.3247 -0.0305 -0.1118
  307loPI   GL2 4902   6.852  16.120   8.324  0.0056 -0.0202  0.1270
  307loPI   C1A 4903   7.291  16.157   8.086  0.4178 -0.1365 -0.3526
  307loPI   C2A 4904   7.263  16.005   7.621 -0.0380  0.0043  0.1225
  307loPI   C3A 4905   7.500  15.663   7.342 -0.1487  0.2311 -0.1315
  307loPI   C4A 4906   7.815  15.679   7.091 -0.0055  0.0114 -0.1366
  307loPI   C5A 4907   8.125  15.641   6.757  0.2980  0.2283  0.2816
  307loPI   C6A 4908   8.266  15.350   6.454 -0.0132  0.2623  0.0630
  307loPI   C1B 4909   6.821  16.012   7.837  0.1293  0.1170  0.0046
  307loPI   C2B 4910   6.820  16.004   7.368  0.3081  0.0838 -0.0610
  307loPI   C3B 4911   6.788  16.218   6.977  0.0295  0.2600  0.2738
  307loPI   C4B 4912   6.762  16.216   6.521  0.0355  0.0882 -0.0956
  308loPI    C1 4913  19.006  12.125   9.769  0.0456 -0.1158  0.2991
  308loPI    C2 4914  19.397  12.114   9.853  0.0889 -0.1515  0.0979
  308loPI    C3 4915  19.163  11.806   9.954  0.1324 -0.1764  0.1231
  308loPI   PO4 4916  18.924  12.033   9.543  0.0357  0.2018  0.1541
  308loPI   GL1 4917  18.932  11.977   9.125  0.2417 -0.0611  0.1760
  308loPI   GL2 4918  19.029  12.184   8.934  0.1200  0.3634  0.0990
  308loPI   C1A 4919  18.687  11.945   8.718 -0.1240  0.0259 -0.0049
  308loPI   C2A 4920  18.519  11.898   8.308  0.0241  0.0448 -0.1135
  308loPI   C3A 4921  18.393  12.010   7.900 -0.2963 -0.2207 -0.1921
  308loPI   C4A 4922  18.249  11.758   7.634  0.3137  0.0178  0.0246
  308loPI   C5A 4923  18.126  11.628   7.305  0.2083 -0.4966 -0.0611
  308loPI   C6A 4924  17.898  11.480   6.901  0.3351  0.0848 -0.1719
  308loPI   C1B 4925  19.060  12.222   8.485 -0.0444  0.1128  0.2337
  308loPI   C2B 4926  18.931  12.257   8.027 -0.0905 -0.2899 -0.2272
  308loPI   C3B 4927  18.997  12.315   7.526 -0.2363 -0.0429 -0.1521
  308loPI   C4B 4928  19.036  12.515   7.159  0.0611 -0.0733 -0.1234
  309loPI    C1 4929   8.959   9.617   9.201 -0.2797  0.3647  0.0247
  309loPI    C2 4930   9.328   9.765   9.159 -0.1008 -0.0805 -0.0325
  309loPI    C3 4931   9.157   9.753   9.521 -0.0059  0.0035  0.0158
  309loPI   PO4 4932   8.991   9.441   9.049  0.0394  0.0764  0.2786
  309loPI   GL1 4933   8.819   9.255   8.660 -0.3730  0.2310 -0.1646
  309loPI   GL2 4934   9.107   9.072   8.657 -0.0663  0.4221 -0.0470
  309loPI   C1A 4935   8.843   9.183   8.271 -0.1418 -0.1533  0.1634
  309loPI   C2A 4936   8.865   9.335   7.855 -0.0437  0.0962  0.0550
  309loPI   C3A 4937   8.995   9.276   7.484 -0.0970 -0.1109  0.3594
  309loPI   C4A 4938   9.038   9.174   7.098  0.0179  0.0903 -0.4035
  309loPI   C5A 4939   9.361   8.954   6.823  0.1559 -0.4373 -0.0408
  309loPI   C6A 4940   9.718   8.832   6.922 -0.0798  0.2909  0.0912
  309loPI   C1B 4941   9.162   8.672   8.482  0.1072  0.2098  0.3562
  309loPI   C2B 4942   9.428   8.535   8.161 -0.1898 -0.0515  0.0598
  309loPI   C3B 4943   9.500   8.600   7.758  0.0011  0.2851  0.4532
  309loPI   C4B 4944   9.399   8.846   7.333  0.1646 -0.2265  0.5818
  310loPI    C1 4945  11.900  16.418   9.346 -0.5251  0.0495 -0.0383
  310loPI    C2 4946  12.159  16.183   9.541 -0.1203  0.2462 -0.3227
  310loPI    C3 4947  11.797  16.044   9.443 -0.1681  0.0006  0.1713
  310loPI   PO4 4948  11.875  16.514   9.137 -0.0003 -0.3285 -0.0785
  310loPI   GL1 4949  11.965  16.336   8.709 -0.1235 -0.1399  0.1723
  310loPI   GL2 4950  11.631  16.437   8.603  0.7000  0.2997 -0.2781
  310loPI   C1A 4951  12.126  16.213   8.377 -0.2017 -0.3945 -0.2059
  310loPI   C2A 4952  12.244  16.275   7.951  0.3370  0.1171 -0.0349
  310loPI   C3A 4953  12.316  16.011   7.648 -0.1833  0.0771  0.0768
  310loPI   C4A 4954  12.303  16.031   7.156 -0.1699 -0.0090  0.1692
  310loPI   C5A 4955  12.545  16.078   6.755  0.0942 -0.0260 -0.1963
  310loPI   C6A 4956  12.649  15.772   6.442 -0.0677  0.2423  0.0716
  310loPI   C1B 4957  11.450  16.696   8.253 -0.2124 -0.1331  0.0720
  310loPI   C2B 4958  11.234  16.770   7.953 -0.1492  0.4126  0.0455
  310loPI   C3B 4959  11.192  16.791   7.499  0.2711 -0.0884  0.1744
  310loPI   C4B 4960  11.073  16.788   7.061  0.1795 -0.2807 -0.4840
  311loPI    C1 4961  13.726  18.538   9.385 -0.2118 -0.1430 -0.0262
  311loPI    C2 4962  13.957  18.303   9.158  0.1293 -0.0117  0.1763
  311loPI    C3 4963  13.998  18.299   9.556 -0.0706  0.1732  0.2005
  311loPI   PO4 4964  13.761  18.786   9.165 -0.0437 -0.0160 -0.4880
  311loPI   GL1 4965  14.017  18.866   8.901 -0.2158  0.0212 -0.1003
  311loPI   GL2 4966  14.196  18.606   8.854  0.2304 -0.0557 -0.1242
  311loPI   C1A 4967  14.227  19.060   8.550  0.0426  0.0248 -0.1167
  311loPI   C2A 4968  14.164  18.936   8.188  0.0147 -0.0727 -0.0390
  311loPI   C3A 4969  14.251  18.822   7.702  0.1906 -0.3831 -0.1603
  311loPI   C4A 4970  14.483  18.858   7.436 -0.0832  0.1364  0.1405
  311loPI   C5A 4971  14.629  18.642   7.139  0.2314  0.0123 -0.2080
  311loPI   C6A 4972  14.806  18.668   6.792  0.1803 -0.2542 -0.2289
  311loPI   C1B 4973  14.039  18.557   8.415 -0.0318  0.3546  0.1044
  311loPI   C2B 4974  13.909  18.446   7.910 -0.2652 -0.3559 -0.2463
  311loPI   C3B 4975  13.846  18.526   7.448 -0.0958 -0.0070  0.2256
  311loPI   C4B 4976  14.023  18.872   7.285 -0.4378 -0.0459  0.0311
  312loPI    C1 4977  15.845  17.064   9.619 -0.0131 -0.0157 -0.0180
  312loPI    C2 4978  16.060  16.780   9.438  0.0579  0.0336 -0.0119
  312loPI    C3 4979  16.178  16.924   9.791 -0.1511 -0.1560  0.1385
  312loPI   PO4 4980  15.637  17.083   9.401 -0.2088 -0.3904  0.3481
  312loPI   GL1 4981  15.567  16.852   8.945 -0.1391  0.0812 -0.0060
  312loPI   GL2 4982  15.929  17.072   9.003  0.1287 -0.1338  0.0515
  312loPI   C1A 4983  15.514  16.665   8.616  0.0507  0.1594 -0.5269
  312loPI   C2A 4984  15.203  16.550   8.283  0.0957  0.1697 -0.1876
  312loPI   C3A 4985  15.161  16.781   7.958  0.1117 -0.2419  0.0393
  312loPI   C4A 4986  15.216  17.086   7.642  0.1411  0.3200 -0.1852
  312loPI   C5A 4987  15.502  17.272   7.374  0.1375 -0.3788 -0.3413
  312loPI   C6A 4988  15.952  17.410   7.221 -0.1346  0.0746  0.1659
  312loPI   C1B 4989  16.111  16.878   8.783  0.0591  0.0219 -0.3424
  312loPI   C2B 4990  16.088  16.807   8.323  0.0014  0.1115  0.0491
  312loPI   C3B 4991  16.034  16.712   7.913 -0.2241 -0.0294  0.4081
  312loPI   C4B 4992  15.870  16.552   7.531 -0.2148 -0.1804  0.3657
  313loPI    C1 4993   3.633  13.902   8.874  0.0704 -0.3230 -0.1698
  313loPI    C2 4994   3.790  13.872   9.240 -0.0787 -0.1366 -0.0883
  313loPI    C3 4995   3.707  13.541   9.030 -0.2795 -0.2547  0.1710
  313loPI   PO4 4996   3.785  14.103   8.713  0.1371 -0.0187  0.1215
  313loPI   GL1 4997   4.022  14.257   8.518  0.2122 -0.0918  0.2335
  313loPI   GL2 4998   4.319  14.250   8.597 -0.0022  0.1519  0.2558
  313loPI   C1A 4999   3.865  14.149   8.083  0.1456  0.0932  0.3690
  313loPI   C2A 5000   3.779  13.930   7.741  0.1078 -0.3869  0.3582
  313loPI   C3A 5001   3.755  13.556   7.532  0.3086 -0.0513 -0.3017
  313loPI   C4A 5002   3.722  13.437   7.096  0.0994 -0.3259 -0.0751
  313loPI   C5A 5003   4.050  13.300   6.716  0.1496 -0.0428 -0.0492
  313loPI   C6A 5004   4.339  13.418   6.338  0.2046 -0.1773  0.2934
  313loPI   C1B 5005   4.314  14.260   8.066  0.0903  0.0838 -0.1255
  313loPI   C2B 5006   4.235  14.263   7.649  0.1196 -0.0997  0.0867
  313loPI   C3B 5007   4.211  14.288   7.241  0.0247 -0.1181  0.2727
  313loPI   C4B 5008   4.171  14.228   6.783 -0.0524 -0.1111  0.1876
  314loPI    C1 5009  19.738  15.433   9.946  0.0464 -0.0608 -0.0543
  314loPI    C2 5010  20.087  15.391  10.137  0.1099  0.2124 -0.1063
  314loPI    C3 5011  19.744  15.349  10.337  0.1727  0.0905 -0.0228
  314loPI   PO4 5012  19.638  15.271   9.695 -0.0941  0.0904 -0.0341
  314loPI   GL1 5013  19.678  15.359   9.161 -0.2514  0.5026  0.0567
  314loPI   GL2 5014  19.684  15.647   8.898 -0.0104  0.2144 -0.3469
  314loPI   C1A 5015  19.864  15.149   8.703 -0.3650 -0.1355  0.2346
  314loPI   C2A 5016  20.043  15.094   8.303 -0.1675 -0.1399 -0.3805
  314loPI   C3A 5017  19.896  15.053   7.819  0.0413  0.1948 -0.1829
  314loPI   C4A 5018  19.920  14.720   7.533 -0.1985 -0.1167 -0.2298
  314loPI   C5A 5019  19.744  14.425   7.225  0.1925 -0.1027 -0.0525
  314loPI   C6A 5020  20.011  14.079   7.090  0.4301  0.1028  0.2315
  314loPI   C1B 5021  19.814  15.524   8.375  0.1883  0.1326 -0.0373
  314loPI   C2B 5022  19.797  15.592   7.892  0.0666 -0.1403 -0.1435
  314loPI   C3B 5023  19.708  15.442   7.472 -0.0048 -0.0643  0.0534
  314loPI   C4B 5024  19.631  15.233   7.092 -0.1936 -0.3894  0.2377
  315loPI    C1 5025   3.989   6.188   9.169 -0.0648 -0.0979 -0.1976
  315loPI    C2 5026   4.019   5.992   9.516 -0.0440  0.2079 -0.0232
  315loPI    C3 5027   3.740   5.885   9.250 -0.1792  0.0873  0.1642
  315loPI   PO4 5028   4.205   6.259   9.033  0.4427 -0.0301  0.1963
  315loPI   GL1 5029   4.262   6.066   8.693 -0.1224 -0.1598 -0.1781
  315loPI   GL2 5030   4.629   6.043   8.834  0.1235 -0.1178 -0.0029
  315loPI   C1A 5031   4.325   6.051   8.181  0.0527  0.2034  0.2301
  315loPI   C2A 5032   4.428   6.237   7.725  0.0911 -0.1651 -0.1169
  315loPI   C3A 5033   4.515   6.179   7.303 -0.1015  0.3596  0.1075
  315loPI   C4A 5034   4.672   6.173   6.825 -0.0898  0.1159 -0.2301
  315loPI   C5A 5035   4.551   5.968   6.538  0.3604 -0.3482 -0.0532
  315loPI   C6A 5036   4.149   5.784   6.520  0.0508  0.2297  0.1107
  315loPI   C1B 5037   4.860   6.104   8.514 -0.0427 -0.4722 -0.3372
  315loPI   C2B 5038   4.809   6.115   8.038  0.1479  0.1967  0.2973
  315loPI   C3B 5039   4.854   5.898   7.579  0.1688 -0.0232  0.0178
  315loPI   C4B 5040   5.029   5.798   7.150  0.1081 -0.0050  0.1922
  316loPI    C1 5041   2.678   1.952   9.437 -0.0837  0.3770  0.1529
  316loPI    C2 5042   2.380   1.821   9.670 -0.0021 -0.0761  0.0134
  316loPI    C3 5043   2.759   1.742   9.768  0.0598  0.2014  0.0082
  316loPI   PO4 5044   2.654   1.964   9.217 -0.0384  0.0390  0.4415
  316loPI   GL1 5045   2.624   1.787   8.710  0.1031 -0.2300  0.2133
  316loPI   GL2 5046   2.583   1.483   8.716 -0.0015  0.1057  0.1381
  316loPI   C1A 5047   2.731   1.850   8.306 -0.1649  0.0886  0.1334
  316loPI   C2A 5048   2.777   1.717   7.842 -0.0326 -0.0988  0.0436
  316loPI   C3A 5049   2.766   1.893   7.392  0.0411 -0.0542 -0.1002
  316loPI   C4A 5050   2.933   1.944   6.979 -0.1367 -0.1478 -0.0574
  316loPI   C5A 5051   2.978   2.004   6.549  0.0506 -0.2786 -0.0006
  316loPI   C6A 5052   2.927   2.001   6.107 -0.0385 -0.3151  0.1593
  316loPI   C1B 5053   2.580   1.364   8.276  0.1489  0.2061  0.1830
  316loPI   C2B 5054   2.699   1.274   7.897  0.2266 -0.3249  0.0054
  316loPI   C3B 5055   2.541   1.158   7.547  0.0177 -0.0320  0.3975
  316loPI   C4B 5056   2.644   1.392   7.107  0.0363 -0.1558 -0.0799
  317loPI    C1 5057  14.268  15.375   9.902  0.0114 -0.1007  0.1453
  317loPI    C2 5058  14.659  15.351   9.983  0.0852  0.1006 -0.1371
  317loPI    C3 5059  14.432  15.622  10.171  0.0998  0.0474 -0.0421
  317loPI   PO4 5060  14.268  15.416   9.640  0.1079 -0.0783 -0.2019
  317loPI   GL1 5061  14.222  15.658   9.261  0.2253  0.0159 -0.0998
  317loPI   GL2 5062  13.900  15.521   9.219 -0.3407  0.1968  0.1110
  317loPI   C1A 5063  14.422  15.772   8.850  0.2255 -0.2083 -0.2339
  317loPI   C2A 5064  14.459  15.833   8.375 -0.1607  0.3129  0.1628
  317loPI   C3A 5065  14.477  15.575   8.019  0.1666  0.2749 -0.0220
  317loPI   C4A 5066  14.757  15.548   7.610 -0.2724  0.5526  0.0045
  317loPI   C5A 5067  15.117  15.520   7.405 -0.0441  0.2420  0.1791
  317loPI   C6A 5068  15.381  15.383   6.980  0.2377  0.0269 -0.0222
  317loPI   C1B 5069  14.152  15.318   8.903 -0.2172 -0.2713  0.1497
  317loPI   C2B 5070  14.325  15.297   8.423  0.1788  0.0871 -0.1012
  317loPI   C3B 5071  14.724  15.045   8.199  0.3976 -0.2028  0.0753
  317loPI   C4B 5072  14.949  15.193   7.863  0.1823  0.0369 -0.3219
  318loPI    C1 5073  13.576   3.641  10.024  0.0264  0.0156  0.0567
  318loPI    C2 5074  13.895   3.405   9.975  0.0724  0.1262 -0.1891
  318loPI    C3 5075  13.933   3.756  10.164  0.0869  0.1187 -0.1779
  318loPI   PO4 5076  13.467   3.715   9.742 -0.2355 -0.2393  0.1853
  318loPI   GL1 5077  13.498   3.517   9.209  0.1326 -0.0668 -0.2367
  318loPI   GL2 5078  13.481   3.852   9.227 -0.2634  0.3335 -0.0659
  318loPI   C1A 5079  13.673   3.568   8.752 -0.0039 -0.1014  0.1738
  318loPI   C2A 5080  13.873   3.550   8.352  0.0958 -0.0170 -0.1620
  318loPI   C3A 5081  14.011   3.564   7.905  0.0843  0.0083  0.3002
  318loPI   C4A 5082  13.936   3.555   7.521 -0.1148 -0.0147  0.0501
  318loPI   C5A 5083  14.087   3.527   7.143  0.0128  0.1974 -0.0543
  318loPI   C6A 5084  14.197   3.607   6.820 -0.0810  0.2111 -0.3191
  318loPI   C1B 5085  13.503   4.044   8.817 -0.0875  0.0772  0.0717
  318loPI   C2B 5086  13.471   4.082   8.348  0.1063 -0.3444  0.2828
  318loPI   C3B 5087  13.178   4.194   7.993  0.1960 -0.0373 -0.0926
  318loPI   C4B 5088  13.041   4.218   7.550 -0.1061  0.2704 -0.1438
  319loPI    C1 5089  17.131   6.885   9.981 -0.1686  0.1185 -0.0996
  319loPI    C2 5090  17.356   6.995  10.292 -0.0685  0.1791 -0.1928
  319loPI    C3 5091  17.066   6.724  10.342  0.3088 -0.2305 -0.1588
  319loPI   PO4 5092  17.287   7.198   9.827  0.1675  0.0618 -0.0504
  319loPI   GL1 5093  17.378   7.358   9.410 -0.0728 -0.5637 -0.2165
  319loPI   GL2 5094  16.995   7.409   9.399 -0.2057 -0.0727 -0.4597
  319loPI   C1A 5095  17.468   7.120   9.099  0.0520 -0.0630 -0.1265
  319loPI   C2A 5096  17.476   7.026   8.574  0.4417  0.3241 -0.0904
  319loPI   C3A 5097  17.441   7.142   8.115  0.1509 -0.1470 -0.0361
  319loPI   C4A 5098  17.439   7.116   7.663  0.0187  0.1026 -0.3930
  319loPI   C5A 5099  17.368   7.407   7.326 -0.1164  0.4908  0.0504
  319loPI   C6A 5100  17.570   7.551   6.897 -0.1105  0.0376 -0.0851
  319loPI   C1B 5101  17.211   7.531   8.972 -0.2179  0.0600 -0.1213
  319loPI   C2B 5102  17.191   7.465   8.610 -0.0856  0.1750  0.1479
  319loPI   C3B 5103  17.257   7.564   8.183 -0.1234 -0.0844  0.0099
  319loPI   C4B 5104  17.186   7.580   7.749  0.2353  0.0831  0.2541
  320loPI    C1 5105   4.111   3.421   9.650 -0.1447  0.2071  0.2739
  320loPI    C2 5106   4.501   3.376   9.727 -0.0994  0.0014 -0.0571
  320loPI    C3 5107   4.229   3.210   9.969  0.0195  0.0544  0.1147
  320loPI   PO4 5108   4.159   3.498   9.347  0.2281 -0.1059  0.2026
  320loPI   GL1 5109   4.296   3.490   8.879 -0.2320  0.1471  0.4873
  320loPI   GL2 5110   4.262   3.762   8.826  0.0860 -0.1234  0.3596
  320loPI   C1A 5111   4.349   3.284   8.440 -0.1864 -0.3391  0.2541
  320loPI   C2A 5112   4.426   3.215   8.062 -0.0700  0.1193  0.1714
  320loPI   C3A 5113   4.277   3.204   7.557  0.1477 -0.0340  0.1969
  320loPI   C4A 5114   4.265   3.154   7.174 -0.1607  0.0107  0.0304
  320loPI   C5A 5115   4.186   3.313   6.627  0.1417  0.2011 -0.3587
  320loPI   C6A 5116   4.196   3.524   6.228 -0.1449 -0.0815  0.1479
  320loPI   C1B 5117   4.076   3.718   8.395  0.1443 -0.0290 -0.1300
  320loPI   C2B 5118   4.113   3.599   7.937  0.0620  0.2808  0.0286
  320loPI   C3B 5119   4.041   3.701   7.365 -0.1926 -0.0534 -0.1075
  320loPI   C4B 5120   3.740   3.635   7.017 -0.1889  0.1152 -0.1752
  321loPI    C1 5121   7.724   2.442   9.302 -0.1612 -0.0453 -0.0571
  321loPI    C2 5122   7.755   2.109   9.521  0.0730 -0.0505 -0.0954
  321loPI    C3 5123   7.891   2.457   9.665  0.2232 -0.0530 -0.2287
  321loPI   PO4 5124   7.907   2.419   9.095 -0.0920 -0.0344 -0.0933
  321loPI   GL1 5125   8.058   2.506   8.596  0.2719 -0.0504  0.0821
  321loPI   GL2 5126   8.057   2.165   8.534  0.2345 -0.0191 -0.2099
  321loPI   C1A 5127   8.000   2.538   8.022 -0.1813  0.1941  0.2574
  321loPI   C2A 5128   7.850   2.585   7.598 -0.0785 -0.2116 -0.0083
  321loPI   C3A 5129   7.745   2.663   7.181 -0.0320  0.0953  0.2099
  321loPI   C4A 5130   7.831   2.817   6.789  0.1033  0.3025  0.2396
  321loPI   C5A 5131   8.110   3.124   6.694  0.1996  0.1408  0.1785
  321loPI   C6A 5132   8.463   3.352   6.647 -0.3131 -0.2337 -0.3919
  321loPI   C1B 5133   7.845   1.999   8.191  0.1116  0.1648 -0.0125
  321loPI   C2B 5134   7.832   2.123   7.756  0.0361 -0.2595 -0.0176
  321loPI   C3B 5135   7.992   2.199   7.288 -0.1311  0.2634  0.0649
  321loPI   C4B 5136   7.960   2.333   6.820  0.2769  0.1481 -0.1449
  322loPI    C1 5137   3.281   6.271   9.339  0.2659 -0.1211 -0.1477
  322loPI    C2 5138   3.522   6.244   9.658  0.1381  0.1295 -0.0272
  322loPI    C3 5139   3.197   6.012   9.632  0.1625  0.0909  0.0128
  322loPI   PO4 5140   3.479   6.296   9.142  0.0295 -0.0635  0.1060
  322loPI   GL1 5141   3.543   6.314   8.676 -0.0749 -0.2441  0.2318
  322loPI   GL2 5142   3.748   5.989   8.738  0.0290  0.1286 -0.2703
  322loPI   C1A 5143   3.353   6.177   8.235  0.1520  0.2450 -0.2793
  322loPI   C2A 5144   3.427   6.153   7.810 -0.1790  0.0832 -0.0518
  322loPI   C3A 5145   3.556   6.304   7.455  0.1554  0.1033  0.0558
  322loPI   C4A 5146   3.577   6.449   7.098  0.1846  0.1641 -0.1110
  322loPI   C5A 5147   3.827   6.508   6.679  0.4329 -0.1818  0.0161
  322loPI   C6A 5148   3.941   6.226   6.469 -0.0633  0.1783 -0.1568
  322loPI   C1B 5149   3.838   6.042   8.312 -0.2641  0.0584 -0.0489
  322loPI   C2B 5150   3.927   6.160   7.854 -0.0514  0.0473 -0.2343
  322loPI   C3B 5151   4.025   6.259   7.354 -0.1262 -0.1639 -0.1094
  322loPI   C4B 5152   4.187   6.256   6.876 -0.0490  0.0203 -0.4074
  323loPI    C1 5153  16.220  11.403  10.084 -0.0225  0.0564  0.0062
  323loPI    C2 5154  16.528  11.589  10.258 -0.1894  0.2576  0.0911
  323loPI    C3 5155  16.281  11.364  10.477 -0.1734  0.1936  0.0441
  323loPI   PO4 5156  16.370  11.504   9.709 -0.1138  0.4687 -0.0082
  323loPI   GL1 5157  16.570  11.211   9.401 -0.5130 -0.2981  0.1073
  323loPI   GL2 5158  16.293  11.025   9.399 -0.2292 -0.2406  0.0367
  323loPI   C1A 5159  16.490  11.469   8.976  0.1141  0.1427 -0.3737
  323loPI   C2A 5160  16.384  11.348   8.660  0.0733  0.0570 -0.0706
  323loPI   C3A 5161  16.478  11.093   8.281  0.1420  0.1399 -0.0206
  323loPI   C4A 5162  16.387  11.087   7.809  0.2339  0.3528 -0.3457
  323loPI   C5A 5163  16.349  11.229   7.370  0.1159 -0.1062 -0.1781
  323loPI   C6A 5164  16.532  11.566   7.237  0.0932  0.1411  0.0093
  323loPI   C1B 5165  16.568  10.965   8.972 -0.1021 -0.0675 -0.0581
  323loPI   C2B 5166  16.713  10.811   8.573 -0.4163  0.0128 -0.1843
  323loPI   C3B 5167  16.795  10.763   8.194 -0.3188  0.0324  0.0166
  323loPI   C4B 5168  16.745  10.715   7.814 -0.1088 -0.1671 -0.0378
  324loPI    C1 5169  13.709  14.526   9.544 -0.0956  0.1951  0.3532
  324loPI    C2 5170  13.594  14.502   9.927 -0.1885  0.2215  0.3272
  324loPI    C3 5171  13.981  14.549   9.837 -0.1844  0.3795  0.4226
  324loPI   PO4 5172  13.664  14.367   9.443 -0.0328  0.1395 -0.1165
  324loPI   GL1 5173  13.833  14.226   9.149 -0.4073  0.1065  0.0459
  324loPI   GL2 5174  14.166  14.241   8.981 -0.1151 -0.0421 -0.1006
  324loPI   C1A 5175  13.685  14.324   8.759 -0.2346  0.0841  0.3189
  324loPI   C2A 5176  13.596  14.409   8.307 -0.0791  0.0995  0.0007
  324loPI   C3A 5177  13.462  14.471   8.023 -0.1070 -0.2578 -0.0007
  324loPI   C4A 5178  13.242  14.405   7.625 -0.0728  0.1959  0.1711
  324loPI   C5A 5179  13.243  14.381   7.148 -0.0429  0.1011  0.1168
  324loPI   C6A 5180  13.415  14.602   6.856  0.1592 -0.0885 -0.3003
  324loPI   C1B 5181  14.140  14.185   8.534  0.2350 -0.0028  0.0622
  324loPI   C2B 5182  14.155  14.202   8.060  0.2943 -0.1477  0.0276
  324loPI   C3B 5183  14.297  14.328   7.680  0.1749 -0.1035  0.5260
  324loPI   C4B 5184  14.498  14.352   7.306  0.1997 -0.2477  0.0299
  325loPI    C1 5185   9.093  13.638   9.422  0.0234  0.1350 -0.0422
  325loPI    C2 5186   8.847  13.714   9.728 -0.0941 -0.2810 -0.0271
  325loPI    C3 5187   9.243  13.735   9.780 -0.1170  0.3075 -0.0288
  325loPI   PO4 5188   8.947  13.687   9.184  0.2594 -0.2042 -0.0325
  325loPI   GL1 5189   9.162  13.831   8.743 -0.3571  0.0304  0.0246
  325loPI   GL2 5190   9.395  13.863   8.985 -0.1510 -0.0278 -0.1472
  325loPI   C1A 5191   9.292  13.920   8.304 -0.1763  0.0849  0.0678
  325loPI   C2A 5192   9.527  14.093   7.945  0.2590  0.0562  0.2228
  325loPI   C3A 5193   9.660  14.126   7.451  0.0310 -0.0192 -0.0169
  325loPI   C4A 5194  10.021  14.061   7.268  0.0644 -0.1388  0.0353
  325loPI   C5A 5195  10.135  13.545   7.092 -0.2459 -0.2795 -0.4949
  325loPI   C6A 5196  10.056  13.077   7.281 -0.0215 -0.1177  0.2572
  325loPI   C1B 5197   9.567  14.133   8.645  0.0375 -0.1318 -0.0189
  325loPI   C2B 5198   9.826  14.349   8.341 -0.3922  0.1291  0.0060
  325loPI   C3B 5199   9.989  14.592   8.060  0.2678  0.0232 -0.1369
  325loPI   C4B 5200  10.178  14.871   7.884 -0.0344  0.0483  0.0337
  326loPI    C1 5201  13.740   4.630  10.006 -0.0083  0.0446  0.3607
  326loPI    C2 5202  14.139   4.593  10.013  0.0082 -0.0184 -0.3245
  326loPI    C3 5203  13.913   4.365  10.251  0.3763  0.0160  0.0688
  326loPI   PO4 5204  13.675   4.582   9.676  0.0248  0.1105 -0.0286
  326loPI   GL1 5205  13.768   4.888   9.264  0.2149  0.2672 -0.1736
  326loPI   GL2 5206  13.652   5.173   9.123  0.2600  0.0901  0.2510
  326loPI   C1A 5207  13.539   4.639   9.028 -0.2023 -0.1818 -0.1988
  326loPI   C2A 5208  13.376   4.614   8.655  0.1833 -0.0444 -0.2241
  326loPI   C3A 5209  13.251   4.557   8.260  0.2095 -0.2787  0.0043
  326loPI   C4A 5210  13.273   4.790   7.948 -0.1005 -0.0451 -0.0975
  326loPI   C5A 5211  13.196   4.711   7.496  0.3067 -0.0731 -0.0173
  326loPI   C6A 5212  13.069   4.611   7.090  0.2764  0.2012 -0.0371
  326loPI   C1B 5213  13.560   5.110   8.733 -0.0325  0.1728 -0.0226
  326loPI   C2B 5214  13.575   5.083   8.336 -0.0118 -0.0640  0.0634
  326loPI   C3B 5215  13.419   5.246   7.862  0.1144  0.1582  0.3231
  326loPI   C4B 5216  13.134   5.532   7.564  0.2155  0.0907 -0.0080
  327loPI    C1 5217  12.970   0.187   9.739  0.0511  0.1253  0.0199
  327loPI    C2 5218  13.160   0.505   9.891 -0.0671  0.1716  0.0713
  327loPI    C3 5219  13.105   0.178  10.115 -0.0807  0.1722  0.0687
  327loPI   PO4 5220  13.035   0.210   9.484 -0.3898 -0.2761  0.1284
  327loPI   GL1 5221  13.411   0.252   9.114 -0.3037  0.1024 -0.1746
  327loPI   GL2 5222  13.254   0.135   8.947  0.3264 -0.2327 -0.1281
  327loPI   C1A 5223  13.726   0.407   8.836 -0.2154 -0.1461  0.0981
  327loPI   C2A 5224  13.985   0.481   8.512 -0.0661  0.1310 -0.0690
  327loPI   C3A 5225  14.351   0.355   8.225  0.1137 -0.2440 -0.2224
  327loPI   C4A 5226  14.610   0.385   7.849 -0.1444  0.3549 -0.0124
  327loPI   C5A 5227  14.579   0.315   7.454  0.0099  0.1035  0.0858
  327loPI   C6A 5228  14.247   0.279   7.113 -0.0661  0.0613 -0.0553
  327loPI   C1B 5229  12.889   0.437   8.685  0.2397  0.1649 -0.3733
  327loPI   C2B 5230  12.776   0.390   8.284  0.0650  0.1061  0.2050
  327loPI   C3B 5231  12.888   0.253   7.817  0.2415 -0.2508 -0.2905
  327loPI   C4B 5232  12.742   0.473   7.421  0.0659 -0.1581 -0.1177
  328loPI    C1 5233  19.328   0.763   9.110  0.1261  0.1773 -0.0560
  328loPI    C2 5234  19.587   0.920   8.849 -0.1451  0.3655 -0.2180
  328loPI    C3 5235  19.404   1.156   9.115 -0.1287  0.2288 -0.0841
  328loPI   PO4 5236  19.199   0.625   9.001  0.1444 -0.2227  0.0594
  328loPI   GL1 5237  19.151   0.391   8.738  0.1680  0.2864  0.3384
  328loPI   GL2 5238  18.871   0.437   8.656  0.0847  0.0747 -0.1876
  328loPI   C1A 5239  19.380   0.453   8.359 -0.2139  0.0761 -0.2889
  328loPI   C2A 5240  19.132   0.476   7.975 -0.0283  0.1449 -0.2874
  328loPI   C3A 5241  18.965   0.878   7.872  0.2417 -0.0016  0.3474
  328loPI   C4A 5242  18.616   1.086   7.853  0.1780  0.3840  0.2435
  328loPI   C5A 5243  18.583   1.337   7.508 -0.3269 -0.0382 -0.0657
  328loPI   C6A 5244  18.635   1.672   7.155  0.0782  0.0292 -0.2785
  328loPI   C1B 5245  18.760   0.338   8.289  0.0066  0.2389 -0.1622
  328loPI   C2B 5246  18.514   0.381   7.916 -0.0069  0.5269  0.0944
  328loPI   C3B 5247  18.727   0.586   7.569 -0.0875  0.2493 -0.2885
  328loPI   C4B 5248  18.737   0.929   7.266  0.0543 -0.0584 -0.3462
  329loPI    C1 5249   4.510  10.938   9.226  0.0356  0.0061  0.1658
  329loPI    C2 5250   4.199  10.808   9.442 -0.1234  0.0331 -0.0444
  329loPI    C3 5251   4.550  10.618   9.463 -0.1826 -0.0601  0.1157
  329loPI   PO4 5252   4.421  11.028   9.007  0.1684  0.0079 -0.2959
  329loPI   GL1 5253   4.470  11.251   8.641 -0.2297  0.0618  0.2772
  329loPI   GL2 5254   4.680  11.489   8.758 -0.1444  0.0555  0.0144
  329loPI   C1A 5255   4.279  11.259   8.261  0.0647 -0.3611  0.2183
  329loPI   C2A 5256   4.215  11.355   7.821  0.1346  0.0257  0.4259
  329loPI   C3A 5257   4.241  11.431   7.317  0.0786 -0.2652  0.3643
  329loPI   C4A 5258   4.648  11.345   7.013  0.0628  0.2451  0.0537
  329loPI   C5A 5259   4.599  11.281   6.661  0.3894 -0.2015  0.1312
  329loPI   C6A 5260   4.543  11.526   6.329 -0.3142 -0.2513 -0.2684
  329loPI   C1B 5261   4.574  11.612   8.257 -0.2884 -0.3551 -0.0478
  329loPI   C2B 5262   4.586  11.694   7.804 -0.0399 -0.3065  0.0713
  329loPI   C3B 5263   4.567  11.858   7.331 -0.2228  0.0760  0.1806
  329loPI   C4B 5264   4.546  11.808   6.831  0.1890  0.1722  0.1786
  330loPI    C1 5265   3.555  13.018   9.387 -0.0988  0.0025 -0.0467
  330loPI    C2 5266   3.576  12.722   9.655 -0.1171  0.2960  0.2867
  330loPI    C3 5267   3.551  13.102   9.779 -0.1202  0.4376 -0.1346
  330loPI   PO4 5268   3.771  12.933   9.161 -0.0810 -0.0244 -0.4646
  330loPI   GL1 5269   3.928  13.106   8.839 -0.0079 -0.1504 -0.1143
  330loPI   GL2 5270   3.698  13.256   8.546  0.2225  0.1852  0.2715
  330loPI   C1A 5271   3.939  12.870   8.444 -0.1558  0.0707 -0.2125
  330loPI   C2A 5272   3.651  12.459   8.339  0.0256  0.2042 -0.2669
  330loPI   C3A 5273   3.417  12.295   7.915  0.2088 -0.1411 -0.0208
  330loPI   C4A 5274   3.583  12.167   7.488 -0.2585  0.0966 -0.0885
  330loPI   C5A 5275   3.430  12.169   7.053  0.0636 -0.0285  0.1629
  330loPI   C6A 5276   3.330  12.051   6.661  0.2891 -0.2179 -0.4396
  330loPI   C1B 5277   3.987  13.328   8.191 -0.0984  0.2912  0.0666
  330loPI   C2B 5278   4.070  13.137   7.903  0.1546 -0.5554 -0.1246
  330loPI   C3B 5279   3.968  13.109   7.440 -0.0155  0.1197  0.1900
  330loPI   C4B 5280   3.913  12.976   7.050  0.1207 -0.3181 -0.1794
  331loPI    C1 5281  19.876  18.975   9.499  0.4416  0.2249  0.2086
  331loPI    C2 5282  19.518  18.907   9.665  0.2635  0.1652 -0.1899
  331loPI    C3 5283  19.771  19.167   9.834  0.1805 -0.0598  0.2939
  331loPI   PO4 5284  19.813  18.992   9.246  0.1125  0.0522 -0.1139
  331loPI   GL1 5285  19.988  18.836   8.826 -0.0302  0.1012  0.0211
  331loPI   GL2 5286  19.645  18.860   8.838 -0.0200 -0.1192  0.1575
  331loPI   C1A 5287  20.067  18.883   8.391 -0.1351 -0.1018 -0.1061
  331loPI   C2A 5288  19.931  18.929   8.030 -0.2510  0.2373  0.2575
  331loPI   C3A 5289  20.120  19.065   7.607  0.0972  0.0201 -0.0092
  331loPI   C4A 5290  20.240  19.266   7.171  0.3189 -0.1032 -0.1255
  331loPI   C5A 5291  20.105  19.318   6.721 -0.0715 -0.0981  0.1282
  331loPI   C6A 5292  19.933  19.611   6.561 -0.0306 -0.3791  0.4569
  331loPI   C1B 5293  19.697  19.154   8.560  0.0550  0.5041  0.1965
  331loPI   C2B 5294  19.653  19.339   8.206  0.0538  0.4019 -0.0990
  331loPI   C3B 5295  19.943  19.419   7.920  0.4217  0.1950 -0.0043
  331loPI   C4B 5296  20.284  19.626   7.633 -0.0044 -0.0983 -0.2818
  332loPI    C1 5297   8.790  17.919   9.104 -0.2131 -0.0553  0.0025
  332loPI    C2 5298   8.866  18.140   9.429  0.0772 -0.1930  0.0320
  332loPI    C3 5299   8.524  17.934   9.403 -0.1109  0.1055  0.0871
  332loPI   PO4 5300   9.019  17.839   8.990 -0.0047 -0.3810 -0.0425
  332loPI   GL1 5301   9.209  17.855   8.652 -0.1279 -0.0217  0.2625
  332loPI   GL2 5302   9.529  17.703   8.758 -0.0187 -0.1164  0.2126
  332loPI   C1A 5303   9.306  18.164   8.379  0.3994  0.0661 -0.0482
  332loPI   C2A 5304   9.309  18.154   7.959  0.0298 -0.0906 -0.3317
  332loPI   C3A 5305   9.311  18.094   7.557 -0.0021  0.0066  0.0822
  332loPI   C4A 5306   9.271  18.139   7.123 -0.1118 -0.1146 -0.1885
  332loPI   C5A 5307   8.847  18.200   6.737 -0.2361 -0.2003  0.1371
  332loPI   C6A 5308   8.478  18.407   6.740  0.0392  0.0011  0.0238
  332loPI   C1B 5309   9.590  17.676   8.286  0.0211 -0.1346 -0.0962
  332loPI   C2B 5310   9.554  17.726   7.821  0.0589  0.1937 -0.1907
  332loPI   C3B 5311   9.746  17.792   7.446 -0.2879  0.2081 -0.1128
  332loPI   C4B 5312   9.537  17.619   7.118 -0.2404 -0.4738  0.0659
  333loPI    C1 5313   5.005   8.129   9.625  0.1095 -0.0920  0.1300
  333loPI    C2 5314   4.749   8.050   9.922 -0.1171 -0.1341 -0.0729
  333loPI    C3 5315   4.835   8.429   9.827 -0.4045 -0.1108 -0.2526
  333loPI   PO4 5316   4.999   7.918   9.347  0.3793  0.3936  0.0114
  333loPI   GL1 5317   5.125   8.152   8.913  0.1514  0.2252 -0.0314
  333loPI   GL2 5318   5.385   8.406   8.961 -0.0497 -0.0464 -0.2383
  333loPI   C1A 5319   5.266   8.282   8.468  0.1875  0.2275  0.1735
  333loPI   C2A 5320   5.350   8.651   8.183 -0.0510 -0.0178 -0.0423
  333loPI   C3A 5321   5.334   8.747   7.751  0.1075 -0.2234  0.0987
  333loPI   C4A 5322   5.330   8.649   7.296 -0.0693 -0.0569 -0.4015
  333loPI   C5A 5323   5.535   8.537   6.916  0.3340 -0.2596 -0.0270
  333loPI   C6A 5324   5.722   8.566   6.466 -0.1539 -0.2734  0.0896
  333loPI   C1B 5325   5.708   8.128   8.726  0.0072 -0.0188 -0.5310
  333loPI   C2B 5326   5.913   8.120   8.324  0.0253 -0.1996 -0.0639
  333loPI   C3B 5327   5.765   7.925   7.857 -0.0686  0.0207 -0.0003
  333loPI   C4B 5328   5.504   7.804   7.594 -0.0893  0.0273  0.4126
  334loPI    C1 5329  16.203   8.828   9.742 -0.2543  0.0594 -0.1347
  334loPI    C2 5330  15.997   8.488   9.786 -0.0284 -0.1051 -0.3232
  334loPI    C3 5331  15.986   8.767  10.072  0.2097 -0.5008  0.0849
  334loPI   PO4 5332  16.177   8.899   9.567 -0.1107  0.1076  0.1082
  334loPI   GL1 5333  15.944   9.003   9.153 -0.1267 -0.0498  0.0138
  334loPI   GL2 5334  15.945   8.777   9.114  0.1644  0.1318  0.2260
  334loPI   C1A 5335  16.069   9.235   8.821 -0.0678  0.0520 -0.0416
  334loPI   C2A 5336  16.072   9.317   8.342 -0.4081 -0.0848 -0.1150
  334loPI   C3A 5337  16.019   9.323   7.925 -0.0934  0.0793 -0.0524
  334loPI   C4A 5338  15.953   9.435   7.541 -0.1692 -0.2904 -0.1002
  334loPI   C5A 5339  15.789   9.393   7.126  0.0546 -0.0991  0.0657
  334loPI   C6A 5340  15.701   9.436   6.719  0.0279  0.2956 -0.2532
  334loPI   C1B 5341  15.824   8.792   8.665  0.0404  0.0927  0.0360
  334loPI   C2B 5342  15.798   8.794   8.158 -0.0950  0.1511  0.1736
  334loPI   C3B 5343  15.766   8.938   7.742  0.0397 -0.1936  0.0791
  334loPI   C4B 5344  15.895   8.941   7.353  0.1825  0.0938 -0.4073
  335loPI    C1 5345  18.936  10.014   9.246  0.0181 -0.0914 -0.0870
  335loPI    C2 5346  18.820   9.675   9.067 -0.2892 -0.0912  0.1041
  335loPI    C3 5347  18.966   9.664   9.439  0.0710 -0.0566 -0.0320
  335loPI   PO4 5348  19.128  10.115   9.097  0.0836 -0.0838  0.0535
  335loPI   GL1 5349  19.300  10.118   8.635  0.0978 -0.0256  0.1172
  335loPI   GL2 5350  18.880  10.090   8.645 -0.0940 -0.1119 -0.0374
  335loPI   C1A 5351  19.297   9.975   8.247  0.0229 -0.0672  0.1151
  335loPI   C2A 5352  19.304  10.006   7.718 -0.0071  0.1361 -0.2527
  335loPI   C3A 5353  19.399   9.975   7.316  0.1488  0.0639  0.0559
  335loPI   C4A 5354  19.476  10.051   6.836  0.2187 -0.0464  0.0189
  335loPI   C5A 5355  19.742   9.974   6.415  0.0634 -0.1983  0.1011
  335loPI   C6A 5356  19.951   9.970   6.032  0.0010  0.0572  0.1107
  335loPI   C1B 5357  18.554  10.313   8.277 -0.0890  0.0158 -0.1103
  335loPI   C2B 5358  18.403  10.467   7.885 -0.2892 -0.1402 -0.1740
  335loPI   C3B 5359  18.144  10.807   7.754  0.2896 -0.0751  0.1371
  335loPI   C4B 5360  18.322  11.013   8.030  0.1447  0.1751  0.1289
  336loPI    C1 5361   8.147  14.552   9.209 -0.1953 -0.1188 -0.1092
  336loPI    C2 5362   8.202  14.806   9.513  0.1796 -0.1659 -0.1334
  336loPI    C3 5363   8.182  14.413   9.582  0.0044 -0.1590 -0.1418
  336loPI   PO4 5364   8.328  14.506   9.110 -0.0114 -0.2536  0.0173
  336loPI   GL1 5365   8.562  14.375   8.771  0.0920  0.0236  0.0426
  336loPI   GL2 5366   8.787  14.230   8.725  0.2677 -0.0331  0.0026
  336loPI   C1A 5367   8.537  14.481   8.350  0.0510  0.0256  0.2137
  336loPI   C2A 5368   8.298  14.379   8.005  0.2395 -0.0641 -0.3371
  336loPI   C3A 5369   7.982  14.343   7.703  0.0088 -0.0182  0.0364
  336loPI   C4A 5370   7.779  14.264   7.321 -0.4010  0.0253 -0.2775
  336loPI   C5A 5371   7.874  14.049   7.094 -0.1576 -0.1869  0.0270
  336loPI   C6A 5372   7.583  13.717   7.160 -0.2674 -0.1332  0.3229
  336loPI   C1B 5373   8.736  14.013   8.358  0.0825  0.1847  0.0442
  336loPI   C2B 5374   8.709  14.134   8.005 -0.0110 -0.2488  0.0156
  336loPI   C3B 5375   8.598  14.074   7.650 -0.5945 -0.0145 -0.3655
  336loPI   C4B 5376   8.438  14.361   7.442 -0.4140 -0.0159 -0.1335
  337loPI    C1 5377   0.685  18.662   9.239 -0.1480 -0.0553 -0.0873
  337loPI    C2 5378   0.618  18.499   9.597  0.0564 -0.2256 -0.1251
  337loPI    C3 5379   0.319  18.676   9.400 -0.0328 -0.0332  0.1765
  337loPI   PO4 5380   0.815  18.447   9.085 -0.4516  0.0722  0.0622
  337loPI   GL1 5381   0.849  18.253   8.618 -0.0040 -0.0680 -0.1055
  337loPI   GL2 5382   0.758  17.843   8.623 -0.1221  0.1161  0.1886
  337loPI   C1A 5383   1.098  18.316   8.284 -0.0634 -0.1471  0.0338
  337loPI   C2A 5384   0.916  18.644   7.967 -0.3326 -0.0316  0.3555
  337loPI   C3A 5385   1.054  18.537   7.566 -0.1288  0.1151  0.4878
  337loPI   C4A 5386   1.057  18.713   7.212  0.3167  0.2537  0.2396
  337loPI   C5A 5387   1.216  18.746   6.846 -0.2624  0.0121  0.0737
  337loPI   C6A 5388   1.142  19.026   6.542 -0.0843  0.1554 -0.2077
  337loPI   C1B 5389   0.833  17.823   8.164 -0.0204  0.2694  0.0189
  337loPI   C2B 5390   1.162  17.964   7.908 -0.1201 -0.1157  0.0734
  337loPI   C3B 5391   1.332  18.094   7.561  0.0372  0.2702  0.3583
  337loPI   C4B 5392   1.232  18.259   7.212  0.3117  0.0486 -0.1072
  338loPI    C1 5393  16.927  17.650   9.881 -0.0208  0.2781  0.0551
  338loPI    C2 5394  16.923  17.471   9.523  0.2599  0.3406  0.0187
  338loPI    C3 5395  17.226  17.406   9.776 -0.1141  0.0089  0.3963
  338loPI   PO4 5396  16.847  17.903   9.725  0.0789 -0.0468  0.0766
  338loPI   GL1 5397  16.903  17.902   9.296 -0.4125 -0.2453  0.2972
  338loPI   GL2 5398  17.169  17.791   9.122  0.2638 -0.0186 -0.1186
  338loPI   C1A 5399  16.802  18.246   9.091 -0.3377 -0.0836  0.0501
  338loPI   C2A 5400  17.104  18.414   8.785 -0.1815  0.1555 -0.3550
  338loPI   C3A 5401  17.264  18.600   8.434  0.1359 -0.0391 -0.0919
  338loPI   C4A 5402  17.322  18.557   7.926  0.0471 -0.2333  0.1382
  338loPI   C5A 5403  17.301  18.676   7.558  0.1083 -0.1423  0.2535
  338loPI   C6A 5404  17.045  18.833   7.151  0.0309  0.1489 -0.5275
  338loPI   C1B 5405  17.102  17.877   8.742  0.2038 -0.4780  0.1579
  338loPI   C2B 5406  16.940  18.020   8.277 -0.3987  0.0880 -0.1033
  338loPI   C3B 5407  16.714  18.495   8.163 -0.2670  0.2973  0.1245
  338loPI   C4B 5408  16.643  18.283   8.540 -0.0625  0.2125 -0.0084
  339loPI    C1 5409   1.343  11.822   8.833  0.0740  0.0639  0.0346
  339loPI    C2 5410   1.332  11.772   9.230 -0.0252 -0.0265  0.0208
  339loPI    C3 5411   0.993  11.764   9.018  0.0264  0.0329 -0.0646
  339loPI   PO4 5412   1.588  11.634   8.772 -0.7382 -0.0816 -0.0076
  339loPI   GL1 5413   1.798  11.625   8.361  0.1996  0.1385  0.2692
  339loPI   GL2 5414   1.944  11.891   8.473 -0.0072 -0.2834  0.0263
  339loPI   C1A 5415   1.750  11.692   7.946 -0.0502 -0.4499  0.4139
  339loPI   C2A 5416   1.649  11.716   7.556 -0.1709 -0.0972  0.1465
  339loPI   C3A 5417   1.550  11.656   7.180 -0.1437 -0.1829  0.0583
  339loPI   C4A 5418   1.444  11.494   6.772 -0.1327 -0.0055  0.1350
  339loPI   C5A 5419   1.678  11.606   6.322 -0.0728  0.0669 -0.2992
  339loPI   C6A 5420   2.067  11.847   6.314 -0.0500 -0.1969 -0.0849
  339loPI   C1B 5421   2.114  12.000   8.123  0.3941  0.0382  0.6770
  339loPI   C2B 5422   2.197  11.969   7.649  0.1394 -0.0898 -0.0037
  339loPI   C3B 5423   2.012  11.822   7.250 -0.3069 -0.0303  0.0561
  339loPI   C4B 5424   1.893  11.744   6.806  0.1754 -0.2850  0.0999
  340loPI    C1 5425  13.384   1.669   9.728 -0.0029 -0.1063 -0.0200
  340loPI    C2 5426  13.496   1.488  10.066  0.0628  0.3310  0.1989
  340loPI    C3 5427  13.111   1.580  10.006  0.0130  0.0313  0.0404
  340loPI   PO4 5428  13.543   1.621   9.558  0.2357 -0.0173  0.0590
  340loPI   GL1 5429  13.646   1.573   9.253  0.3324  0.1222  0.0945
  340loPI   GL2 5430  13.798   1.819   9.153 -0.2345  0.1706 -0.3405
  340loPI   C1A 5431  13.580   1.511   8.772 -0.1258 -0.1479  0.0328
  340loPI   C2A 5432  13.874   1.406   8.396  0.0835 -0.1402  0.0225
  340loPI   C3A 5433  13.826   1.287   8.013 -0.0308 -0.1244 -0.1233
  340loPI   C4A 5434  13.536   1.364   7.764  0.0220  0.1455  0.2786
  340loPI   C5A 5435  13.364   1.381   7.332  0.0269 -0.1716  0.0533
  340loPI   C6A 5436  12.889   1.382   7.256 -0.2037 -0.0154  0.0603
  340loPI   C1B 5437  13.993   1.778   8.733  0.0964  0.0800 -0.0744
  340loPI   C2B 5438  13.925   1.985   8.422  0.4748 -0.4293  0.1641
  340loPI   C3B 5439  13.578   2.239   8.184  0.1228  0.0427  0.3650
  340loPI   C4B 5440  13.456   1.983   7.792 -0.1301  0.1474  0.0980
  341loPI    C1 5441  16.673   3.834   9.624  0.1545  0.0679  0.1981
  341loPI    C2 5442  16.509   3.703   9.964 -0.1758 -0.2079 -0.0601
  341loPI    C3 5443  16.577   4.094   9.913  0.1432 -0.1899  0.4302
  341loPI   PO4 5444  16.545   3.736   9.410 -0.1289 -0.1369  0.2103
  341loPI   GL1 5445  16.408   3.382   9.230  0.0822  0.3065 -0.4219
  341loPI   GL2 5446  16.163   3.153   9.242  0.1393  0.0764 -0.0385
  341loPI   C1A 5447  16.276   3.557   8.865  0.2373  0.1275 -0.1979
  341loPI   C2A 5448  16.037   3.545   8.521  0.2213  0.1634  0.0755
  341loPI   C3A 5449  16.091   3.442   8.076 -0.0508 -0.0847  0.1063
  341loPI   C4A 5450  16.142   3.392   7.635  0.0012 -0.1604 -0.2543
  341loPI   C5A 5451  16.061   3.237   7.244 -0.0128  0.0638 -0.2597
  341loPI   C6A 5452  16.132   3.484   6.875  0.0231  0.0263  0.2518
  341loPI   C1B 5453  16.255   3.043   8.830 -0.1154  0.1988  0.0215
  341loPI   C2B 5454  16.346   3.049   8.334  0.0239 -0.4298 -0.1377
  341loPI   C3B 5455  16.338   3.041   7.906  0.0397 -0.2336 -0.0993
  341loPI   C4B 5456  16.249   2.938   7.528 -0.2611  0.2987 -0.0506
  342loPI    C1 5457   9.003  12.891   9.243 -0.1809  0.0336 -0.0315
  342loPI    C2 5458   8.627  12.791   9.336 -0.1766 -0.1265 -0.1807
  342loPI    C3 5459   8.903  12.820   9.624 -0.3365  0.1471 -0.0500
  342loPI   PO4 5460   8.959  12.882   8.926  0.1088 -0.3794 -0.0114
  342loPI   GL1 5461   9.087  12.932   8.426  0.3416  0.1826  0.2922
  342loPI   GL2 5462   9.009  13.302   8.540  0.0974 -0.2794 -0.1057
  342loPI   C1A 5463   8.880  12.974   8.029 -0.0181 -0.0037  0.0344
  342loPI   C2A 5464   8.913  13.164   7.590  0.0919  0.0150 -0.3252
  342loPI   C3A 5465   9.423  13.105   7.447  0.1440 -0.1931 -0.0091
  342loPI   C4A 5466   9.482  13.022   7.058 -0.0598 -0.5426  0.0998
  342loPI   C5A 5467   9.617  12.969   6.574 -0.1123 -0.3208 -0.1389
  342loPI   C6A 5468   9.990  12.945   6.296 -0.1861 -0.0102 -0.1979
  342loPI   C1B 5469   8.887  13.488   8.177  0.1008 -0.1418  0.2927
  342loPI   C2B 5470   8.825  13.659   7.846  0.0298  0.4563  0.0384
  342loPI   C3B 5471   8.732  13.686   7.387  0.0750  0.4312 -0.0508
  342loPI   C4B 5472   8.708  13.735   6.916  0.1003  0.1160  0.2882
  343loPI    C1 5473  17.354   4.951   9.650  0.1307  0.0346 -0.0199
  343loPI    C2 5474  17.580   5.132   9.926 -0.1614  0.0942  0.1842
  343loPI    C3 5475  17.257   5.317   9.778 -0.1924 -0.0701  0.0433
  343loPI   PO4 5476  17.291   4.781   9.613 -0.0718 -0.4339  0.1637
  343loPI   GL1 5477  17.052   4.671   9.277  0.0875  0.1190  0.0461
  343loPI   GL2 5478  17.256   4.344   9.145  0.0653 -0.0578  0.0408
  343loPI   C1A 5479  16.999   4.772   8.872  0.2869  0.3059 -0.0321
  343loPI   C2A 5480  16.918   4.650   8.415 -0.0532  0.1519 -0.0160
  343loPI   C3A 5481  16.510   4.651   8.126  0.0311 -0.1549 -0.0507
  343loPI   C4A 5482  16.270   4.371   7.857  0.4047 -0.1982  0.4282
  343loPI   C5A 5483  15.830   4.532   7.514  0.1635  0.0954  0.0164
  343loPI   C6A 5484  15.771   4.413   7.068 -0.0208  0.1420 -0.0644
  343loPI   C1B 5485  17.158   4.270   8.759 -0.0515  0.0457  0.0847
  343loPI   C2B 5486  17.189   4.160   8.337 -0.1823  0.3644  0.1321
  343loPI   C3B 5487  17.176   4.220   7.939 -0.0834 -0.1362  0.1488
  343loPI   C4B 5488  17.379   4.292   7.502 -0.0611  0.0529 -0.0466
  344loPI    C1 5489   0.234  18.132   9.498  0.1619  0.1270 -0.0888
  344loPI    C2 5490   0.575  18.006   9.667  0.0284 -0.2257 -0.0744
  344loPI    C3 5491   0.282  18.156   9.895  0.2219  0.2044 -0.1008
  344loPI   PO4 5492   0.305  18.163   9.263  0.2451  0.1539 -0.0637
  344loPI   GL1 5493   0.315  18.451   8.930 -0.3048 -0.0592 -0.2095
  344loPI   GL2 5494   0.550  18.688   8.757 -0.1112 -0.0441 -0.1493
  344loPI   C1A 5495   0.286  18.372   8.477 -0.1609 -0.2454  0.3156
  344loPI   C2A 5496   0.584  18.253   8.193 -0.0141 -0.0807 -0.1528
  344loPI   C3A 5497   0.628  18.265   7.736  0.0503  0.0845 -0.0426
  344loPI   C4A 5498   0.556  18.362   7.325 -0.3239  0.2759  0.3606
  344loPI   C5A 5499   0.775  18.497   6.880  0.3210  0.2594 -0.1723
  344loPI   C6A 5500   1.041  18.483   6.442 -0.1509 -0.0276  0.1760
  344loPI   C1B 5501   0.668  18.694   8.375  0.1447  0.5050  0.1028
  344loPI   C2B 5502   0.470  18.755   8.030  0.2940  0.3188  0.3703
  344loPI   C3B 5503   0.216  18.560   7.744  0.3797  0.1798  0.3493
  344loPI   C4B 5504   0.094  18.679   7.298  0.0654  0.0316 -0.3305
  345loPI    C1 5505   5.760  11.140   9.616  0.0342  0.0769 -0.1687
  345loPI    C2 5506   5.945  11.460   9.768  0.1600 -0.0752  0.0028
  345loPI    C3 5507   5.748  11.209  10.010  0.0392 -0.1136 -0.1341
  345loPI   PO4 5508   5.906  11.059   9.330 -0.1322  0.1971  0.1697
  345loPI   GL1 5509   5.926  10.701   8.989  0.1810  0.1482  0.1433
  345loPI   GL2 5510   5.784  10.398   8.803 -0.1126 -0.1350 -0.1154
  345loPI   C1A 5511   6.044  11.064   8.661  0.1103  0.0597  0.0729
  345loPI   C2A 5512   5.942  11.122   8.270 -0.4719 -0.0904 -0.1019
  345loPI   C3A 5513   6.087  10.987   7.848 -0.1840 -0.0375 -0.0734
  345loPI   C4A 5514   6.350  10.811   7.455  0.1804  0.1328 -0.1459
  345loPI   C5A 5515   6.290  10.650   7.092 -0.4999  0.0667  0.3654
  345loPI   C6A 5516   6.042  10.647   6.754  0.1290 -0.0179  0.1730
  345loPI   C1B 5517   5.761  10.690   8.464 -0.3019 -0.1373  0.0873
  345loPI   C2B 5518   5.758  10.648   7.969 -0.0171 -0.2121  0.0701
  345loPI   C3B 5519   5.474  10.564   7.744  0.2775 -0.1406  0.1240
  345loPI   C4B 5520   5.078  10.368   7.594 -0.3274  0.0801  0.0686
  346loPI    C1 5521  19.479   6.061   9.534  0.0292  0.0632 -0.0142
  346loPI    C2 5522  19.200   5.799   9.651  0.0732 -0.0395 -0.1378
  346loPI    C3 5523  19.585   5.737   9.743  0.0466  0.1503  0.1137
  346loPI   PO4 5524  19.490   6.060   9.315  0.1769  0.0243  0.2603
  346loPI   GL1 5525  19.490   6.012   8.814 -0.3559 -0.1060  0.1624
  346loPI   GL2 5526  19.013   6.156   8.742 -0.0765 -0.0914 -0.1516
  346loPI   C1A 5527  19.382   5.752   8.454  0.4013  0.1143  0.3558
  346loPI   C2A 5528  19.231   5.563   8.058 -0.3275  0.2958  0.0754
  346loPI   C3A 5529  19.175   5.519   7.690  0.1303  0.2154 -0.0399
  346loPI   C4A 5530  19.121   5.359   7.280 -0.1302 -0.1098 -0.0820
  346loPI   C5A 5531  18.801   5.457   7.054 -0.0490  0.3949 -0.2343
  346loPI   C6A 5532  18.426   5.360   7.166 -0.0204  0.1823  0.0643
  346loPI   C1B 5533  18.996   6.013   8.231 -0.1927 -0.2769  0.1850
  346loPI   C2B 5534  18.920   5.959   7.778 -0.2989  0.2893  0.2787
  346loPI   C3B 5535  18.995   5.914   7.314  0.0211  0.0421  0.1671
  346loPI   C4B 5536  19.090   5.911   6.946 -0.1741  0.1604  0.0651
  347loPI    C1 5537   2.934   2.421   9.370  0.0711  0.1531  0.1717
  347loPI    C2 5538   2.565   2.467   9.516 -0.2260  0.1629 -0.5383
  347loPI    C3 5539   2.850   2.299   9.741 -0.6529  0.1635  0.0259
  347loPI   PO4 5540   2.942   2.656   9.198  0.0828  0.1370 -0.1670
  347loPI   GL1 5541   2.987   2.860   8.896 -0.4109  0.1478  0.3932
  347loPI   GL2 5542   2.728   2.755   8.725 -0.0846 -0.2690  0.4485
  347loPI   C1A 5543   3.195   2.692   8.496 -0.1648 -0.1581  0.1826
  347loPI   C2A 5544   3.327   2.412   8.200  0.3292  0.0808  0.4388
  347loPI   C3A 5545   3.254   2.353   7.651 -0.1185 -0.0208  0.0154
  347loPI   C4A 5546   3.087   2.294   7.302  0.2959  0.1901 -0.1608
  347loPI   C5A 5547   2.786   2.423   6.877 -0.2127  0.2628  0.4176
  347loPI   C6A 5548   2.583   2.804   6.742 -0.2257  0.1138 -0.2205
  347loPI   C1B 5549   2.553   2.756   8.378  0.1384 -0.3393  0.1932
  347loPI   C2B 5550   2.590   2.959   8.058 -0.2060 -0.0423 -0.2242
  347loPI   C3B 5551   2.571   2.927   7.641  0.1160  0.2985 -0.0805
  347loPI   C4B 5552   2.822   2.823   7.251 -0.1136 -0.3470 -0.1788
  348loPI    C1 5553  15.203  17.994   9.706  0.0909  0.2125  0.0720
  348loPI    C2 5554  15.374  17.746   9.970  0.0288  0.0666 -0.0239
  348loPI    C3 5555  15.185  18.075  10.097  0.1505  0.0890  0.1008
  348loPI   PO4 5556  15.264  17.857   9.495  0.0326 -0.2977 -0.2434
  348loPI   GL1 5557  15.189  17.762   9.164 -0.0020 -0.0327  0.2086
  348loPI   GL2 5558  15.306  17.405   9.119  0.4659  0.0928 -0.2131
  348loPI   C1A 5559  15.293  17.716   8.707 -0.1278  0.0334  0.1197
  348loPI   C2A 5560  15.294  17.850   8.233 -0.0393 -0.1868  0.0624
  348loPI   C3A 5561  15.416  18.046   7.877  0.0033  0.0034 -0.0845
  348loPI   C4A 5562  15.389  18.000   7.463 -0.0495 -0.0851 -0.2247
  348loPI   C5A 5563  15.567  17.758   7.121 -0.0153  0.1892  0.0747
  348loPI   C6A 5564  15.756  17.553   6.731  0.1623  0.1955 -0.0494
  348loPI   C1B 5565  15.590  17.325   8.795  0.0566  0.0554  0.2225
  348loPI   C2B 5566  15.726  17.134   8.408 -0.2840  0.0898 -0.4004
  348loPI   C3B 5567  15.610  16.939   8.057  0.0960  0.1511  0.0303
  348loPI   C4B 5568  15.648  16.929   7.665 -0.0307 -0.2174 -0.1414
  349loPI    C1 5569  12.766   1.454   9.673 -0.1964  0.0154  0.1205
  349loPI    C2 5570  12.668   1.721   9.954 -0.1195 -0.1302  0.2875
  349loPI    C3 5571  12.600   1.331  10.015  0.2272 -0.1988  0.2569
  349loPI   PO4 5572  12.625   1.554   9.401  0.1772 -0.0580  0.1389
  349loPI   GL1 5573  12.600   1.375   9.065 -0.1200 -0.0107  0.1752
  349loPI   GL2 5574  12.216   1.385   9.150 -0.2035 -0.0049  0.1538
  349loPI   C1A 5575  12.586   1.675   8.754 -0.1788  0.3076 -0.3866
  349loPI   C2A 5576  12.478   1.768   8.424 -0.0356 -0.2028 -0.0035
  349loPI   C3A 5577  12.369   1.771   8.056 -0.0574 -0.1553  0.1132
  349loPI   C4A 5578  12.138   1.779   7.772  0.0977  0.1767 -0.1429
  349loPI   C5A 5579  11.880   1.807   7.406 -0.1553 -0.0097  0.3922
  349loPI   C6A 5580  11.396   1.796   7.319 -0.2249 -0.0735  0.1883
  349loPI   C1B 5581  12.179   1.179   8.804 -0.1228  0.2361 -0.1985
  349loPI   C2B 5582  12.207   1.278   8.391 -0.0876  0.0357  0.0027
  349loPI   C3B 5583  12.325   1.192   7.905 -0.2349 -0.4433  0.0278
  349loPI   C4B 5584  12.527   1.462   7.675  0.1147  0.2822  0.2684
  350loPI    C1 5585  17.397   3.662   9.745 -0.1533 -0.0167  0.0753
  350loPI    C2 5586  17.036   3.490   9.731 -0.0725 -0.1865  0.0475
  350loPI    C3 5587  17.077   3.858   9.882 -0.2522 -0.1792  0.0798
  350loPI   PO4 5588  17.483   3.560   9.426  0.0106  0.0317  0.1225
  350loPI   GL1 5589  17.421   3.679   9.008 -0.1002  0.2028 -0.2629
  350loPI   GL2 5590  17.571   3.396   8.984 -0.0249 -0.0425  0.0004
  350loPI   C1A 5591  17.220   3.652   8.666  0.1854  0.1657  0.0296
  350loPI   C2A 5592  17.009   3.703   8.333  0.0150 -0.1778  0.1792
  350loPI   C3A 5593  16.924   3.806   7.879  0.0332 -0.3576  0.1092
  350loPI   C4A 5594  16.542   3.908   7.722  0.0137 -0.0188  0.1362
  350loPI   C5A 5595  16.214   4.062   7.429 -0.2401  0.4200 -0.2208
  350loPI   C6A 5596  15.871   4.036   7.606 -0.0623  0.2001  0.1025
  350loPI   C1B 5597  17.162   3.237   8.868 -0.1563  0.1222 -0.4022
  350loPI   C2B 5598  16.740   3.348   8.775  0.0706  0.2546  0.1406
  350loPI   C3B 5599  16.542   3.581   8.482 -0.1894 -0.0551 -0.1088
  350loPI   C4B 5600  16.199   3.894   8.281 -0.0674  0.3098  0.2162
  351loPI    C1 5601  10.511  15.504   9.380 -0.1619  0.0530 -0.0811
  351loPI    C2 5602  10.513  15.565   9.775  0.1363  0.1362 -0.0927
  351loPI    C3 5603  10.169  15.485   9.587 -0.0265  0.2183  0.1633
  351loPI   PO4 5604  10.717  15.418   9.315  0.2563 -0.0088 -0.0209
  351loPI   GL1 5605  10.858  15.345   8.893  0.2202  0.4605  0.2327
  351loPI   GL2 5606  10.655  15.587   8.692  0.4743 -0.1471 -0.0214
  351loPI   C1A 5607  10.788  14.988   8.627 -0.1990 -0.3739 -0.0873
  351loPI   C2A 5608  10.781  14.561   8.379 -0.3635  0.3252  0.1212
  351loPI   C3A 5609  10.962  14.327   8.006  0.1900  0.2641  0.0356
  351loPI   C4A 5610  11.123  14.304   7.639  0.1564  0.0295  0.1345
  351loPI   C5A 5611  11.288  14.389   7.236 -0.2754  0.1568  0.1119
  351loPI   C6A 5612  11.257  14.129   6.915 -0.1553  0.3209 -0.0881
  351loPI   C1B 5613  10.677  15.485   8.325 -0.3068  0.0260  0.2660
  351loPI   C2B 5614  10.698  15.622   7.844  0.0653  0.1727  0.0478
  351loPI   C3B 5615  10.786  15.771   7.455  0.1802  0.1258 -0.0233
  351loPI   C4B 5616  11.069  15.688   7.055  0.1477 -0.2364 -0.0567
  352loPI    C1 5617  11.693   7.913   9.331 -0.0061  0.0933  0.0346
  352loPI    C2 5618  11.402   8.183   9.382 -0.0531  0.0410  0.0441
  352loPI    C3 5619  11.742   8.213   9.591 -0.1013  0.0315  0.1244
  352loPI   PO4 5620  11.714   7.957   9.083 -0.2846 -0.1832  0.0550
  352loPI   GL1 5621  11.866   7.816   8.722  0.0273 -0.1437 -0.1440
  352loPI   GL2 5622  11.662   7.986   8.557 -0.1491 -0.0075 -0.3281
  352loPI   C1A 5623  11.996   7.687   8.265  0.5519 -0.4839  0.0758
  352loPI   C2A 5624  12.084   7.505   7.837 -0.2222  0.0275  0.0364
  352loPI   C3A 5625  11.946   7.347   7.355  0.2123  0.2300 -0.0903
  352loPI   C4A 5626  11.619   6.997   7.145 -0.1951 -0.3344 -0.2934
  352loPI   C5A 5627  11.249   7.024   7.030 -0.0804  0.0871 -0.1642
  352loPI   C6A 5628  11.004   7.161   6.722  0.1982 -0.0416  0.3616
  352loPI   C1B 5629  11.462   8.188   8.126  0.2605 -0.1002 -0.1691
  352loPI   C2B 5630  11.313   8.096   7.766 -0.1252  0.1119  0.0695
  352loPI   C3B 5631  11.182   8.204   7.402 -0.1282  0.0109  0.2026
  352loPI   C4B 5632  11.358   8.374   7.152  0.1854 -0.1809  0.0710
  353loPI    C1 5633   2.576  17.203   8.825  0.1006  0.1354 -0.0974
  353loPI    C2 5634   2.613  17.576   8.965  0.0639  0.0718  0.0857
  353loPI    C3 5635   2.936  17.344   8.926  0.0880  0.1248 -0.0375
  353loPI   PO4 5636   2.556  17.184   8.574 -0.0172 -0.1628 -0.1200
  353loPI   GL1 5637   2.690  17.238   8.202  0.1472 -0.1190 -0.1219
  353loPI   GL2 5638   3.076  17.113   8.039  0.3669  0.1806  0.1325
  353loPI   C1A 5639   2.508  17.215   7.875 -0.1286  0.7229 -0.4541
  353loPI   C2A 5640   2.366  17.183   7.392  0.4446 -0.1516  0.4169
  353loPI   C3A 5641   2.239  16.928   7.102 -0.1357 -0.0538 -0.1319
  353loPI   C4A 5642   1.928  16.761   6.808  0.1188  0.2306  0.2943
  353loPI   C5A 5643   1.619  16.519   6.661  0.1975  0.2340  0.1225
  353loPI   C6A 5644   1.212  16.748   6.526  0.2284  0.2966 -0.1602
  353loPI   C1B 5645   2.957  17.303   7.725 -0.0508  0.0926  0.1369
  353loPI   C2B 5646   2.875  17.440   7.374  0.1899 -0.0626 -0.1349
  353loPI   C3B 5647   2.776  17.197   6.992 -0.2544 -0.0630  0.0997
  353loPI   C4B 5648   2.708  17.328   6.518 -0.0001 -0.1010  0.0454
  354loPI    C1 5649   9.458  11.163   9.263  0.1613 -0.0913 -0.0439
  354loPI    C2 5650   9.669  11.202   9.600  0.1749  0.1024 -0.0736
  354loPI    C3 5651   9.341  10.973   9.594  0.2005  0.0618  0.0586
  354loPI   PO4 5652   9.534  11.138   9.053  0.0152  0.2464  0.2366
  354loPI   GL1 5653   9.303  11.065   8.656 -0.0396 -0.2119  0.2443
  354loPI   GL2 5654   9.072  11.123   8.840  0.0084 -0.2142 -0.0212
  354loPI   C1A 5655   9.361  11.154   8.158 -0.1010 -0.2959 -0.0725
  354loPI   C2A 5656   9.460  11.356   7.819 -0.0239  0.0415 -0.4049
  354loPI   C3A 5657   9.346  11.438   7.400  0.0036  0.2292  0.1688
  354loPI   C4A 5658   9.128  11.300   7.072  0.0124  0.3543  0.1042
  354loPI   C5A 5659   9.048  11.057   6.719  0.2887  0.0157  0.2401
  354loPI   C6A 5660   8.935  10.523   6.782  0.1255  0.0760  0.0069
  354loPI   C1B 5661   8.940  11.305   8.397  0.0854 -0.1374  0.2187
  354loPI   C2B 5662   8.913  11.345   7.892 -0.1108  0.3186 -0.0443
  354loPI   C3B 5663   8.640  11.373   7.375 -0.0831 -0.2317 -0.3347
  354loPI   C4B 5664   8.645  11.428   6.883 -0.1722 -0.0902  0.1380
  355loPI    C1 5665   3.092  13.529   9.210  0.1330 -0.2213 -0.1897
  355loPI    C2 5666   3.096  13.232   9.478  0.0251 -0.1142 -0.0683
  355loPI    C3 5667   3.401  13.491   9.461  0.0047 -0.0863 -0.0098
  355loPI   PO4 5668   3.002  13.515   9.013 -0.2335 -0.0224  0.1966
  355loPI   GL1 5669   3.243  13.497   8.589  0.1007  0.4836  0.2364
  355loPI   GL2 5670   3.463  13.671   8.449 -0.0650 -0.0570 -0.3573
  355loPI   C1A 5671   2.953  13.652   8.144 -0.0982  0.0388  0.1957
  355loPI   C2A 5672   2.791  13.745   7.658 -0.1735 -0.0244  0.2204
  355loPI   C3A 5673   2.606  13.881   7.254 -0.0657  0.2735 -0.0633
  355loPI   C4A 5674   2.391  13.666   6.894 -0.0856  0.0711 -0.2658
  355loPI   C5A 5675   2.297  13.306   6.593 -0.1260 -0.0529  0.0109
  355loPI   C6A 5676   2.208  13.109   6.250  0.1472  0.2813  0.1500
  355loPI   C1B 5677   3.537  13.479   8.053 -0.0054 -0.1628  0.1740
  355loPI   C2B 5678   3.543  13.111   7.727  0.1228  0.0695 -0.0284
  355loPI   C3B 5679   3.342  13.149   7.342  0.1958  0.0283 -0.2382
  355loPI   C4B 5680   3.021  13.015   7.074 -0.2215  0.0747 -0.1015
  356loPI    C1 5681   0.023   9.621   9.294 -0.1111 -0.0779  0.0012
  356loPI    C2 5682   0.074   9.235   9.387  0.1025 -0.0207  0.1282
  356loPI    C3 5683  -0.162   9.466   9.613 -0.2220 -0.1330 -0.0893
  356loPI   PO4 5684   0.142   9.642   8.972  0.0019 -0.0892  0.1020
  356loPI   GL1 5685   0.277   9.414   8.587 -0.0007  0.4935  0.0727
  356loPI   GL2 5686   0.441   9.152   8.449 -0.4807  0.0666  0.0927
  356loPI   C1A 5687   0.357   9.730   8.206  0.2686 -0.0274  0.0811
  356loPI   C2A 5688   0.278   9.741   7.830 -0.2778 -0.1872 -0.1947
  356loPI   C3A 5689   0.227   9.718   7.434  0.0928  0.3248  0.2070
  356loPI   C4A 5690   0.231   9.567   6.986  0.0294  0.1202  0.1116
  356loPI   C5A 5691   0.465   9.305   6.764 -0.1414 -0.2144 -0.0560
  356loPI   C6A 5692   0.843   9.048   6.612 -0.3371 -0.0047 -0.4345
  356loPI   C1B 5693   0.344   9.230   8.017  0.4173 -0.2572  0.0798
  356loPI   C2B 5694   0.206   9.295   7.673  0.0739  0.3075  0.0090
  356loPI   C3B 5695   0.326   9.164   7.253  0.0165  0.0182 -0.0787
  356loPI   C4B 5696   0.413   8.907   7.060  0.0932 -0.1623 -0.0446
  357loPI    C1 5697  18.551  10.208   9.839 -0.1719  0.0615 -0.4081
  357loPI    C2 5698  18.884  10.377   9.695  0.0801  0.0514  0.1383
  357loPI    C3 5699  18.887   9.993   9.809 -0.2566 -0.0888 -0.2937
  357loPI   PO4 5700  18.317  10.300   9.714  0.2884 -0.1599  0.2964
  357loPI   GL1 5701  18.185  10.440   9.309  0.2853 -0.0452 -0.0918
  357loPI   GL2 5702  18.089  10.270   9.273  0.0917 -0.0888 -0.0441
  357loPI   C1A 5703  18.213  10.304   8.802  0.0976 -0.2771 -0.0208
  357loPI   C2A 5704  17.798  10.376   8.631  0.2683 -0.2355  0.3126
  357loPI   C3A 5705  17.515  10.460   8.295  0.1717  0.0147 -0.0663
  357loPI   C4A 5706  17.376  10.494   7.817  0.0402  0.3743  0.0040
  357loPI   C5A 5707  17.420  10.373   7.408  0.2146  0.1363  0.4227
  357loPI   C6A 5708  17.492  10.556   6.980  0.1179 -0.1436 -0.0860
  357loPI   C1B 5709  17.888   9.981   8.986  0.0830 -0.2811  0.2459
  357loPI   C2B 5710  17.923   9.933   8.651  0.2471  0.1490  0.0885
  357loPI   C3B 5711  17.981   9.998   8.263  0.3216  0.0049 -0.1826
  357loPI   C4B 5712  17.866   9.880   7.855  0.1287  0.2133  0.1949
  358loPI    C1 5713   1.988   7.371   9.131 -0.0859  0.1902 -0.0382
  358loPI    C2 5714   2.222   7.595   9.365  0.1324 -0.1227  0.0490
  358loPI    C3 5715   2.127   7.222   9.475  0.2134 -0.2638 -0.3445
  358loPI   PO4 5716   2.054   7.489   8.910  0.0417 -0.2015  0.0821
  358loPI   GL1 5717   1.998   7.244   8.535  0.1645 -0.2464  0.2580
  358loPI   GL2 5718   1.855   7.064   8.774  0.1321 -0.1095 -0.0420
  358loPI   C1A 5719   1.866   7.262   8.175 -0.1470  0.1306  0.0910
  358loPI   C2A 5720   1.854   7.353   7.764  0.3560 -0.0373  0.3181
  358loPI   C3A 5721   1.693   7.431   7.349  0.0962 -0.0201  0.4923
  358loPI   C4A 5722   1.476   7.615   7.011 -0.1790  0.0957 -0.1944
  358loPI   C5A 5723   1.215   7.876   6.682 -0.2660 -0.1512 -0.1876
  358loPI   C6A 5724   1.213   8.083   6.277 -0.2298 -0.0547 -0.1776
  358loPI   C1B 5725   1.569   6.958   8.387 -0.2925  0.2860 -0.4034
  358loPI   C2B 5726   1.336   6.982   8.109  0.0315  0.1889 -0.0595
  358loPI   C3B 5727   1.330   6.970   7.664 -0.1951  0.0308  0.2792
  358loPI   C4B 5728   1.218   7.025   7.235  0.4403 -0.1672 -0.3304
  359loPI    C1 5729  11.961  13.550   9.375  0.0236  0.1953 -0.1601
  359loPI    C2 5730  11.690  13.735   9.146  0.0840  0.4582 -0.0228
  359loPI    C3 5731  11.579  13.567   9.492  0.0397  0.2870 -0.1195
  359loPI   PO4 5732  12.113  13.449   9.189 -0.1187  0.2186 -0.2956
  359loPI   GL1 5733  11.950  13.258   8.876 -0.0803  0.1209 -0.1507
  359loPI   GL2 5734  11.583  13.223   9.118  0.0263 -0.1364 -0.2654
  359loPI   C1A 5735  11.815  13.539   8.550 -0.1893 -0.1944 -0.0492
  359loPI   C2A 5736  11.783  13.625   8.075  0.0561  0.2524 -0.2314
  359loPI   C3A 5737  11.728  13.697   7.724 -0.0322  0.1962  0.0039
  359loPI   C4A 5738  11.387  13.944   7.432 -0.2309  0.1335  0.1302
  359loPI   C5A 5739  10.938  13.855   7.344  0.1778 -0.4409 -0.0190
  359loPI   C6A 5740  10.560  13.858   7.199  0.0309 -0.2667  0.0864
  359loPI   C1B 5741  11.410  13.325   8.677  0.2249 -0.1874 -0.4788
  359loPI   C2B 5742  11.374  13.588   8.311  0.0965 -0.1355  0.1236
  359loPI   C3B 5743  11.226  13.710   7.857 -0.1581  0.0231 -0.2223
  359loPI   C4B 5744  11.277  13.467   7.547  0.0776 -0.2077  0.0789
  360loPI    C1 5745   3.421  10.080   9.636 -0.1633 -0.1178  0.0485
  360loPI    C2 5746   3.474  10.419   9.842  0.0548 -0.0423 -0.1271
  360loPI    C3 5747   3.667  10.086   9.951  0.0265 -0.0501 -0.0995
  360loPI   PO4 5748   3.279  10.181   9.389 -0.1693 -0.2060  0.0932
  360loPI   GL1 5749   3.198  10.163   8.886 -0.0359  0.1504 -0.2513
  360loPI   GL2 5750   2.998  10.363   8.664  0.0241 -0.1039  0.4392
  360loPI   C1A 5751   3.412  10.114   8.436  0.2402 -0.1372  0.2127
  360loPI   C2A 5752   3.435  10.068   8.102  0.0119  0.5496  0.0016
  360loPI   C3A 5753   3.549  10.119   7.668 -0.4166  0.1834  0.0144
  360loPI   C4A 5754   3.470  10.136   7.332  0.0522 -0.1030  0.0019
  360loPI   C5A 5755   3.708  10.165   7.010  0.2158 -0.1591  0.0011
  360loPI   C6A 5756   4.013   9.924   6.817 -0.0688 -0.0002  0.1731
  360loPI   C1B 5757   3.193  10.529   8.322 -0.2231 -0.0819  0.0481
  360loPI   C2B 5758   3.347  10.526   7.963  0.0506  0.2088 -0.0845
  360loPI   C3B 5759   3.473  10.625   7.518  0.1661  0.3294  0.1264
  360loPI   C4B 5760   3.750  10.666   7.086  0.0352  0.0394  0.0320
  361loPI    C1 5761   4.336   5.119   9.179 -0.3323  0.2294 -0.0163
  361loPI    C2 5762   4.051   4.842   9.144 -0.0050 -0.1434  0.1888
  361loPI    C3 5763   4.433   4.731   9.187  0.1774  0.3473 -0.0891
  361loPI   PO4 5764   4.295   5.256   8.978 -0.0122  0.5399 -0.0537
  361loPI   GL1 5765   4.120   5.067   8.643  0.2012  0.2994  0.0249
  361loPI   GL2 5766   4.382   5.139   8.466  0.3595  0.2263  0.0902
  361loPI   C1A 5767   3.852   5.198   8.365  0.5473 -0.0808 -0.2506
  361loPI   C2A 5768   3.627   5.233   7.938  0.3822 -0.0644  0.3313
  361loPI   C3A 5769   3.812   5.294   7.589  0.3316  0.2941  0.1142
  361loPI   C4A 5770   3.800   5.344   7.288 -0.2006 -0.0967 -0.0293
  361loPI   C5A 5771   3.920   5.325   6.922  0.2334 -0.0387 -0.0203
  361loPI   C6A 5772   4.334   5.354   6.751  0.0271  0.0653 -0.1262
  361loPI   C1B 5773   4.202   5.132   7.953  0.0845  0.0865  0.0683
  361loPI   C2B 5774   4.256   5.093   7.574 -0.0140  0.0963  0.1458
  361loPI   C3B 5775   4.187   4.926   7.156  0.1154 -0.1023 -0.1680
  361loPI   C4B 5776   4.263   4.859   6.753 -0.1543 -0.0142 -0.3533
  362loPI    C1 5777  14.817  18.727   9.808  0.1356 -0.1462  0.2274
  362loPI    C2 5778  15.085  18.956   9.997  0.1376 -0.0154  0.0687
  362loPI    C3 5779  14.697  18.988  10.086  0.1441  0.0070  0.0889
  362loPI   PO4 5780  14.960  18.642   9.525  0.0384 -0.1117 -0.0020
  362loPI   GL1 5781  15.081  18.941   9.081  0.1456 -0.3128  0.0572
  362loPI   GL2 5782  15.231  19.205   9.126  0.0536  0.2919  0.0491
  362loPI   C1A 5783  15.129  18.869   8.718 -0.0723 -0.2205 -0.1136
  362loPI   C2A 5784  15.010  18.620   8.334 -0.0612  0.0502  0.3330
  362loPI   C3A 5785  14.998  18.481   7.957 -0.3028  0.2656  0.2552
  362loPI   C4A 5786  15.057  18.479   7.486 -0.0828  0.0440 -0.1947
  362loPI   C5A 5787  15.307  18.504   7.141  0.1181 -0.2718  0.0964
  362loPI   C6A 5788  15.413  18.264   6.803 -0.2203  0.0632  0.1502
  362loPI   C1B 5789  15.507  19.278   8.749 -0.2454 -0.2885 -0.0253
  362loPI   C2B 5790  15.557  19.278   8.295  0.0706  0.1506 -0.1881
  362loPI   C3B 5791  15.563  19.312   7.850 -0.1071 -0.4043  0.0946
  362loPI   C4B 5792  15.609  19.455   7.484  0.2387 -0.1452 -0.0707
  363loPI    C1 5793   0.892   8.681   9.081 -0.2321  0.2073 -0.0200
  363loPI    C2 5794   0.784   8.661   9.465 -0.1592 -0.2721 -0.0185
  363loPI    C3 5795   0.878   9.014   9.302 -0.0767 -0.0785  0.4337
  363loPI   PO4 5796   0.983   8.445   9.048  0.1678  0.1942 -0.0472
  363loPI   GL1 5797   0.868   8.055   8.811 -0.2469  0.2773  0.1251
  363loPI   GL2 5798   1.150   7.861   8.658 -0.0828 -0.0517 -0.1510
  363loPI   C1A 5799   0.572   8.131   8.332 -0.3127  0.4856  0.1818
  363loPI   C2A 5800   0.276   8.553   8.255 -0.0458  0.1155  0.0654
  363loPI   C3A 5801  -0.059   8.751   8.085 -0.2867 -0.0826 -0.3601
  363loPI   C4A 5802  -0.357   8.645   7.635 -0.0629 -0.0664  0.0315
  363loPI   C5A 5803  -0.344   8.218   7.488  0.1393 -0.2328 -0.2767
  363loPI   C6A 5804  -0.536   8.045   7.231  0.2421 -0.0148 -0.0948
  363loPI   C1B 5805   1.013   7.822   8.253  0.3572 -0.1220 -0.0448
  363loPI   C2B 5806   1.001   7.919   7.774  0.1193  0.0975 -0.2353
  363loPI   C3B 5807   0.719   8.074   7.463 -0.1221 -0.3802 -0.2756
  363loPI   C4B 5808   0.462   8.379   7.377  0.1755 -0.1342  0.0689
  364loPI    C1 5809   4.984  10.379   9.123 -0.0443  0.0693  0.2371
  364loPI    C2 5810   4.673  10.156   9.242  0.0829 -0.1963  0.0821
  364loPI    C3 5811   4.992  10.197   9.480  0.0483 -0.1570  0.1219
  364loPI   PO4 5812   4.825  10.558   8.905 -0.3305 -0.0715 -0.1237
  364loPI   GL1 5813   4.832  10.837   8.629  0.0542  0.1585 -0.1979
  364loPI   GL2 5814   4.851  10.478   8.439 -0.0888 -0.2807  0.0358
  364loPI   C1A 5815   4.996  11.035   8.312  0.0093  0.1865 -0.0338
  364loPI   C2A 5816   5.022  11.395   8.044  0.0931 -0.1329 -0.2202
  364loPI   C3A 5817   5.050  11.481   7.554 -0.0356  0.0293 -0.0099
  364loPI   C4A 5818   5.211  11.304   7.240 -0.2892  0.0967  0.1994
  364loPI   C5A 5819   5.307  11.260   6.848  0.0618 -0.0945  0.2382
  364loPI   C6A 5820   5.061  11.085   6.541  0.0849 -0.1190 -0.0506
  364loPI   C1B 5821   4.844  10.491   8.005  0.0981 -0.0398  0.2331
  364loPI   C2B 5822   4.702  10.653   7.718  0.2582  0.1750 -0.2622
  364loPI   C3B 5823   4.274  10.804   7.805  0.2115  0.3361  0.2895
  364loPI   C4B 5824   3.975  10.973   8.028  0.0002 -0.0790 -0.2918
  365loPI    C1 5825  13.827  12.994   9.670 -0.0637  0.2752 -0.0618
  365loPI    C2 5826  13.458  12.909   9.797 -0.0063  0.1654  0.0336
  365loPI    C3 5827  13.707  13.116  10.031  0.0170  0.1767 -0.0011
  365loPI   PO4 5828  13.730  12.935   9.349  0.0884  0.2970 -0.2439
  365loPI   GL1 5829  13.622  13.145   8.974  0.1946  0.0550  0.1515
  365loPI   GL2 5830  13.639  12.776   8.865 -0.1558 -0.1883  0.1390
  365loPI   C1A 5831  13.898  12.978   8.508  0.3498  0.1364 -0.0642
  365loPI   C2A 5832  14.025  12.975   8.055  0.3566  0.0653  0.2121
  365loPI   C3A 5833  14.204  12.898   7.589 -0.0967 -0.1495  0.1357
  365loPI   C4A 5834  14.452  12.829   7.213  0.4031 -0.1267 -0.1194
  365loPI   C5A 5835  14.630  12.834   6.781 -0.0290  0.0851 -0.2843
  365loPI   C6A 5836  15.010  12.735   6.540 -0.1352  0.2414  0.1771
  365loPI   C1B 5837  13.582  12.589   8.373 -0.3371  0.0337 -0.0181
  365loPI   C2B 5838  13.614  12.442   8.058  0.2871 -0.0293 -0.1276
  365loPI   C3B 5839  13.465  12.507   7.609  0.1696 -0.1787  0.1573
  365loPI   C4B 5840  13.426  12.664   7.048 -0.3622 -0.0266  0.3585
  366loPI    C1 5841  16.827  14.805   9.912 -0.0127  0.0551 -0.1601
  366loPI    C2 5842  17.118  14.538   9.848 -0.0807 -0.0656  0.0257
  366loPI    C3 5843  17.083  14.713  10.206 -0.1887  0.0072 -0.0200
  366loPI   PO4 5844  16.836  14.941   9.687  0.3612  0.1343  0.1458
  366loPI   GL1 5845  16.758  15.102   9.257 -0.0854  0.3198  0.0924
  366loPI   GL2 5846  16.678  15.381   9.120 -0.1041 -0.2188  0.4551
  366loPI   C1A 5847  16.660  15.030   8.785  0.1467 -0.0383 -0.1492
  366loPI   C2A 5848  16.619  15.029   8.444  0.3964 -0.1487 -0.2403
  366loPI   C3A 5849  16.625  14.880   7.987 -0.1999 -0.1091  0.0627
  366loPI   C4A 5850  16.730  14.788   7.556 -0.1347 -0.1950 -0.0638
  366loPI   C5A 5851  17.044  14.643   7.273  0.2550 -0.1097  0.1324
  366loPI   C6A 5852  17.371  14.368   7.197  0.1787  0.1779  0.3224
  366loPI   C1B 5853  16.903  15.718   8.871 -0.1103  0.0469 -0.0248
  366loPI   C2B 5854  16.993  15.909   8.466  0.0166  0.1866 -0.1054
  366loPI   C3B 5855  17.037  16.221   8.151  0.2703 -0.0150  0.3459
  366loPI   C4B 5856  17.135  16.376   7.753  0.0908 -0.0124 -0.0102
  367loPI    C1 5857  15.671   1.543   9.904  0.1638 -0.0452  0.1488
  367loPI    C2 5858  15.639   1.918  10.038  0.1692  0.0142 -0.0142
  367loPI    C3 5859  15.997   1.739  10.027  0.1546 -0.0263  0.1433
  367loPI   PO4 5860  15.566   1.552   9.714  0.2785  0.0413 -0.0248
  367loPI   GL1 5861  15.533   1.306   9.334  0.1689  0.2029 -0.1612
  367loPI   GL2 5862  15.734   1.077   9.372 -0.0026 -0.0408 -0.0537
  367loPI   C1A 5863  15.837   1.521   9.121  0.2524  0.2479  0.0739
  367loPI   C2A 5864  15.730   1.568   8.768 -0.3169  0.0581  0.2956
  367loPI   C3A 5865  15.790   1.728   8.361  0.0999 -0.0301  0.1789
  367loPI   C4A 5866  15.818   1.680   7.935 -0.1802 -0.0855  0.2824
  367loPI   C5A 5867  15.872   1.642   7.480 -0.0589  0.1129  0.0744
  367loPI   C6A 5868  15.675   1.768   7.108 -0.1890 -0.2306  0.2883
  367loPI   C1B 5869  15.584   1.100   8.904  0.0682  0.1012 -0.0897
  367loPI   C2B 5870  15.334   1.197   8.507  0.1243 -0.2771 -0.1166
  367loPI   C3B 5871  15.138   0.991   8.159  0.2437  0.2704  0.0287
  367loPI   C4B 5872  15.141   0.755   7.841 -0.1430  0.2721 -0.4420
  368loPI    C1 5873  18.987   1.990   9.414 -0.2238 -0.1164 -0.0606
  368loPI    C2 5874  19.119   2.189   9.093 -0.1747  0.0559  0.0653
  368loPI    C3 5875  19.286   2.252   9.451 -0.2811 -0.0779  0.1395
  368loPI   PO4 5876  18.701   1.959   9.255 -0.1040  0.2267 -0.1127
  368loPI   GL1 5877  18.512   1.946   8.839 -0.2146 -0.2073 -0.0611
  368loPI   GL2 5878  18.383   2.340   8.905  0.3508  0.0702  0.0052
  368loPI   C1A 5879  18.472   1.854   8.297  0.2217 -0.2942 -0.2177
  368loPI   C2A 5880  18.319   1.682   7.834 -0.0690 -0.1955 -0.3363
  368loPI   C3A 5881  18.003   1.572   7.509 -0.2465 -0.0847 -0.0557
  368loPI   C4A 5882  18.144   1.289   7.212 -0.3750 -0.0930 -0.1525
  368loPI   C5A 5883  18.332   0.933   6.904 -0.0799  0.1806 -0.3190
  368loPI   C6A 5884  18.224   0.707   6.573  0.3491  0.2830  0.0073
  368loPI   C1B 5885  18.274   2.258   8.500  0.0572  0.1931 -0.1039
  368loPI   C2B 5886  18.445   2.319   8.070 -0.1047  0.1300  0.1464
  368loPI   C3B 5887  18.289   2.430   7.658 -0.4985 -0.3614  0.0351
  368loPI   C4B 5888  17.990   2.605   7.578 -0.0220 -0.2608  0.2733
  369loPI    C1 5889  15.680  19.929   9.763 -0.0787 -0.0487  0.0483
  369loPI    C2 5890  16.018  19.735   9.853 -0.1440 -0.1582  0.0595
  369loPI    C3 5891  15.714  19.740  10.114 -0.1994 -0.1709 -0.0047
  369loPI   PO4 5892  15.811  20.227   9.684  0.3642 -0.3294  0.1703
  369loPI   GL1 5893  15.963  20.420   9.336 -0.0987  0.4206  0.2863
  369loPI   GL2 5894  16.032  20.626   9.542  0.0164 -0.0792 -0.1394
  369loPI   C1A 5895  16.271  20.622   9.082  0.0804 -0.0653  0.1334
  369loPI   C2A 5896  15.990  20.737   8.761  0.3125  0.2116  0.0773
  369loPI   C3A 5897  15.859  21.001   8.444 -0.2261  0.0076 -0.4520
  369loPI   C4A 5898  15.738  21.138   8.070 -0.3741  0.0397  0.2723
  369loPI   C5A 5899  15.476  21.152   7.835 -0.0098 -0.2640 -0.1126
  369loPI   C6A 5900  15.476  21.273   7.482 -0.0389 -0.1399  0.0358
  369loPI   C1B 5901  16.310  21.086   9.255  0.0993  0.0253  0.2380
  369loPI   C2B 5902  16.283  21.181   8.922 -0.4310  0.3289 -0.0371
  369loPI   C3B 5903  16.162  21.430   8.608 -0.2830 -0.1483 -0.0584
  369loPI   C4B 5904  16.207  21.445   8.182 -0.1097  0.1510 -0.0628
  370loPI    C1 5905   3.691  15.830   9.001  0.0304  0.2111 -0.1998
  370loPI    C2 5906   3.887  16.070   9.254 -0.0221  0.2792 -0.2236
  370loPI    C3 5907   3.761  15.711   9.376  0.1281  0.2299 -0.2116
  370loPI   PO4 5908   3.774  15.772   8.700  0.1349 -0.1876  0.3805
  370loPI   GL1 5909   3.796  15.776   8.292 -0.1636 -0.0869 -0.4155
  370loPI   GL2 5910   3.482  15.864   8.242  0.0801  0.4788 -0.0530
  370loPI   C1A 5911   3.913  16.091   7.942  0.0527  0.0130 -0.0284
  370loPI   C2A 5912   4.083  16.122   7.562 -0.3170 -0.2464 -0.1606
  370loPI   C3A 5913   4.028  16.112   7.111  0.0559  0.0928  0.0003
  370loPI   C4A 5914   4.181  16.088   6.735  0.1477 -0.0117  0.0766
  370loPI   C5A 5915   4.303  15.861   6.405 -0.0592  0.2908  0.0643
  370loPI   C6A 5916   4.512  15.485   6.135  0.0105  0.0483 -0.0683
  370loPI   C1B 5917   3.487  15.853   7.791 -0.2633 -0.0738 -0.2811
  370loPI   C2B 5918   3.740  15.771   7.404  0.0651  0.1891 -0.2751
  370loPI   C3B 5919   3.688  15.664   6.987 -0.0510  0.1619 -0.1696
  370loPI   C4B 5920   3.486  15.707   6.578 -0.0506  0.0781 -0.0824
  371loPI    C1 5921  14.079   0.664   9.717  0.2633 -0.1935 -0.0152
  371loPI    C2 5922  13.948   0.809  10.066  0.0783 -0.2653 -0.0536
  371loPI    C3 5923  14.277   0.961   9.897 -0.2505  0.2921 -0.2192
  371loPI   PO4 5924  13.821   0.653   9.492 -0.0097 -0.2082  0.2612
  371loPI   GL1 5925  13.667   0.849   9.087 -0.0038  0.3339  0.1225
  371loPI   GL2 5926  13.756   1.119   8.975 -0.3879 -0.0491 -0.3022
  371loPI   C1A 5927  13.296   0.668   8.707  0.0324  0.3155  0.0857
  371loPI   C2A 5928  13.398   0.399   8.399  0.0004 -0.1325  0.5925
  371loPI   C3A 5929  13.239   0.567   7.928 -0.1576  0.3073 -0.1760
  371loPI   C4A 5930  13.197   0.842   7.587 -0.0225 -0.6031  0.1931
  371loPI   C5A 5931  13.122   0.915   7.183 -0.3282  0.3346  0.3438
  371loPI   C6A 5932  13.126   1.095   6.806 -0.2194 -0.2318 -0.0354
  371loPI   C1B 5933  13.796   0.918   8.588  0.0437  0.0805  0.0717
  371loPI   C2B 5934  13.664   0.849   8.111 -0.0123  0.4313  0.0075
  371loPI   C3B 5935  13.675   0.793   7.625 -0.1755 -0.2025 -0.0491
  371loPI   C4B 5936  13.577   0.735   7.194  0.0461  0.0844  0.2117
  372loPI    C1 5937  14.264  19.053   9.852 -0.0459  0.2034  0.1556
  372loPI    C2 5938  14.325  18.661   9.902  0.2267  0.2400  0.1264
  372loPI    C3 5939  14.049  18.850  10.121  0.0346  0.0169  0.0812
  372loPI   PO4 5940  14.469  19.074   9.620  0.1470 -0.3176 -0.0828
  372loPI   GL1 5941  14.633  18.846   9.168 -0.0962  0.1566  0.0125
  372loPI   GL2 5942  14.818  18.529   9.075  0.1791  0.4079  0.0683
  372loPI   C1A 5943  14.657  18.970   8.789 -0.1771  0.0659  0.0231
  372loPI   C2A 5944  14.680  18.944   8.394  0.0585  0.1009  0.3003
  372loPI   C3A 5945  14.788  18.877   7.854 -0.1157  0.4299  0.0713
  372loPI   C4A 5946  14.966  18.918   7.436 -0.2125  0.1536 -0.3745
  372loPI   C5A 5947  14.855  19.182   7.124  0.1915 -0.1601 -0.0227
  372loPI   C6A 5948  14.915  19.530   6.794 -0.1913  0.0259  0.0694
  372loPI   C1B 5949  14.805  18.404   8.727 -0.1695  0.1374  0.1123
  372loPI   C2B 5950  14.512  18.442   8.365 -0.0586  0.1942 -0.3191
  372loPI   C3B 5951  14.452  18.496   8.005  0.2158  0.0579 -0.4200
  372loPI   C4B 5952  14.630  18.406   7.639 -0.0647  0.1646 -0.0878
  373loPI    C1 5953   0.942   1.573   9.528 -0.0431  0.0951  0.1023
  373loPI    C2 5954   0.636   1.409   9.727  0.1602 -0.0666  0.2870
  373loPI    C3 5955   0.868   1.682   9.906 -0.0816  0.3157  0.0328
  373loPI   PO4 5956   0.808   1.696   9.302 -0.2893 -0.1765 -0.1750
  373loPI   GL1 5957   0.812   1.890   8.885 -0.0044  0.4162  0.1101
  373loPI   GL2 5958   1.109   1.752   8.687  0.2393 -0.1199 -0.2353
  373loPI   C1A 5959   0.495   1.914   8.512  0.0585  0.0758 -0.2734
  373loPI   C2A 5960   0.459   2.111   8.109  0.1039 -0.2102 -0.1193
  373loPI   C3A 5961   0.321   1.985   7.705 -0.1347  0.0283 -0.1629
  373loPI   C4A 5962   0.176   1.912   7.287  0.1264 -0.1861  0.1072
  373loPI   C5A 5963   0.438   1.911   6.877 -0.0002  0.0196 -0.1603
  373loPI   C6A 5964   0.751   2.131   6.593  0.3614  0.0172  0.1214
  373loPI   C1B 5965   0.905   1.744   8.309 -0.2613  0.0067  0.0918
  373loPI   C2B 5966   0.738   1.584   7.973  0.0382  0.2368  0.1766
  373loPI   C3B 5967   0.371   1.491   7.727 -0.3600 -0.0535 -0.0684
  373loPI   C4B 5968   0.309   1.378   7.350  0.0530  0.2142 -0.2085
  374loPI    C1 5969  16.838   5.478   9.402 -0.0230  0.1736 -0.2503
  374loPI    C2 5970  16.540   5.342   9.630 -0.0572  0.2166 -0.2694
  374loPI    C3 5971  16.798   5.609   9.777  0.1938 -0.0966 -0.1290
  374loPI   PO4 5972  17.077   5.210   9.320  0.1353 -0.0589  0.3390
  374loPI   GL1 5973  17.424   5.022   9.136 -0.2574  0.3268 -0.0722
  374loPI   GL2 5974  17.634   5.090   9.015 -0.1991  0.2247  0.3774
  374loPI   C1A 5975  17.245   5.177   8.706 -0.0215 -0.0015 -0.1648
  374loPI   C2A 5976  17.043   5.373   8.309  0.6127 -0.3628 -0.1487
  374loPI   C3A 5977  16.815   5.395   7.858 -0.2516 -0.1441 -0.2236
  374loPI   C4A 5978  16.955   5.520   7.415 -0.0441  0.1307 -0.4540
  374loPI   C5A 5979  16.819   5.571   6.998  0.0240 -0.1177  0.0262
  374loPI   C6A 5980  16.871   5.823   6.501  0.0815 -0.1853  0.0128
  374loPI   C1B 5981  17.503   4.658   8.745  0.2517 -0.0338 -0.0969
  374loPI   C2B 5982  17.591   4.414   8.385  0.0788  0.1006  0.3678
  374loPI   C3B 5983  17.866   4.384   8.006 -0.0620 -0.3235  0.4837
  374loPI   C4B 5984  18.222   4.663   7.797  0.0627 -0.1959 -0.2159
  375loPI    C1 5985   4.191  19.449   9.093 -0.0434  0.2113  0.0403
  375loPI    C2 5986   3.929  19.462   9.394 -0.0392  0.1896  0.0449
  375loPI    C3 5987   4.071  19.802   9.238  0.0836  0.1993  0.1763
  375loPI   PO4 5988   4.138  19.342   8.907  0.0732 -0.0177  0.2982
  375loPI   GL1 5989   4.320  19.165   8.433 -0.0396 -0.0292  0.3350
  375loPI   GL2 5990   4.389  19.403   8.476  0.1172 -0.0734  0.1173
  375loPI   C1A 5991   3.948  19.138   8.223  0.1276  0.1591  0.1297
  375loPI   C2A 5992   3.817  19.224   7.877  0.3649  0.1530  0.3290
  375loPI   C3A 5993   3.626  19.208   7.559 -0.0193  0.2035 -0.2581
  375loPI   C4A 5994   3.575  19.000   7.116 -0.0872  0.1131 -0.0137
  375loPI   C5A 5995   3.413  18.899   6.674 -0.0465 -0.1020  0.0930
  375loPI   C6A 5996   3.295  18.950   6.155 -0.0843  0.1950  0.0921
  375loPI   C1B 5997   4.426  19.467   8.048  0.3097  0.4131 -0.0877
  375loPI   C2B 5998   4.249  19.474   7.704 -0.0189  0.0881  0.1038
  375loPI   C3B 5999   4.059  19.338   7.391  0.2270  0.0371  0.1885
  375loPI   C4B 6000   4.156  19.182   6.986 -0.3745  0.2035  0.1334
  376loPI    C1 6001   0.818   9.861   9.447  0.0143 -0.0480 -0.0299
  376loPI    C2 6002   1.110   9.957   9.703  0.1498  0.0007 -0.2010
  376loPI    C3 6003   0.846   9.673   9.799  0.1874  0.0324  0.0004
  376loPI   PO4 6004   0.907   9.865   9.217 -0.2024 -0.1412  0.2559
  376loPI   GL1 6005   0.768  10.127   8.837  0.2181  0.1398  0.1283
  376loPI   GL2 6006   0.622   9.816   8.809  0.0614 -0.3248 -0.3402
  376loPI   C1A 6007   0.548  10.181   8.409 -0.0092  0.1197  0.0899
  376loPI   C2A 6008   0.515  10.184   8.007  0.2117 -0.1525 -0.3654
  376loPI   C3A 6009   0.462  10.169   7.569  0.1937 -0.1789 -0.0296
  376loPI   C4A 6010   0.439  10.058   7.110  0.3243 -0.0967 -0.0778
  376loPI   C5A 6011   0.527  10.348   6.735 -0.4544  0.4495 -0.0206
  376loPI   C6A 6012   0.497  10.714   6.514  0.0048 -0.1974 -0.0370
  376loPI   C1B 6013   0.806   9.562   8.407 -0.0800  0.4095  0.0070
  376loPI   C2B 6014   0.762   9.688   7.962  0.0929  0.1047 -0.1634
  376loPI   C3B 6015   0.720   9.751   7.557 -0.0097 -0.1836  0.1794
  376loPI   C4B 6016   0.805   9.664   7.067  0.2873 -0.2293  0.0851
  377loPI    C1 6017   4.995   2.954   9.527 -0.2077 -0.0464  0.2804
  377loPI    C2 6018   4.939   2.571   9.427  0.2419 -0.0782  0.1293
  377loPI    C3 6019   5.095   2.664   9.783 -0.1481 -0.0174  0.2899
  377loPI   PO4 6020   5.043   3.052   9.251  0.0624 -0.0355 -0.0283
  377loPI   GL1 6021   5.230   2.881   8.819  0.1411 -0.0863 -0.2059
  377loPI   GL2 6022   5.039   2.671   8.818 -0.1981 -0.1768 -0.1535
  377loPI   C1A 6023   5.538   2.890   8.551 -0.1555 -0.3732  0.0964
  377loPI   C2A 6024   5.558   2.814   8.114  0.2378  0.2435 -0.1029
  377loPI   C3A 6025   5.663   2.741   7.713  0.2086  0.2878  0.4914
  377loPI   C4A 6026   6.035   2.720   7.447 -0.2052 -0.2131 -0.1173
  377loPI   C5A 6027   6.220   2.742   7.013 -0.0364  0.2682  0.1773
  377loPI   C6A 6028   6.650   2.694   6.944  0.3424 -0.3679 -0.1767
  377loPI   C1B 6029   5.130   2.634   8.323  0.0024 -0.0468 -0.3444
  377loPI   C2B 6030   5.175   2.742   7.831  0.2798  0.0622 -0.3041
  377loPI   C3B 6031   5.270   2.936   7.545  0.2023  0.0907  0.2019
  377loPI   C4B 6032   5.145   2.883   7.101 -0.0447  0.0574 -0.0466
  378loPI    C1 6033   1.531  13.690   9.368  0.0206 -0.0274  0.0682
  378loPI    C2 6034   1.339  13.991   9.550  0.2511  0.0322  0.2177
  378loPI    C3 6035   1.397  13.645   9.742 -0.0474 -0.1245  0.0323
  378loPI   PO4 6036   1.735  13.939   9.201 -0.0531 -0.1250  0.0666
  378loPI   GL1 6037   1.952  13.763   8.792  0.4284  0.1820  0.1301
  378loPI   GL2 6038   1.710  13.984   8.656 -0.2311  0.4532  0.1530
  378loPI   C1A 6039   2.112  13.755   8.393  0.1348  0.0937  0.0410
  378loPI   C2A 6040   2.086  13.620   7.941  0.3931 -0.1196 -0.2874
  378loPI   C3A 6041   2.223  13.347   7.607 -0.1135 -0.3727  0.0501
  378loPI   C4A 6042   2.311  13.268   7.173  0.3517  0.2713 -0.2093
  378loPI   C5A 6043   2.734  13.281   6.787  0.1184 -0.0951 -0.2065
  378loPI   C6A 6044   3.284  13.384   6.830  0.2600  0.0603 -0.3731
  378loPI   C1B 6045   1.567  13.895   8.233 -0.0864  0.0853  0.3007
  378loPI   C2B 6046   1.510  13.744   7.872  0.3018  0.0965 -0.0863
  378loPI   C3B 6047   1.347  13.699   7.384 -0.3047  0.2240  0.0351
  378loPI   C4B 6048   1.405  13.496   7.030  0.1425 -0.2637 -0.1799
  379loPI    C1 6049   3.013   7.036   9.321 -0.0150  0.1431 -0.0390
  379loPI    C2 6050   3.285   6.745   9.364 -0.1749  0.0107  0.0874
  379loPI    C3 6051   3.268   7.044   9.630 -0.1766 -0.0006  0.1000
  379loPI   PO4 6052   2.947   7.058   8.943 -0.1696  0.2405 -0.1621
  379loPI   GL1 6053   2.983   7.349   8.460 -0.1645 -0.0993  0.0507
  379loPI   GL2 6054   3.155   7.051   8.442 -0.3375 -0.2897  0.2518
  379loPI   C1A 6055   2.906   7.341   7.988  0.0382  0.2067 -0.1577
  379loPI   C2A 6056   2.841   7.368   7.504  0.2179 -0.1603 -0.1035
  379loPI   C3A 6057   2.599   7.296   7.073 -0.0953  0.0220 -0.1896
  379loPI   C4A 6058   2.747   7.319   6.698 -0.1766  0.0479 -0.3456
  379loPI   C5A 6059   3.070   7.408   6.427 -0.2435 -0.1123  0.1254
  379loPI   C6A 6060   2.949   7.520   6.123 -0.0244  0.0764 -0.3047
  379loPI   C1B 6061   3.249   7.000   8.094  0.2872  0.1668 -0.0974
  379loPI   C2B 6062   3.201   6.969   7.719 -0.4078 -0.1813 -0.2436
  379loPI   C3B 6063   3.036   7.033   7.236  0.0394  0.2320 -0.0552
  379loPI   C4B 6064   3.188   6.997   6.769  0.0615  0.0843  0.0744
  380loPI    C1 6065   3.477   3.485   9.461 -0.1318 -0.2107  0.1021
  380loPI    C2 6066   3.674   3.754   9.681 -0.6076  0.2665 -0.0357
  380loPI    C3 6067   3.648   3.375   9.806  0.2306  0.2246  0.0707
  380loPI   PO4 6068   3.612   3.603   9.200 -0.0888  0.3155 -0.1587
  380loPI   GL1 6069   3.442   3.878   8.862  0.1555 -0.1767 -0.0600
  380loPI   GL2 6070   3.163   4.146   8.784 -0.3183  0.1164  0.0144
  380loPI   C1A 6071   3.606   3.778   8.441  0.2888 -0.1060 -0.1159
  380loPI   C2A 6072   3.670   3.837   7.994 -0.1043  0.1513  0.1115
  380loPI   C3A 6073   3.586   3.846   7.537  0.0768  0.0072  0.0606
  380loPI   C4A 6074   3.497   4.063   7.222  0.0495  0.1627  0.2615
  380loPI   C5A 6075   3.373   3.990   6.771  0.0942  0.2342  0.0341
  380loPI   C6A 6076   3.623   3.897   6.415  0.1697  0.1390  0.0065
  380loPI   C1B 6077   3.076   3.948   8.337 -0.2047 -0.0692 -0.0963
  380loPI   C2B 6078   3.035   3.910   7.918  0.1684 -0.0735  0.1566
  380loPI   C3B 6079   3.083   3.915   7.445 -0.0656  0.1552  0.0858
  380loPI   C4B 6080   3.155   3.690   7.080  0.0101 -0.0149 -0.0212
  381loPI    C1 6081   3.101  11.622   9.176  0.4698  0.1258  0.0507
  381loPI    C2 6082   3.102  12.022   9.162 -0.0908  0.1319 -0.0031
  381loPI    C3 6083   2.980  11.833   9.494 -0.2663  0.0103 -0.1345
  381loPI   PO4 6084   3.115  11.496   8.939  0.0416 -0.1875 -0.2501
  381loPI   GL1 6085   3.343  11.599   8.611 -0.0014 -0.0773  0.1710
  381loPI   GL2 6086   3.472  11.802   8.759  0.0621  0.1454 -0.1257
  381loPI   C1A 6087   3.342  11.466   8.223  0.0807  0.1138  0.0421
  381loPI   C2A 6088   3.026  11.508   7.926  0.1572 -0.1164  0.0797
  381loPI   C3A 6089   2.873  11.487   7.481  0.2468 -0.0356 -0.0585
  381loPI   C4A 6090   2.596  11.505   7.022  0.2718 -0.2745  0.1692
  381loPI   C5A 6091   2.391  11.882   6.922 -0.1717  0.2579  0.0602
  381loPI   C6A 6092   2.523  12.306   7.026 -0.3507  0.2715  0.3629
  381loPI   C1B 6093   3.602  11.872   8.268 -0.1514 -0.1033 -0.0729
  381loPI   C2B 6094   3.446  11.804   7.850 -0.0495 -0.1003 -0.3369
  381loPI   C3B 6095   3.302  11.754   7.412 -0.1080  0.0733 -0.2269
  381loPI   C4B 6096   3.299  11.638   7.103 -0.0172  0.0736  0.1449
  382loPI    C1 6097   2.027   8.183   9.369 -0.0753  0.2841  0.1082
  382loPI    C2 6098   1.947   7.918   9.658 -0.0183  0.3390  0.1744
  382loPI    C3 6099   2.245   8.181   9.704  0.2645  0.0765 -0.1084
  382loPI   PO4 6100   1.796   8.251   9.204 -0.2179  0.2642  0.1938
  382loPI   GL1 6101   1.771   8.230   8.677  0.5183 -0.5064  0.0176
  382loPI   GL2 6102   1.464   8.281   8.610  0.0587  0.1792  0.1479
  382loPI   C1A 6103   1.942   8.356   8.324  0.2673  0.0475 -0.0014
  382loPI   C2A 6104   1.811   8.376   7.902  0.2567  0.0284  0.4755
  382loPI   C3A 6105   1.569   8.437   7.478  0.0089 -0.0698  0.0888
  382loPI   C4A 6106   1.187   8.354   7.498  0.0316  0.1784  0.0911
  382loPI   C5A 6107   0.847   8.363   7.077  0.3256  0.2928  0.1191
  382loPI   C6A 6108   0.770   8.617   6.854 -0.1875  0.2729 -0.4000
  382loPI   C1B 6109   1.473   8.104   8.287  0.1869 -0.0218  0.1660
  382loPI   C2B 6110   1.454   8.024   7.878 -0.3437  0.2323 -0.1052
  382loPI   C3B 6111   1.398   7.878   7.430  0.0297  0.1277  0.2067
  382loPI   C4B 6112   1.401   8.124   7.084  0.1902  0.4020  0.0513
  383loPI    C1 6113  14.261  16.826   9.444  0.1128  0.1263 -0.1924
  383loPI    C2 6114  14.515  16.629   9.681  0.0309  0.0511 -0.1666
  383loPI    C3 6115  14.263  16.897   9.838 -0.1848 -0.1680 -0.1330
  383loPI   PO4 6116  14.117  16.646   9.261  0.1202 -0.0958 -0.2454
  383loPI   GL1 6117  13.977  16.660   8.852  0.2339 -0.2886  0.1567
  383loPI   GL2 6118  13.895  16.343   8.740 -0.1403  0.0734  0.2109
  383loPI   C1A 6119  14.273  16.730   8.519  0.2485 -0.2711  0.3352
  383loPI   C2A 6120  14.206  16.822   8.099  0.0954  0.3928  0.1510
  383loPI   C3A 6121  14.087  16.730   7.615 -0.1158  0.1314 -0.4047
  383loPI   C4A 6122  14.368  16.779   7.260  0.1724  0.1064 -0.1252
  383loPI   C5A 6123  14.535  17.153   6.908  0.0392 -0.0774  0.0468
  383loPI   C6A 6124  14.407  17.502   6.665 -0.0371 -0.1362  0.0024
  383loPI   C1B 6125  13.978  16.366   8.210  0.2043 -0.1107 -0.0628
  383loPI   C2B 6126  14.360  16.344   8.045 -0.3046  0.1445 -0.6049
  383loPI   C3B 6127  14.566  16.152   7.776 -0.3051 -0.0948  0.0402
  383loPI   C4B 6128  14.649  16.099   7.310  0.2186  0.2635  0.2033
  384loPI    C1 6129  13.624  19.294   9.345 -0.0262  0.0086 -0.0641
  384loPI    C2 6130  13.798  19.034   9.595  0.0342  0.1876  0.0822
  384loPI    C3 6131  13.557  19.319   9.738  0.2833  0.4612 -0.0330
  384loPI   PO4 6132  13.456  19.197   9.136  0.1807  0.0947 -0.1745
  384loPI   GL1 6133  13.564  19.044   8.766 -0.1323 -0.0464 -0.1893
  384loPI   GL2 6134  13.535  18.609   8.624 -0.0327 -0.2828  0.1402
  384loPI   C1A 6135  13.894  19.412   8.647 -0.1239 -0.2364 -0.3925
  384loPI   C2A 6136  14.076  19.595   8.357 -0.0023  0.2034  0.3421
  384loPI   C3A 6137  14.263  19.825   8.032  0.0689  0.2136  0.0472
  384loPI   C4A 6138  14.522  19.810   7.643 -0.2155  0.0909  0.2581
  384loPI   C5A 6139  14.917  19.774   7.341  0.0038  0.0321  0.1658
  384loPI   C6A 6140  15.188  19.972   6.979 -0.1152  0.0411 -0.1432
  384loPI   C1B 6141  13.682  18.883   8.172  0.2050 -0.0535  0.0818
  384loPI   C2B 6142  13.709  18.981   7.754 -0.0779  0.2871  0.1391
  384loPI   C3B 6143  13.594  18.977   7.367 -0.1227  0.3495 -0.1294
  384loPI   C4B 6144  13.628  19.230   7.043  0.0591 -0.3075  0.0997
  385loPI    C1 6145   6.952   1.192   9.556  0.0997  0.1224 -0.1051
  385loPI    C2 6146   7.325   1.159   9.695  0.0363 -0.2164 -0.0063
  385loPI    C3 6147   7.020   1.005   9.903 -0.1417 -0.0804 -0.1640
  385loPI   PO4 6148   6.846   1.418   9.367  0.1240 -0.1375 -0.1389
  385loPI   GL1 6149   6.971   1.532   8.913  0.4064  0.2036  0.1517
  385loPI   GL2 6150   6.664   1.394   8.868 -0.1356 -0.0004  0.0120
  385loPI   C1A 6151   7.027   1.524   8.494  0.1897 -0.1720  0.1463
  385loPI   C2A 6152   7.110   1.573   8.029 -0.1452  0.2428  0.2761
  385loPI   C3A 6153   7.150   1.775   7.626 -0.3594 -0.0348 -0.2703
  385loPI   C4A 6154   7.066   1.788   7.183  0.2122  0.0831 -0.0156
  385loPI   C5A 6155   6.805   1.563   6.933 -0.2246 -0.1975  0.1496
  385loPI   C6A 6156   6.380   1.430   6.881 -0.1355  0.0663 -0.0081
  385loPI   C1B 6157   6.591   1.175   8.526  0.1801 -0.3990  0.0228
  385loPI   C2B 6158   6.681   1.272   8.148  0.0605  0.1883  0.1034
  385loPI   C3B 6159   6.848   1.123   7.776  0.2095  0.3246  0.1397
  385loPI   C4B 6160   7.218   0.701   7.795 -0.4438 -0.0077  0.0039
  386loPI    C1 6161  15.291  13.526   9.920 -0.2074 -0.0396  0.2709
  386loPI    C2 6162  15.380  13.171  10.080 -0.4779 -0.2032  0.0676
  386loPI    C3 6163  15.097  13.400  10.246 -0.2672 -0.0564  0.2293
  386loPI   PO4 6164  15.295  13.360   9.567  0.1332 -0.4844  0.0892
  386loPI   GL1 6165  15.233  13.340   9.124 -0.1804  0.0138  0.1951
  386loPI   GL2 6166  15.049  13.411   9.147 -0.1355 -0.1570 -0.1320
  386loPI   C1A 6167  15.214  13.121   8.745  0.0995  0.1745 -0.0582
  386loPI   C2A 6168  15.022  12.996   8.257 -0.0487  0.1480 -0.1750
  386loPI   C3A 6169  14.803  12.987   7.840 -0.4104 -0.0461 -0.1205
  386loPI   C4A 6170  14.863  12.879   7.481  0.1969 -0.0471 -0.1333
  386loPI   C5A 6171  15.044  12.912   7.128  0.2223 -0.0735  0.0823
  386loPI   C6A 6172  15.397  12.927   6.847  0.1204 -0.0940  0.1936
  386loPI   C1B 6173  14.966  13.547   8.777  0.3598  0.0354  0.0651
  386loPI   C2B 6174  14.847  13.482   8.351 -0.0904  0.0338 -0.3068
  386loPI   C3B 6175  15.008  13.502   7.975  0.1735  0.0661  0.0538
  386loPI   C4B 6176  15.050  13.362   7.515 -0.1825 -0.1726 -0.0369
  387loPI    C1 6177  10.054   0.857   9.587 -0.1291 -0.0168 -0.0457
  387loPI    C2 6178  10.261   1.089   9.839  0.0971 -0.2134 -0.0462
  387loPI    C3 6179   9.982   0.841   9.980 -0.0178 -0.0745 -0.0270
  387loPI   PO4 6180  10.222   0.855   9.357 -0.1311 -0.0181  0.0560
  387loPI   GL1 6181  10.432   0.758   8.949 -0.0015 -0.1606  0.1054
  387loPI   GL2 6182  10.199   0.458   8.833  0.2948 -0.0163  0.0268
  387loPI   C1A 6183  10.716   0.711   8.671 -0.1023 -0.3454  0.2415
  387loPI   C2A 6184  10.535   0.866   8.231 -0.3916  0.1469  0.1132
  387loPI   C3A 6185  10.491   1.207   7.890  0.0552  0.0910 -0.1592
  387loPI   C4A 6186  10.498   1.440   7.493 -0.2772  0.0202 -0.0496
  387loPI   C5A 6187  10.635   1.191   7.085 -0.2836 -0.0703  0.0721
  387loPI   C6A 6188  10.702   0.801   6.986  0.0211 -0.1772  0.1688
  387loPI   C1B 6189  10.056   0.754   8.537 -0.3522 -0.1840  0.0718
  387loPI   C2B 6190  10.036   0.878   8.090 -0.1063 -0.0685  0.1582
  387loPI   C3B 6191  10.036   1.068   7.741 -0.1084  0.0547 -0.2441
  387loPI   C4B 6192  10.115   1.156   7.252 -0.0021  0.2177 -0.4411
  388loPI    C1 6193   0.975  19.001   9.564 -0.0075  0.0865 -0.0540
  388loPI    C2 6194   0.925  19.330   9.787 -0.1332  0.0687 -0.0560
  388loPI    C3 6195   1.222  19.076   9.871 -0.0533  0.1678 -0.0367
  388loPI   PO4 6196   1.035  19.073   9.359 -0.1189 -0.1940 -0.3440
  388loPI   GL1 6197   0.989  19.141   8.984 -0.0554 -0.0857  0.1836
  388loPI   GL2 6198   1.004  18.840   8.805  0.2489 -0.0094 -0.4817
  388loPI   C1A 6199   1.177  19.323   8.618  0.0637  0.1702 -0.1283
  388loPI   C2A 6200   1.371  19.576   8.507  0.0096  0.2876 -0.3086
  388loPI   C3A 6201   1.316  19.905   8.220 -0.4871  0.0590  0.0414
  388loPI   C4A 6202   1.262  20.047   7.685 -0.3123  0.2734 -0.1421
  388loPI   C5A 6203   1.364  20.222   7.262 -0.0563  0.1936  0.0925
  388loPI   C6A 6204   1.711  20.576   7.127 -0.4620 -0.2362  0.0207
  388loPI   C1B 6205   1.338  18.786   8.655  0.0288  0.2599 -0.2666
  388loPI   C2B 6206   1.366  18.775   8.216  0.3273 -0.1765 -0.1071
  388loPI   C3B 6207   1.306  18.924   7.824  0.3371  0.1366  0.2374
  388loPI   C4B 6208   1.088  19.072   7.575 -0.1250  0.0215  0.2586
  389loPI    C1 6209  14.723   4.246   9.910  0.0095 -0.0941  0.1038
  389loPI    C2 6210  14.402   4.151  10.128 -0.0662 -0.0593  0.0080
  389loPI    C3 6211  14.637   4.455  10.240 -0.0477 -0.1059  0.0965
  389loPI   PO4 6212  14.635   4.111   9.683  0.1169 -0.3758  0.1543
  389loPI   GL1 6213  14.610   4.028   9.309  0.0501  0.1070  0.1578
  389loPI   GL2 6214  14.289   3.972   9.337  0.1389 -0.1223 -0.4305
  389loPI   C1A 6215  14.487   3.896   8.924  0.1870  0.0626 -0.0293
  389loPI   C2A 6216  14.342   3.910   8.539  0.3461  0.0883  0.1816
  389loPI   C3A 6217  14.409   3.859   8.044 -0.1910 -0.1213 -0.3524
  389loPI   C4A 6218  14.669   3.970   7.696  0.0898 -0.1111  0.3010
  389loPI   C5A 6219  15.022   3.805   7.398 -0.2367  0.1309 -0.0067
  389loPI   C6A 6220  15.124   3.558   7.090  0.0431  0.0040 -0.1734
  389loPI   C1B 6221  13.939   3.841   8.964 -0.2536 -0.3184  0.3699
  389loPI   C2B 6222  13.928   4.175   8.600  0.1925  0.1276  0.4531
  389loPI   C3B 6223  13.917   3.994   8.083  0.0460  0.3066 -0.0058
  389loPI   C4B 6224  13.737   3.903   7.717  0.1149  0.1967 -0.1230
  390loPI    C1 6225   9.666  13.649   9.415  0.0766  0.1706  0.0639
  390loPI    C2 6226   9.653  13.409   9.735 -0.0593  0.1418  0.0376
  390loPI    C3 6227   9.920  13.708   9.719  0.0133  0.0829  0.1342
  390loPI   PO4 6228   9.606  13.480   9.233 -0.4749  0.2307  0.0476
  390loPI   GL1 6229   9.837  13.499   8.844  0.0922 -0.2025  0.0784
  390loPI   GL2 6230   9.600  13.530   8.672  0.0793 -0.0006  0.0480
  390loPI   C1A 6231   9.997  13.859   8.529  0.1029  0.0573 -0.2792
  390loPI   C2A 6232  10.060  13.946   8.198  0.0276 -0.3706 -0.3423
  390loPI   C3A 6233  10.050  14.167   7.779 -0.1306 -0.1432  0.1170
  390loPI   C4A 6234  10.101  14.443   7.603  0.0200  0.0250  0.1731
  390loPI   C5A 6235  10.351  14.674   7.447  0.4932 -0.0542 -0.2316
  390loPI   C6A 6236  10.709  14.776   7.195  0.2081 -0.3246  0.1920
  390loPI   C1B 6237   9.414  13.381   8.290 -0.0739 -0.1769 -0.0556
  390loPI   C2B 6238   9.275  13.420   7.853 -0.0130  0.0196 -0.3359
  390loPI   C3B 6239   9.256  13.674   7.476  0.0972 -0.4437  0.0867
  390loPI   C4B 6240   9.186  13.794   7.057  0.3704 -0.0059 -0.0022
  391loPI    C1 6241  10.291  10.660   9.430 -0.0928  0.1029 -0.0612
  391loPI    C2 6242  10.147  11.002   9.580 -0.0270  0.1381 -0.0777
  391loPI    C3 6243  10.372  10.763   9.808 -0.1381  0.0669 -0.0415
  391loPI   PO4 6244  10.278  10.760   9.102  0.0761  0.3152  0.3124
  391loPI   GL1 6245  10.382  11.022   8.780  0.0059  0.0164 -0.2068
  391loPI   GL2 6246  10.507  11.270   8.887  0.0503  0.2537  0.0788
  391loPI   C1A 6247  10.476  11.019   8.356 -0.1618  0.1585 -0.0790
  391loPI   C2A 6248  10.487  10.938   8.033 -0.1124  0.1482  0.4447
  391loPI   C3A 6249  10.561  10.834   7.565 -0.2137  0.3476 -0.1459
  391loPI   C4A 6250  10.516  10.698   7.204 -0.0513 -0.3662  0.0335
  391loPI   C5A 6251  10.661  10.440   6.905  0.0349 -0.1491  0.0296
  391loPI   C6A 6252  10.995  10.153   6.722  0.1197 -0.1427  0.0629
  391loPI   C1B 6253  10.902  10.985   8.676 -0.2466 -0.1086 -0.0381
  391loPI   C2B 6254  10.956  11.076   8.160 -0.1536  0.4767 -0.0511
  391loPI   C3B 6255  11.030  11.001   7.784 -0.0993  0.1900 -0.0616
  391loPI   C4B 6256  11.152  11.129   7.413 -0.0860  0.2426  0.2856
  392loPI    C1 6257   4.538   3.936   9.287 -0.0113  0.1336  0.1152
  392loPI    C2 6258   4.412   4.217   9.032 -0.0846  0.0327  0.0395
  392loPI    C3 6259   4.387   4.280   9.426 -0.4190 -0.0042  0.0269
  392loPI   PO4 6260   4.757   3.793   9.154 -0.1794  0.1791 -0.1103
  392loPI   GL1 6261   4.888   3.950   8.828 -0.0400 -0.0344 -0.1199
  392loPI   GL2 6262   4.723   3.637   8.615  0.0909 -0.3028 -0.1984
  392loPI   C1A 6263   5.023   4.203   8.453  0.1180 -0.0260  0.0765
  392loPI   C2A 6264   5.194   4.008   8.151  0.1064 -0.0872  0.0239
  392loPI   C3A 6265   5.054   3.850   7.734 -0.0036 -0.0588 -0.3704
  392loPI   C4A 6266   5.260   3.946   7.320  0.3142 -0.3537 -0.1179
  392loPI   C5A 6267   5.538   3.906   6.903 -0.0500 -0.0955  0.4137
  392loPI   C6A 6268   5.762   3.562   6.675  0.0411 -0.3914  0.0745
  392loPI   C1B 6269   4.558   4.039   8.478 -0.1097  0.0558 -0.1909
  392loPI   C2B 6270   4.672   4.129   8.127 -0.3258  0.0813  0.2444
  392loPI   C3B 6271   4.571   4.102   7.707  0.2070 -0.1201 -0.0746
  392loPI   C4B 6272   4.668   4.139   7.264  0.2075 -0.3837 -0.1708
  393loPI    C1 6273  15.611   7.318  10.282  0.0580  0.0412 -0.0534
  393loPI    C2 6274  15.936   7.115  10.396  0.0991  0.0610 -0.1345
  393loPI    C3 6275  15.721   7.317  10.666  0.1433  0.0324 -0.0777
  393loPI   PO4 6276  15.748   7.503   9.964  0.2993  0.0295 -0.1082
  393loPI   GL1 6277  15.917   7.593   9.558  0.0727 -0.1578 -0.0714
  393loPI   GL2 6278  15.641   7.605   9.382 -0.0541  0.0699 -0.0747
  393loPI   C1A 6279  16.020   7.425   9.139  0.1445 -0.2461  0.1270
  393loPI   C2A 6280  15.844   7.404   8.797 -0.0464 -0.0318  0.1444
  393loPI   C3A 6281  15.817   7.433   8.411  0.4605  0.1048  0.2198
  393loPI   C4A 6282  15.862   7.433   7.974  0.2971  0.1072  0.1211
  393loPI   C5A 6283  15.683   7.402   7.522 -0.0498 -0.0484 -0.1179
  393loPI   C6A 6284  15.289   7.426   7.222  0.4451  0.0177 -0.1125
  393loPI   C1B 6285  15.401   7.534   9.062  0.1871 -0.2922 -0.0860
  393loPI   C2B 6286  15.347   7.476   8.577  0.2297 -0.0258 -0.1780
  393loPI   C3B 6287  15.329   7.498   8.182  0.1193 -0.1947  0.0994
  393loPI   C4B 6288  15.256   7.521   7.720  0.0950 -0.1223  0.0086
  394loPI    C1 6289   6.351   7.828   9.201 -0.3567 -0.0063  0.1112
  394loPI    C2 6290   6.440   8.217   9.182  0.0743 -0.1154 -0.3053
  394loPI    C3 6291   6.485   8.019   9.526  0.2733  0.1086 -0.1992
  394loPI   PO4 6292   6.423   7.729   8.956  0.1249  0.2943  0.1286
  394loPI   GL1 6293   6.190   7.634   8.556  0.2301  0.0177 -0.0920
  394loPI   GL2 6294   6.154   7.715   8.238  0.1632  0.1357  0.0861
  394loPI   C1A 6295   6.499   7.256   8.454  0.0527  0.2137 -0.0042
  394loPI   C2A 6296   6.559   6.846   8.179 -0.4544 -0.0335 -0.0164
  394loPI   C3A 6297   6.442   6.762   7.819  0.1727 -0.3703 -0.1414
  394loPI   C4A 6298   6.080   6.791   7.479 -0.1585 -0.1279 -0.0233
  394loPI   C5A 6299   5.940   6.617   7.093 -0.0371 -0.0365  0.2804
  394loPI   C6A 6300   5.950   6.211   6.932  0.0147  0.0574  0.0378
  394loPI   C1B 6301   6.316   7.735   7.794  0.0019  0.2732 -0.1102
  394loPI   C2B 6302   6.312   7.933   7.350 -0.1999 -0.2767 -0.0840
  394loPI   C3B 6303   6.160   7.763   6.940  0.0902 -0.0808 -0.3732
  394loPI   C4B 6304   5.607   7.623   6.835  0.0075 -0.2967 -0.0842
  395loPI    C1 6305  17.435  10.893   9.675  0.1226  0.0084 -0.1042
  395loPI    C2 6306  17.371  11.286   9.640  0.0648 -0.0005 -0.0992
  395loPI    C3 6307  17.655  11.151   9.887 -0.1221  0.0257  0.1324
  395loPI   PO4 6308  17.489  10.799   9.492 -0.3913  0.3020  0.0184
  395loPI   GL1 6309  17.812  10.748   9.130  0.0670 -0.1935  0.1329
  395loPI   GL2 6310  17.551  10.490   9.059 -0.0954 -0.2071 -0.1294
  395loPI   C1A 6311  17.925  10.820   8.762 -0.2339  0.1714 -0.0076
  395loPI   C2A 6312  18.120  10.597   8.342 -0.0765  0.0284 -0.4079
  395loPI   C3A 6313  17.915  10.415   8.022  0.3179 -0.2783  0.4092
  395loPI   C4A 6314  18.023  10.366   7.534  0.0189 -0.1091  0.0113
  395loPI   C5A 6315  17.957  10.501   7.058  0.0030 -0.0238 -0.2324
  395loPI   C6A 6316  18.157  10.774   6.734  0.1232 -0.1679 -0.2168
  395loPI   C1B 6317  17.289  10.479   8.743 -0.0813  0.2314  0.0740
  395loPI   C2B 6318  17.049  10.420   8.367  0.1567 -0.1419  0.2148
  395loPI   C3B 6319  16.960  10.244   7.989  0.0741 -0.2565  0.0160
  395loPI   C4B 6320  16.942  10.258   7.621 -0.0598 -0.1985  0.2385
  396loPI    C1 6321   0.227  13.246   9.303 -0.2406 -0.0580  0.3127
  396loPI    C2 6322   0.612  13.169   9.375 -0.1192  0.2733  0.0453
  396loPI    C3 6323   0.445  13.504   9.517 -0.2851  0.1754  0.0828
  396loPI   PO4 6324   0.175  12.947   9.191 -0.1009 -0.0769 -0.0830
  396loPI   GL1 6325  -0.005  12.749   8.841 -0.4831 -0.0585  0.1576
  396loPI   GL2 6326   0.320  12.671   8.729 -0.0270  0.0695 -0.2055
  396loPI   C1A 6327   0.049  12.897   8.436 -0.1538 -0.3311 -0.0362
  396loPI   C2A 6328   0.046  12.883   8.077 -0.0652 -0.2333  0.1017
  396loPI   C3A 6329  -0.033  12.835   7.663 -0.2255  0.4701 -0.1670
  396loPI   C4A 6330  -0.158  13.049   7.301  0.0137 -0.1354  0.2034
  396loPI   C5A 6331  -0.195  13.271   6.950 -0.0372  0.0416 -0.2142
  396loPI   C6A 6332  -0.131  13.710   6.843 -0.1570  0.0846  0.4608
  396loPI   C1B 6333   0.469  12.629   8.296 -0.1195 -0.2140  0.0132
  396loPI   C2B 6334   0.460  12.593   7.903  0.0104  0.1902  0.2428
  396loPI   C3B 6335   0.448  12.718   7.494 -0.0049 -0.1977  0.1779
  396loPI   C4B 6336   0.252  12.736   7.169  0.1194  0.1085 -0.2680
  397loPI    C1 6337  14.510   6.226   9.716 -0.0479 -0.0203  0.0643
  397loPI    C2 6338  14.661   6.534   9.923 -0.1414 -0.1718  0.3642
  397loPI    C3 6339  14.290   6.405   9.999 -0.1219 -0.3265  0.2042
  397loPI   PO4 6340  14.557   6.284   9.422 -0.1060  0.3013  0.0416
  397loPI   GL1 6341  14.832   6.446   9.164  0.2584 -0.1990 -0.0029
  397loPI   GL2 6342  14.644   6.585   9.013  0.0552  0.0908  0.1741
  397loPI   C1A 6343  14.982   6.237   8.882 -0.3655  0.3858 -0.1818
  397loPI   C2A 6344  14.946   6.075   8.484  0.1093  0.2144  0.1511
  397loPI   C3A 6345  14.765   5.902   8.140 -0.0291 -0.1309  0.6179
  397loPI   C4A 6346  14.727   5.845   7.632  0.0718 -0.1298  0.0813
  397loPI   C5A 6347  14.518   5.897   7.258  0.0465 -0.1674 -0.1192
  397loPI   C6A 6348  14.405   5.705   6.983  0.0293  0.1197  0.3783
  397loPI   C1B 6349  14.598   6.402   8.589 -0.2310 -0.0157 -0.1563
  397loPI   C2B 6350  14.497   6.322   8.216 -0.1625  0.0065 -0.1045
  397loPI   C3B 6351  14.635   6.444   7.850 -0.1157  0.3398  0.2066
  397loPI   C4B 6352  14.972   6.673   7.683  0.1455 -0.1564  0.0021
  398loPI    C1 6353  13.084   3.845  10.108  0.2564 -0.0685 -0.0567
  398loPI    C2 6354  12.799   3.621  10.279  0.1447  0.0533 -0.0813
  398loPI    C3 6355  13.168   3.629  10.434  0.1204 -0.0622 -0.0167
  398loPI   PO4 6356  12.919   3.925   9.851  0.2252  0.0466 -0.0543
  398loPI   GL1 6357  12.732   3.921   9.466  0.0786 -0.0223  0.1763
  398loPI   GL2 6358  12.769   4.257   9.302 -0.0439  0.0324  0.1201
  398loPI   C1A 6359  12.957   3.815   9.136  0.2786 -0.0697  0.1430
  398loPI   C2A 6360  13.119   3.686   8.799  0.1930 -0.1465 -0.1603
  398loPI   C3A 6361  13.256   3.641   8.417  0.2156  0.1107 -0.0778
  398loPI   C4A 6362  13.210   3.518   7.954 -0.3856 -0.1191 -0.0901
  398loPI   C5A 6363  13.253   3.691   7.520 -0.4649  0.2696  0.0826
  398loPI   C6A 6364  13.518   3.660   7.080 -0.1501 -0.2392 -0.0936
  398loPI   C1B 6365  12.602   4.175   8.944  0.0606  0.1749 -0.4842
  398loPI   C2B 6366  12.356   4.158   8.698 -0.0825  0.0994 -0.0163
  398loPI   C3B 6367  12.314   4.161   8.239  0.3615 -0.1130  0.0957
  398loPI   C4B 6368  12.297   4.207   7.781  0.2834  0.1610  0.0732
  399loPI    C1 6369   9.134  18.792   9.351 -0.1043  0.0983  0.2830
  399loPI    C2 6370   9.381  18.513   9.495 -0.0486  0.1559  0.2994
  399loPI    C3 6371   9.008  18.542   9.637 -0.1656 -0.1283  0.0606
  399loPI   PO4 6372   9.065  18.828   9.131  0.1329  0.1345 -0.1080
  399loPI   GL1 6373   9.050  19.179   8.946 -0.3201  0.3299 -0.3542
  399loPI   GL2 6374   9.420  19.264   8.803 -0.1936  0.1118 -0.0772
  399loPI   C1A 6375   8.989  19.057   8.566  0.3272  0.3637 -0.0260
  399loPI   C2A 6376   9.014  18.962   8.142  0.2305 -0.0962 -0.0337
  399loPI   C3A 6377   9.065  18.972   7.725 -0.1127  0.2674 -0.3220
  399loPI   C4A 6378   9.142  19.130   7.393 -0.0822  0.0271  0.2031
  399loPI   C5A 6379   9.044  19.047   6.947 -0.0270  0.0164  0.0232
  399loPI   C6A 6380   8.961  18.729   6.660  0.2088 -0.0788 -0.0062
  399loPI   C1B 6381   9.581  19.123   8.427 -0.0956 -0.1716 -0.1328
  399loPI   C2B 6382   9.472  19.119   8.095 -0.1856  0.3603 -0.1339
  399loPI   C3B 6383   9.612  19.157   7.710 -0.3655  0.1013  0.1861
  399loPI   C4B 6384   9.924  19.231   7.530  0.1592  0.1615 -0.0029
  400loPI    C1 6385   0.358   7.063   9.138 -0.1940 -0.0208 -0.1885
  400loPI    C2 6386   0.555   7.042   9.485 -0.0467 -0.0820 -0.2750
  400loPI    C3 6387   0.165   6.956   9.472 -0.0107 -0.2687 -0.1592
  400loPI   PO4 6388   0.473   6.929   9.016  0.2018  0.2237  0.0147
  400loPI   GL1 6389   0.720   6.858   8.628 -0.1083  0.1541 -0.0776
  400loPI   GL2 6390   0.481   7.124   8.580  0.0428  0.0995  0.0023
  400loPI   C1A 6391   0.835   6.813   8.170 -0.1125 -0.0131 -0.1647
  400loPI   C2A 6392   0.977   6.705   7.853 -0.2757 -0.1048 -0.0472
  400loPI   C3A 6393   0.950   6.614   7.457 -0.1407 -0.3046  0.0018
  400loPI   C4A 6394   1.175   6.527   7.056  0.0871 -0.3960  0.2983
  400loPI   C5A 6395   1.404   6.767   6.765 -0.2802 -0.0111  0.2034
  400loPI   C6A 6396   1.587   6.917   6.414  0.0778 -0.0050 -0.0409
  400loPI   C1B 6397   0.448   7.141   8.214  0.3208  0.0391 -0.3467
  400loPI   C2B 6398   0.405   7.169   7.808  0.0804  0.0627 -0.2580
  400loPI   C3B 6399   0.169   6.961   7.523  0.3331  0.1090 -0.0638
  400loPI   C4B 6400   0.161   6.908   7.097 -0.3372  0.4528 -0.2208
  401loPI    C1 6401   7.869   1.304   9.155  0.0483 -0.2289  0.2766
  401loPI    C2 6402   8.059   0.952   9.151 -0.1332 -0.3273  0.0860
  401loPI    C3 6403   7.667   0.967   9.228 -0.2535 -0.2367 -0.5005
  401loPI   PO4 6404   8.004   1.438   8.958  0.0346 -0.1305 -0.2144
  401loPI   GL1 6405   7.949   1.486   8.561  0.2958 -0.0577  0.0622
  401loPI   GL2 6406   7.751   1.762   8.648 -0.1409 -0.0397  0.0566
  401loPI   C1A 6407   8.144   1.237   8.271  0.1597 -0.1206 -0.0488
  401loPI   C2A 6408   8.034   1.222   7.952  0.1747  0.0633 -0.0753
  401loPI   C3A 6409   7.834   1.339   7.635  0.2081 -0.0650  0.0473
  401loPI   C4A 6410   7.694   1.333   7.139 -0.1304  0.0952  0.0727
  401loPI   C5A 6411   7.687   1.356   6.715  0.0342 -0.1189  0.3050
  401loPI   C6A 6412   7.750   1.691   6.400 -0.0847  0.0883 -0.0051
  401loPI   C1B 6413   7.515   1.653   8.303  0.1255 -0.0631  0.0684
  401loPI   C2B 6414   7.619   1.709   7.774  0.3148  0.3608 -0.4835
  401loPI   C3B 6415   7.574   1.833   7.261  0.0754  0.2362 -0.0618
  401loPI   C4B 6416   7.773   1.831   6.914  0.0389 -0.2188  0.1288
  402loPI    C1 6417  10.571   6.967   9.289  0.2767 -0.2533  0.4302
  402loPI    C2 6418  10.643   7.214   9.595 -0.0676 -0.1005  0.3927
  402loPI    C3 6419  10.443   6.873   9.657 -0.0734 -0.1047  0.3506
  402loPI   PO4 6420  10.433   7.226   9.107  0.2149  0.5028 -0.1950
  402loPI   GL1 6421  10.342   7.494   8.667  0.1400  0.2693 -0.2334
  402loPI   GL2 6422  10.589   7.568   8.525  0.1728  0.2445  0.1339
  402loPI   C1A 6423  10.165   7.303   8.354 -0.0677 -0.0815  0.1494
  402loPI   C2A 6424  10.173   7.200   7.883  0.3382 -0.0637  0.3328
  402loPI   C3A 6425  10.185   7.259   7.493 -0.2271 -0.1850 -0.0765
  402loPI   C4A 6426  10.212   7.180   7.097  0.1427  0.0202  0.2687
  402loPI   C5A 6427  10.140   7.098   6.657  0.2696  0.2391 -0.1748
  402loPI   C6A 6428  10.154   7.136   6.283 -0.3045  0.0898 -0.1436
  402loPI   C1B 6429  10.465   7.731   8.117 -0.2313 -0.3002  0.0397
  402loPI   C2B 6430  10.413   7.706   7.585  0.0817  0.2624  0.0452
  402loPI   C3B 6431  10.510   7.749   7.174  0.3719  0.2334  0.0676
  402loPI   C4B 6432  10.222   7.957   6.939  0.0229 -0.0407 -0.0689
  403loPI    C1 6433   0.706  12.138   9.362  0.2574 -0.0805  0.0001
  403loPI    C2 6434   0.671  11.888   9.673 -0.0690 -0.0648 -0.0211
  403loPI    C3 6435   0.475  12.236   9.673  0.3064  0.1517 -0.0354
  403loPI   PO4 6436   0.640  12.079   9.195 -0.0140  0.0322  0.0677
  403loPI   GL1 6437   0.375  12.091   8.824 -0.1259 -0.3371  0.2328
  403loPI   GL2 6438   0.192  11.921   8.740  0.2915  0.1702 -0.1249
  403loPI   C1A 6439   0.498  12.129   8.371  0.0032 -0.1163 -0.3123
  403loPI   C2A 6440   0.455  12.112   8.047 -0.1088  0.2229 -0.1698
  403loPI   C3A 6441   0.604  12.106   7.674  0.0200 -0.0455  0.0735
  403loPI   C4A 6442   0.552  12.260   7.316  0.2518 -0.0190 -0.1081
  403loPI   C5A 6443   0.575  12.426   6.952  0.0481  0.3601  0.2215
  403loPI   C6A 6444   0.376  12.603   6.635 -0.1735  0.1241 -0.0288
  403loPI   C1B 6445   0.168  11.805   8.393  0.1557 -0.2145 -0.0460
  403loPI   C2B 6446   0.118  11.769   7.956 -0.3195  0.1760 -0.1960
  403loPI   C3B 6447   0.109  11.893   7.534  0.1647  0.1230 -0.2071
  403loPI   C4B 6448   0.118  11.960   7.193  0.1096  0.2113  0.0721
  404loPI    C1 6449  13.540   0.007   9.606  0.1102  0.1703  0.0036
  404loPI    C2 6450  13.608  -0.091   9.988  0.2326 -0.3990 -0.1552
  404loPI    C3 6451  13.281  -0.227   9.802  0.0755  0.0315 -0.2045
  404loPI   PO4 6452  13.686  -0.118   9.410  0.2077  0.0226 -0.0901
  404loPI   GL1 6453  13.756  -0.105   9.012  0.2352 -0.0576 -0.5498
  404loPI   GL2 6454  13.513  -0.319   8.888  0.0633  0.0347 -0.1626
  404loPI   C1A 6455  14.058   0.015   8.690 -0.3662 -0.1013  0.1053
  404loPI   C2A 6456  14.558   0.045   8.524  0.0657 -0.0216 -0.1490
  404loPI   C3A 6457  14.716  -0.127   8.085 -0.0499  0.1612  0.0630
  404loPI   C4A 6458  14.992  -0.398   7.886 -0.3189  0.3242  0.0299
  404loPI   C5A 6459  15.113  -0.534   7.576  0.0086  0.0218 -0.2218
  404loPI   C6A 6460  15.270  -0.441   7.134 -0.0987 -0.2627  0.1194
  404loPI   C1B 6461  13.563  -0.043   8.553  0.2210  0.1981  0.0160
  404loPI   C2B 6462  13.770   0.029   8.229 -0.0126 -0.0591 -0.1789
  404loPI   C3B 6463  13.742   0.405   7.910 -0.0315 -0.0188  0.2899
  404loPI   C4B 6464  14.118   0.530   7.649  0.3723  0.2758  0.1702
  405loPI    C1 6465  15.711  14.181   9.742 -0.0913  0.2152  0.0734
  405loPI    C2 6466  15.357  14.011   9.823 -0.0989  0.1239 -0.1458
  405loPI    C3 6467  15.535  14.242  10.097 -0.2399  0.0204  0.0353
  405loPI   PO4 6468  15.617  14.312   9.552  0.0908 -0.0551 -0.1042
  405loPI   GL1 6469  15.434  14.139   9.231 -0.1691  0.3691  0.2783
  405loPI   GL2 6470  15.115  14.064   9.167  0.0330 -0.1907 -0.1120
  405loPI   C1A 6471  15.557  14.053   8.792  0.0776  0.0474  0.0011
  405loPI   C2A 6472  15.547  14.172   8.386 -0.2918 -0.0249  0.0506
  405loPI   C3A 6473  15.748  14.476   8.081  0.3612  0.3487  0.0609
  405loPI   C4A 6474  15.756  14.578   7.638 -0.0554  0.0118 -0.2587
  405loPI   C5A 6475  15.761  14.965   7.329  0.1394  0.0859  0.2248
  405loPI   C6A 6476  15.811  15.123   6.871  0.0999 -0.1236 -0.0097
  405loPI   C1B 6477  15.006  14.042   8.770 -0.1859 -0.0190  0.2317
  405loPI   C2B 6478  15.095  14.052   8.377 -0.1322  0.0969 -0.1499
  405loPI   C3B 6479  15.254  14.042   7.996 -0.0103  0.0821  0.1566
  405loPI   C4B 6480  15.153  14.286   7.640  0.1000  0.0799  0.1776
  406loPI    C1 6481  19.381  19.526   9.544  0.1581 -0.0497 -0.0054
  406loPI    C2 6482  19.328  19.354   9.901 -0.1620 -0.0813 -0.0651
  406loPI    C3 6483  19.314  19.752   9.867 -0.0709 -0.0753 -0.0332
  406loPI   PO4 6484  19.383  19.427   9.403 -0.1086  0.2632  0.1594
  406loPI   GL1 6485  19.539  19.492   8.998  0.3091  0.0465 -0.1838
  406loPI   GL2 6486  19.185  19.432   8.871 -0.1826 -0.1179  0.0046
  406loPI   C1A 6487  19.709  19.633   8.593 -0.1025  0.3732 -0.0046
  406loPI   C2A 6488  19.967  19.806   8.196  0.2325  0.1645  0.2453
  406loPI   C3A 6489  20.043  20.058   7.780 -0.0462 -0.0999  0.0633
  406loPI   C4A 6490  20.073  20.006   7.369 -0.1838  0.1117 -0.0385
  406loPI   C5A 6491  20.156  19.793   6.999 -0.0428 -0.2748 -0.0783
  406loPI   C6A 6492  20.525  19.593   6.950  0.0005  0.2038  0.1497
  406loPI   C1B 6493  19.226  19.386   8.436  0.3020 -0.2872 -0.2223
  406loPI   C2B 6494  19.193  19.366   8.037 -0.1856 -0.1798 -0.0347
  406loPI   C3B 6495  19.064  19.550   7.601 -0.0363 -0.1652  0.3674
  406loPI   C4B 6496  19.341  19.445   7.342  0.3398 -0.0417 -0.0948
  407loPI    C1 6497  13.445  14.976   9.868  0.4118 -0.1899  0.2328
  407loPI    C2 6498  13.797  15.035  10.049  0.2918  0.4534  0.2785
  407loPI    C3 6499  13.491  15.283  10.121  0.0291  0.3042 -0.2733
  407loPI   PO4 6500  13.428  14.969   9.638 -0.0298  0.1076  0.0080
  407loPI   GL1 6501  13.452  14.791   9.197  0.0621 -0.2412  0.1625
  407loPI   GL2 6502  13.597  15.100   9.117  0.1232 -0.2115  0.1446
  407loPI   C1A 6503  13.293  14.596   8.867  0.1234 -0.2665 -0.2555
  407loPI   C2A 6504  13.233  14.709   8.512 -0.1507 -0.2650  0.1161
  407loPI   C3A 6505  12.998  14.674   8.163 -0.5810 -0.4952 -0.0511
  407loPI   C4A 6506  13.138  14.852   7.800 -0.4035  0.2586 -0.3805
  407loPI   C5A 6507  13.133  14.858   7.295 -0.0917 -0.0508  0.3127
  407loPI   C6A 6508  13.118  14.937   6.885  0.0642  0.0827 -0.3389
  407loPI   C1B 6509  13.328  15.126   8.749  0.0190  0.0188 -0.1596
  407loPI   C2B 6510  13.337  15.095   8.282  0.3139 -0.0720 -0.0019
  407loPI   C3B 6511  13.465  15.224   7.927  0.0480 -0.3072 -0.1115
  407loPI   C4B 6512  13.420  15.326   7.537  0.0743  0.0809  0.3114
  408loPI    C1 6513  19.615   3.127   9.547  0.0798 -0.1321  0.2927
  408loPI    C2 6514  19.811   3.011   9.218 -0.2058  0.0313  0.0608
  408loPI    C3 6515  20.007   3.200   9.511  0.0530 -0.1244 -0.0091
  408loPI   PO4 6516  19.403   3.226   9.375 -0.4736 -0.2994  0.0773
  408loPI   GL1 6517  19.234   3.162   9.018 -0.1011 -0.3015 -0.0927
  408loPI   GL2 6518  19.394   2.917   8.926 -0.2098 -0.0526 -0.1478
  408loPI   C1A 6519  19.197   3.200   8.600  0.3918 -0.0730 -0.0427
  408loPI   C2A 6520  19.167   3.211   8.168 -0.0904 -0.4032 -0.4733
  408loPI   C3A 6521  19.433   3.269   7.794  0.1018  0.1753 -0.0479
  408loPI   C4A 6522  19.590   2.985   7.552  0.3316  0.1981 -0.1452
  408loPI   C5A 6523  19.940   2.964   7.321  0.1033 -0.0425 -0.2721
  408loPI   C6A 6524  20.253   2.849   7.333 -0.0759 -0.2287 -0.2465
  408loPI   C1B 6525  19.224   2.739   8.647 -0.2858 -0.0680  0.1579
  408loPI   C2B 6526  19.382   2.467   8.327  0.4187 -0.2611 -0.0728
  408loPI   C3B 6527  19.656   2.080   8.139  0.1471  0.4050  0.1188
  408loPI   C4B 6528  19.780   1.682   8.216 -0.2412  0.1657  0.2069
  409loPI    C1 6529  12.010   5.699   9.521 -0.0282  0.0903  0.1287
  409loPI    C2 6530  11.708   5.866   9.318  0.0687  0.3625  0.2038
  409loPI    C3 6531  11.638   5.557   9.562 -0.1191  0.3109  0.0870
  409loPI   PO4 6532  12.158   5.695   9.361  0.2427  0.1571 -0.1342
  409loPI   GL1 6533  12.596   5.530   9.177 -0.0857  0.2264 -0.2827
  409loPI   GL2 6534  12.876   5.235   9.241  0.2108 -0.1756 -0.0037
  409loPI   C1A 6535  12.587   5.556   8.704  0.1195 -0.0360 -0.0156
  409loPI   C2A 6536  12.645   5.724   8.281  0.1956 -0.2765 -0.0171
  409loPI   C3A 6537  13.023   5.577   8.185  0.1367 -0.4543  0.0523
  409loPI   C4A 6538  13.462   5.755   7.992 -0.0160  0.1655  0.2267
  409loPI   C5A 6539  13.599   5.687   7.648  0.0993 -0.1213  0.1000
  409loPI   C6A 6540  13.536   5.459   7.204  0.0131  0.0034 -0.0844
  409loPI   C1B 6541  13.095   4.860   9.038 -0.4884  0.3440 -0.3602
  409loPI   C2B 6542  12.983   4.421   8.853  0.0854  0.0385 -0.1825
  409loPI   C3B 6543  12.856   4.085   8.419 -0.2125 -0.3053  0.3148
  409loPI   C4B 6544  12.725   3.998   7.900  0.0091 -0.0347 -0.3562
  410loPI    C1 6545   4.654  17.681   9.062 -0.1266  0.1297 -0.1732
  410loPI    C2 6546   4.489  18.035   9.149  0.1093  0.1943  0.0236
  410loPI    C3 6547   4.658  17.817   9.438 -0.0479 -0.0884 -0.0934
  410loPI   PO4 6548   4.676  17.661   8.832 -0.1491 -0.0507  0.0464
  410loPI   GL1 6549   4.623  17.526   8.454 -0.3642  0.7601  0.2752
  410loPI   GL2 6550   4.880  17.299   8.294 -0.0032  0.2459  0.0772
  410loPI   C1A 6551   4.886  17.763   8.096 -0.1291  0.2631 -0.1399
  410loPI   C2A 6552   4.882  17.671   7.668 -0.1508  0.0476  0.0162
  410loPI   C3A 6553   5.046  17.728   7.208  0.2738  0.0887 -0.2307
  410loPI   C4A 6554   5.064  17.756   6.796 -0.3454 -0.1304  0.3677
  410loPI   C5A 6555   4.941  17.604   6.379 -0.1595 -0.0291 -0.0956
  410loPI   C6A 6556   5.054  17.704   5.900  0.5802 -0.0162 -0.0921
  410loPI   C1B 6557   4.884  17.231   7.874 -0.1691 -0.0070  0.0263
  410loPI   C2B 6558   5.007  17.261   7.364 -0.1299  0.0504 -0.3271
  410loPI   C3B 6559   4.982  17.342   6.952  0.1633  0.2178  0.1702
  410loPI   C4B 6560   5.209  17.191   6.528  0.1109 -0.2252  0.1597
  411loPI    C1 6561  15.385   8.313   9.610  0.0318 -0.0630  0.1221
  411loPI    C2 6562  15.471   8.449   9.977  0.1116 -0.0703  0.1063
  411loPI    C3 6563  15.090   8.412   9.861  0.0883  0.0943  0.1278
  411loPI   PO4 6564  15.447   8.404   9.477  0.0258  0.4771 -0.3321
  411loPI   GL1 6565  15.740   8.367   9.243 -0.1334 -0.1658 -0.1160
  411loPI   GL2 6566  15.838   8.085   9.384  0.1570  0.1661 -0.4590
  411loPI   C1A 6567  15.890   8.338   8.821 -0.2329  0.0864 -0.0472
  411loPI   C2A 6568  15.982   8.315   8.292 -0.0766  0.0953 -0.1857
  411loPI   C3A 6569  15.989   8.438   7.830 -0.4730  0.0440 -0.0181
  411loPI   C4A 6570  15.867   8.439   7.406 -0.1857 -0.1048  0.1809
  411loPI   C5A 6571  15.654   8.161   7.134 -0.0692 -0.0947 -0.2834
  411loPI   C6A 6572  15.682   7.790   7.166 -0.2139 -0.0961 -0.0612
  411loPI   C1B 6573  15.805   7.904   9.010  0.4352  0.1248 -0.0432
  411loPI   C2B 6574  15.675   7.874   8.584  0.1672  0.0933  0.3068
  411loPI   C3B 6575  15.632   7.879   8.134 -0.3313  0.0838 -0.2542
  411loPI   C4B 6576  15.680   8.083   7.760  0.2466  0.0227  0.0673
  412loPI    C1 6577   4.693  19.405   9.220  0.0998 -0.0199 -0.1581
  412loPI    C2 6578   4.482  19.597   9.502  0.2619  0.2910 -0.2431
  412loPI    C3 6579   4.785  19.358   9.607 -0.1894 -0.2468 -0.1131
  412loPI   PO4 6580   4.635  19.604   9.035 -0.4158 -0.2478  0.1894
  412loPI   GL1 6581   4.304  19.825   8.779 -0.1120  0.4969  0.3329
  412loPI   GL2 6582   4.126  19.793   8.582 -0.2196 -0.1726 -0.1442
  412loPI   C1A 6583   4.500  19.906   8.264 -0.0241 -0.1489  0.1468
  412loPI   C2A 6584   4.198  19.977   7.887  0.1638 -0.1092  0.2482
  412loPI   C3A 6585   4.120  19.893   7.431  0.4307 -0.2843 -0.1931
  412loPI   C4A 6586   3.997  19.886   6.952  0.1855  0.2358 -0.0380
  412loPI   C5A 6587   4.277  19.915   6.634  0.0959  0.1961  0.3365
  412loPI   C6A 6588   4.571  20.316   6.629  0.2007  0.2843 -0.0604
  412loPI   C1B 6589   3.984  19.664   8.169  0.1695  0.0806 -0.1258
  412loPI   C2B 6590   3.783  19.706   7.762  0.0698 -0.1222 -0.2544
  412loPI   C3B 6591   3.712  19.673   7.289  0.1544  0.0506 -0.1646
  412loPI   C4B 6592   3.761  19.456   6.867 -0.1720 -0.1209  0.1729
  413loPI    C1 6593   6.738  11.697   9.501  0.2351  0.2194  0.0071
  413loPI    C2 6594   6.654  11.923   9.820 -0.0020 -0.0468  0.1386
  413loPI    C3 6595   6.908  11.616   9.854  0.0843  0.0126  0.0348
  413loPI   PO4 6596   6.577  11.762   9.286 -0.1774  0.1244  0.4376
  413loPI   GL1 6597   6.440  11.711   8.983  0.4193  0.0440 -0.2442
  413loPI   GL2 6598   6.310  11.411   8.918 -0.0381 -0.0922  0.2852
  413loPI   C1A 6599   6.614  11.755   8.617  0.0079 -0.0936 -0.1196
  413loPI   C2A 6600   6.621  11.842   8.195  0.6284  0.0870 -0.0673
  413loPI   C3A 6601   6.849  11.948   7.854  0.1005  0.0204 -0.0349
  413loPI   C4A 6602   6.874  12.060   7.472  0.0415  0.4019  0.1322
  413loPI   C5A 6603   6.970  12.053   7.050  0.5274  0.1821  0.0309
  413loPI   C6A 6604   6.824  12.150   6.637 -0.1928  0.1469 -0.1026
  413loPI   C1B 6605   6.322  11.465   8.379  0.4042 -0.5337  0.0460
  413loPI   C2B 6606   6.346  11.530   7.928 -0.1490 -0.1648 -0.1503
  413loPI   C3B 6607   6.399  11.282   7.626 -0.0646 -0.2571 -0.0353
  413loPI   C4B 6608   6.404  11.348   7.157  0.0798  0.2038  0.0888
  414loPI    C1 6609  13.629   2.864  10.225  0.2517 -0.0316  0.0768
  414loPI    C2 6610  13.488   2.915  10.595 -0.1778 -0.6077  0.0055
  414loPI    C3 6611  13.857   2.770  10.540  0.0886 -0.0312  0.1957
  414loPI   PO4 6612  13.527   3.064  10.092 -0.0072 -0.2038 -0.0063
  414loPI   GL1 6613  13.524   3.201   9.640  0.0416 -0.1711 -0.1467
  414loPI   GL2 6614  13.765   3.231   9.554 -0.2784 -0.1981 -0.1971
  414loPI   C1A 6615  13.292   3.073   9.229 -0.2064  0.2909 -0.1047
  414loPI   C2A 6616  13.340   3.156   8.851  0.2007  0.1564  0.0047
  414loPI   C3A 6617  13.499   3.196   8.420 -0.0697  0.1060 -0.1966
  414loPI   C4A 6618  13.601   3.281   7.947  0.3966 -0.1759 -0.0492
  414loPI   C5A 6619  13.532   3.238   7.481 -0.0809  0.2091  0.3152
  414loPI   C6A 6620  13.384   2.953   7.228 -0.1519 -0.2609 -0.3657
  414loPI   C1B 6621  13.824   3.229   9.111  0.1221 -0.3508 -0.0995
  414loPI   C2B 6622  13.946   3.107   8.652  0.1986  0.1498 -0.0687
  414loPI   C3B 6623  13.970   3.038   8.299  0.3599 -0.1335  0.0465
  414loPI   C4B 6624  14.169   3.106   8.007  0.0110 -0.2183 -0.0210
  415loPI    C1 6625  10.216   1.987   9.369 -0.2070 -0.2522  0.3072
  415loPI    C2 6626   9.971   2.129   9.651 -0.1031 -0.0555  0.2998
  415loPI    C3 6627  10.365   2.118   9.716 -0.0816 -0.0390  0.1748
  415loPI   PO4 6628  10.137   1.788   9.266 -0.0426 -0.0934  0.0334
  415loPI   GL1 6629   9.857   1.765   8.933  0.1158  0.4002 -0.0951
  415loPI   GL2 6630   9.742   2.009   9.113 -0.3215  0.2538  0.0804
  415loPI   C1A 6631  10.027   1.685   8.563 -0.0697  0.1770 -0.2791
  415loPI   C2A 6632  10.178   1.817   8.077 -0.2819  0.1621  0.0334
  415loPI   C3A 6633  10.206   1.897   7.643 -0.0984 -0.0472  0.0033
  415loPI   C4A 6634  10.205   1.686   7.201  0.0507 -0.2770  0.1365
  415loPI   C5A 6635  10.562   1.663   7.084 -0.0209  0.1617  0.0778
  415loPI   C6A 6636  10.731   1.610   6.758 -0.3181  0.1986 -0.1682
  415loPI   C1B 6637   9.587   2.047   8.623 -0.0385 -0.2293 -0.0417
  415loPI   C2B 6638   9.662   2.026   8.189 -0.2880  0.0931 -0.0710
  415loPI   C3B 6639   9.630   1.999   7.847  0.1268  0.1359  0.0272
  415loPI   C4B 6640   9.442   2.031   7.479 -0.1779  0.1930  0.1000
  416loPI    C1 6641  15.339  11.542  10.003 -0.1381 -0.2854 -0.0826
  416loPI    C2 6642  15.013  11.747  10.113 -0.0950 -0.1791 -0.1521
  416loPI    C3 6643  15.128  11.427  10.323 -0.0090  0.0258  0.1192
  416loPI   PO4 6644  15.344  11.545   9.655 -0.2658  0.2117  0.1740
  416loPI   GL1 6645  15.413  11.470   9.277 -0.0441  0.1622  0.1037
  416loPI   GL2 6646  15.192  11.118   9.202  0.2944  0.0411 -0.1121
  416loPI   C1A 6647  15.564  11.354   8.891  0.0097 -0.0798 -0.0399
  416loPI   C2A 6648  15.508  11.264   8.435 -0.0405  0.2876  0.0238
  416loPI   C3A 6649  15.429  11.146   7.925  0.1055 -0.2869  0.1243
  416loPI   C4A 6650  15.370  11.139   7.500  0.3636  0.1898 -0.3946
  416loPI   C5A 6651  15.485  10.913   7.064 -0.0995 -0.2412  0.0898
  416loPI   C6A 6652  15.741  10.536   6.816 -0.3191 -0.1448 -0.1832
  416loPI   C1B 6653  15.233  10.998   8.724  0.1146  0.1520 -0.4142
  416loPI   C2B 6654  15.282  10.807   8.306  0.1279 -0.0740 -0.3896
  416loPI   C3B 6655  15.186  10.779   7.764 -0.0836  0.1316  0.3774
  416loPI   C4B 6656  15.179  10.688   7.422 -0.0492 -0.0659 -0.1487
  417loPI    C1 6657   6.609   4.019   9.305  0.0187  0.0282 -0.0134
  417loPI    C2 6658   6.566   4.306   9.580  0.1043 -0.0937  0.1286
  417loPI    C3 6659   6.834   4.015   9.635 -0.0041 -0.2195  0.0005
  417loPI   PO4 6660   6.700   4.204   9.085 -0.0022 -0.1906 -0.2521
  417loPI   GL1 6661   6.496   4.563   8.794  0.1788  0.2850  0.1301
  417loPI   GL2 6662   6.497   4.784   8.642  0.2564 -0.0638  0.0889
  417loPI   C1A 6663   6.555   4.333   8.469 -0.4473 -0.2439  0.0143
  417loPI   C2A 6664   6.545   4.493   7.982  0.2075  0.2345  0.2122
  417loPI   C3A 6665   6.553   4.602   7.580  0.0654 -0.2856  0.0443
  417loPI   C4A 6666   6.628   4.559   7.152  0.2586  0.2430 -0.1373
  417loPI   C5A 6667   6.443   4.627   6.745  0.0823  0.1633 -0.4125
  417loPI   C6A 6668   6.064   4.684   6.535  0.2706 -0.1185  0.0540
  417loPI   C1B 6669   6.124   4.773   8.349 -0.2098  0.0790 -0.3813
  417loPI   C2B 6670   6.161   4.865   7.909 -0.0650  0.3712  0.0646
  417loPI   C3B 6671   5.931   4.694   7.584 -0.0551 -0.2418 -0.0943
  417loPI   C4B 6672   5.769   4.695   7.211  0.2066 -0.2223  0.1233
  418loPI    C1 6673   5.537  10.435   9.434 -0.0250  0.0977  0.3156
  418loPI    C2 6674   5.576  10.043   9.503  0.1340  0.0954  0.2175
  418loPI    C3 6675   5.374  10.273   9.761  0.1663 -0.0252  0.3516
  418loPI   PO4 6676   5.468  10.407   9.180 -0.0478  0.1840  0.0432
  418loPI   GL1 6677   5.294  10.434   8.763 -0.0734 -0.3956 -0.1543
  418loPI   GL2 6678   5.296  10.740   8.630 -0.3140  0.0874  0.0466
  418loPI   C1A 6679   5.575  10.143   8.438 -0.1453 -0.3253  0.3174
  418loPI   C2A 6680   5.779   9.938   8.086 -0.0128  0.0866  0.1880
  418loPI   C3A 6681   5.741   9.573   7.842  0.1683 -0.0084  0.3426
  418loPI   C4A 6682   5.676   9.579   7.393  0.3551 -0.0501 -0.2748
  418loPI   C5A 6683   6.027   9.586   7.135  0.1760  0.0257  0.1058
  418loPI   C6A 6684   6.397   9.699   6.863  0.1340 -0.2784 -0.3085
  418loPI   C1B 6685   5.318  10.568   8.207  0.1558  0.0858 -0.0027
  418loPI   C2B 6686   5.271  10.141   7.985 -0.2640  0.0947 -0.1031
  418loPI   C3B 6687   5.559  10.036   7.591 -0.1703  0.1038  0.1068
  418loPI   C4B 6688   5.991   9.985   7.596 -0.0147 -0.0515  0.0591
  419loPI    C1 6689   1.435  10.005   9.303 -0.2567 -0.1141  0.1373
  419loPI    C2 6690   1.594   9.678   9.470  0.0935  0.0662  0.1680
  419loPI    C3 6691   1.586  10.022   9.674 -0.2194  0.0942  0.1138
  419loPI   PO4 6692   1.278   9.976   8.942 -0.3369  0.1529  0.0066
  419loPI   GL1 6693   1.389   9.706   8.513 -0.0104 -0.0255  0.2137
  419loPI   GL2 6694   1.544   9.962   8.347  0.0140 -0.0101  0.0453
  419loPI   C1A 6695   1.286   9.713   8.051 -0.2516  0.1866  0.2837
  419loPI   C2A 6696   1.228   9.640   7.601 -0.1467  0.3530  0.3798
  419loPI   C3A 6697   1.353   9.450   7.256  0.0816  0.2096  0.0397
  419loPI   C4A 6698   1.339   9.632   6.752 -0.0313 -0.4249  0.0254
  419loPI   C5A 6699   1.713   9.853   6.572 -0.2540 -0.1534 -0.0480
  419loPI   C6A 6700   1.881  10.239   6.635  0.1956 -0.0291 -0.0186
  419loPI   C1B 6701   1.860  10.058   8.122  0.1718 -0.4010  0.1459
  419loPI   C2B 6702   2.045  10.253   7.770  0.0906 -0.3168 -0.0793
  419loPI   C3B 6703   2.119  10.298   7.424  0.0273  0.0276  0.0386
  419loPI   C4B 6704   2.245  10.499   7.026 -0.0717 -0.1314 -0.1901
  420loPI    C1 6705   1.251   6.296   8.971 -0.0226  0.1179  0.0771
  420loPI    C2 6706   1.495   6.171   9.262 -0.0925 -0.0808  0.0515
  420loPI    C3 6707   1.101   6.189   9.325 -0.1137 -0.1810 -0.0490
  420loPI   PO4 6708   1.266   6.133   8.729 -0.4668  0.0057  0.0779
  420loPI   GL1 6709   1.212   5.685   8.516 -0.0411 -0.0594  0.0278
  420loPI   GL2 6710   1.477   5.807   8.373  0.4126  0.2507 -0.1557
  420loPI   C1A 6711   1.066   5.647   8.098 -0.2441 -0.0521 -0.1778
  420loPI   C2A 6712   1.067   5.525   7.682  0.0435 -0.1854  0.1556
  420loPI   C3A 6713   1.271   5.534   7.255 -0.0535  0.1577  0.3560
  420loPI   C4A 6714   0.971   5.437   6.789 -0.0273  0.0054  0.0795
  420loPI   C5A 6715   0.625   5.459   6.915  0.0278  0.2274 -0.0790
  420loPI   C6A 6716   0.433   5.245   7.365 -0.5353  0.2556  0.0676
  420loPI   C1B 6717   1.494   5.927   7.946  0.0949  0.0960  0.5001
  420loPI   C2B 6718   1.685   5.934   7.536 -0.0795  0.0923 -0.0084
  420loPI   C3B 6719   1.726   5.910   7.090 -0.2810  0.0384 -0.1239
  420loPI   C4B 6720   1.778   6.056   6.756 -0.2535 -0.0305  0.3796
  421loPI    C1 6721   7.947   0.243   9.406 -0.3805  0.2306 -0.0737
  421loPI    C2 6722   8.113  -0.080   9.237 -0.2626  0.3852 -0.2576
  421loPI    C3 6723   7.868  -0.122   9.550  0.0038  0.1414 -0.0762
  421loPI   PO4 6724   7.906   0.448   9.198 -0.1308 -0.0478 -0.0349
  421loPI   GL1 6725   7.998   0.519   8.780  0.0670  0.0939  0.1916
  421loPI   GL2 6726   7.814   0.173   8.776 -0.1252  0.4374 -0.2081
  421loPI   C1A 6727   8.091   0.561   8.391 -0.2101 -0.0613  0.0068
  421loPI   C2A 6728   8.179   0.742   7.993  0.1336  0.0326  0.0108
  421loPI   C3A 6729   8.141   0.837   7.654 -0.5678  0.0899  0.1968
  421loPI   C4A 6730   8.132   1.104   7.225  0.3344  0.1036 -0.1785
  421loPI   C5A 6731   8.023   0.906   6.850  0.1577 -0.2791 -0.0392
  421loPI   C6A 6732   7.753   0.666   6.649 -0.1257 -0.0979 -0.6837
  421loPI   C1B 6733   7.840   0.073   8.479 -0.2710  0.1627 -0.0947
  421loPI   C2B 6734   7.964   0.218   8.067 -0.2954 -0.0854 -0.0701
  421loPI   C3B 6735   7.972   0.364   7.689  0.3232  0.0012 -0.1283
  421loPI   C4B 6736   7.936   0.529   7.216 -0.0933 -0.3737  0.2074
  422loPI    C1 6737   3.218   4.658   9.205 -0.1289  0.3901  0.2849
  422loPI    C2 6738   3.052   4.308   9.303 -0.1144  0.2958 -0.0157
  422loPI    C3 6739   3.233   4.529   9.583  0.1629 -0.0898  0.1185
  422loPI   PO4 6740   3.245   4.620   8.900 -0.1242  0.3233 -0.2645
  422loPI   GL1 6741   2.933   4.830   8.567  0.1080  0.0158 -0.1121
  422loPI   GL2 6742   2.702   4.791   8.465 -0.0466 -0.0184 -0.3540
  422loPI   C1A 6743   3.059   4.435   8.326 -0.0725 -0.0729  0.2558
  422loPI   C2A 6744   2.931   4.514   8.007 -0.0531 -0.1519 -0.2778
  422loPI   C3A 6745   2.903   4.369   7.628 -0.1224 -0.1848  0.1553
  422loPI   C4A 6746   2.900   4.365   7.229  0.1286 -0.0136  0.2161
  422loPI   C5A 6747   2.949   4.250   6.779  0.0972 -0.3434 -0.2121
  422loPI   C6A 6748   2.867   4.111   6.369  0.2456  0.0352  0.1680
  422loPI   C1B 6749   2.487   5.023   8.142 -0.0796  0.1450  0.1444
  422loPI   C2B 6750   2.248   5.229   7.872 -0.1036 -0.0701  0.1931
  422loPI   C3B 6751   2.060   5.625   7.812 -0.1385 -0.0286  0.1155
  422loPI   C4B 6752   1.986   5.816   8.115  0.2429  0.1800 -0.1842
  423loPI    C1 6753  11.302  16.854   9.368 -0.0613  0.3362  0.1804
  423loPI    C2 6754  11.357  16.531   9.597 -0.0622  0.1328 -0.1010
  423loPI    C3 6755  11.492  16.888   9.718  0.2427 -0.0322  0.0576
  423loPI   PO4 6756  11.086  16.843   9.294  0.2730  0.1871  0.1062
  423loPI   GL1 6757  11.065  16.902   8.893 -0.5656  0.2617  0.0747
  423loPI   GL2 6758  11.192  17.080   8.702  0.0325 -0.3405  0.1971
  423loPI   C1A 6759  10.954  16.589   8.642  0.0289  0.3407 -0.1191
  423loPI   C2A 6760  10.766  16.632   8.195 -0.0296  0.1649  0.0831
  423loPI   C3A 6761  10.740  16.691   7.792  0.2357 -0.0878 -0.0307
  423loPI   C4A 6762  10.687  16.712   7.335 -0.1254  0.1817  0.2491
  423loPI   C5A 6763  10.614  16.821   6.870  0.0998  0.1574 -0.4165
  423loPI   C6A 6764  10.613  16.922   6.507 -0.3395  0.1638  0.1731
  423loPI   C1B 6765  11.391  17.248   8.335 -0.2118  0.1815  0.2626
  423loPI   C2B 6766  11.418  17.291   7.881  0.0654  0.2682 -0.3494
  423loPI   C3B 6767  11.647  16.995   7.701  0.0825 -0.0289  0.0989
  423loPI   C4B 6768  11.691  16.719   7.315 -0.1102 -0.2527  0.2622
  424loPI    C1 6769  11.477  14.107   9.415 -0.2040 -0.3415  0.0833
  424loPI    C2 6770  11.366  14.379   9.686 -0.0884 -0.1741 -0.0346
  424loPI    C3 6771  11.457  14.006   9.801  0.0624 -0.0764  0.1705
  424loPI   PO4 6772  11.289  14.132   9.264 -0.3525 -0.0954 -0.1588
  424loPI   GL1 6773  10.984  14.433   9.031 -0.1326 -0.0099 -0.0630
  424loPI   GL2 6774  11.058  14.618   8.766 -0.0503 -0.0407  0.2093
  424loPI   C1A 6775  10.915  14.127   8.726  0.3408 -0.0016  0.0552
  424loPI   C2A 6776  11.219  14.103   8.348 -0.1419  0.2068  0.0167
  424loPI   C3A 6777  11.474  14.201   7.959  0.0064  0.1305  0.3159
  424loPI   C4A 6778  11.691  14.300   7.610  0.2552 -0.2339 -0.1618
  424loPI   C5A 6779  11.906  14.265   7.176  0.2155  0.1200  0.0015
  424loPI   C6A 6780  12.388  14.239   7.038  0.0172 -0.0828 -0.0985
  424loPI   C1B 6781  11.319  14.647   8.244 -0.1772  0.1259 -0.3358
  424loPI   C2B 6782  11.314  14.711   7.956  0.2555  0.2078  0.1314
  424loPI   C3B 6783  11.363  14.847   7.514  0.1904  0.0029 -0.0724
  424loPI   C4B 6784  11.675  14.749   7.219  0.0122  0.0680  0.7181
  425loPI    C1 6785  16.985  16.382   9.981 -0.0657  0.0740  0.0563
  425loPI    C2 6786  16.734  16.147  10.186 -0.0203 -0.0644 -0.0455
  425loPI    C3 6787  17.122  16.155  10.281  0.0517 -0.3394 -0.2998
  425loPI   PO4 6788  16.946  16.274   9.681 -0.2306  0.1806  0.0231
  425loPI   GL1 6789  16.759  16.352   9.312  0.0762  0.4528  0.1622
  425loPI   GL2 6790  16.516  16.478   9.341  0.0509  0.1208  0.2307
  425loPI   C1A 6791  16.928  16.263   8.898 -0.1147  0.1359  0.0331
  425loPI   C2A 6792  17.112  16.553   8.674 -0.1428  0.1790 -0.1378
  425loPI   C3A 6793  17.299  16.675   8.251 -0.0640 -0.0199 -0.0139
  425loPI   C4A 6794  17.288  16.853   7.876 -0.2477 -0.1799  0.2136
  425loPI   C5A 6795  16.965  16.742   7.469  0.1518 -0.0554  0.0573
  425loPI   C6A 6796  16.972  17.030   7.205 -0.0572  0.3559 -0.6023
  425loPI   C1B 6797  16.454  16.495   8.895  0.3012 -0.1809  0.0089
  425loPI   C2B 6798  16.686  16.479   8.385  0.2054 -0.0949 -0.1634
  425loPI   C3B 6799  16.570  16.694   8.017  0.0889 -0.1962 -0.0273
  425loPI   C4B 6800  16.437  16.684   7.583  0.0735  0.0544  0.1427
  426loPI    C1 6801   9.709  10.651   9.473  0.3297  0.0742 -0.0051
  426loPI    C2 6802   9.769  10.743   9.857 -0.1106  0.0155  0.0834
  426loPI    C3 6803   9.890  10.389   9.715 -0.0145  0.0067  0.1853
  426loPI   PO4 6804   9.792  10.771   9.311  0.3305  0.3115 -0.2261
  426loPI   GL1 6805   9.871  10.821   8.807  0.2361 -0.2220  0.1649
  426loPI   GL2 6806   9.781  10.493   8.754 -0.1497  0.2092  0.2080
  426loPI   C1A 6807   9.751  10.961   8.432  0.3417 -0.1544 -0.1981
  426loPI   C2A 6808  10.022  11.052   8.090 -0.3049  0.2169  0.2180
  426loPI   C3A 6809  10.057  11.388   7.777  0.0537 -0.2164  0.2877
  426loPI   C4A 6810  10.217  11.245   7.359 -0.0709 -0.1348  0.0380
  426loPI   C5A 6811  10.175  11.205   6.962  0.1382  0.1819 -0.2285
  426loPI   C6A 6812  10.319  10.898   6.688 -0.1260 -0.1462 -0.2457
  426loPI   C1B 6813  10.097  10.559   8.444 -0.1282 -0.1979  0.3206
  426loPI   C2B 6814   9.983  10.586   7.897 -0.0192  0.1091 -0.1545
  426loPI   C3B 6815  10.147  10.605   7.580  0.1529  0.0255  0.0519
  426loPI   C4B 6816  10.035  10.767   7.201 -0.0859 -0.2413  0.2244
  427loPI    C1 6817  16.969  10.927   9.824 -0.0769 -0.2235 -0.0717
  427loPI    C2 6818  16.824  11.292   9.900  0.0299 -0.1933 -0.0105
  427loPI    C3 6819  17.169  11.176  10.065  0.0801 -0.2615 -0.1615
  427loPI   PO4 6820  16.958  10.953   9.545  0.2017 -0.1453 -0.1411
  427loPI   GL1 6821  17.347  11.177   9.182 -0.2874  0.1283 -0.1547
  427loPI   GL2 6822  17.093  11.335   9.213  0.2643 -0.1604  0.0464
  427loPI   C1A 6823  17.392  10.969   8.750  0.2920 -0.0088  0.1684
  427loPI   C2A 6824  17.323  10.900   8.267  0.3712 -0.0230 -0.1928
  427loPI   C3A 6825  17.233  10.941   7.771 -0.1852 -0.3821 -0.0436
  427loPI   C4A 6826  17.094  10.786   7.407 -0.0025  0.2861 -0.4004
  427loPI   C5A 6827  16.649  10.743   7.224 -0.3803  0.0766 -0.2877
  427loPI   C6A 6828  16.330  10.844   6.925  0.0097 -0.4844  0.3668
  427loPI   C1B 6829  16.906  11.444   8.772 -0.3219 -0.1121 -0.3685
  427loPI   C2B 6830  16.988  11.254   8.400 -0.0187  0.0357  0.0217
  427loPI   C3B 6831  16.917  11.281   8.052  0.1166  0.4002 -0.3181
  427loPI   C4B 6832  16.828  11.234   7.547  0.3584  0.0516 -0.0432
  428loPI    C1 6833  11.142   2.504   9.728 -0.2558  0.0864 -0.1179
  428loPI    C2 6834  11.357   2.727   9.982  0.0635 -0.0824 -0.2333
  428loPI    C3 6835  10.981   2.625  10.074  0.0408  0.1875 -0.0116
  428loPI   PO4 6836  11.423   2.539   9.538  0.0351 -0.0510  0.1966
  428loPI   GL1 6837  11.497   2.565   9.122 -0.1200 -0.1467  0.0680
  428loPI   GL2 6838  11.507   2.754   9.038 -0.0721 -0.2120  0.1372
  428loPI   C1A 6839  11.788   2.340   8.883 -0.1425  0.0720  0.0688
  428loPI   C2A 6840  11.723   2.181   8.327 -0.2626  0.2535 -0.2978
  428loPI   C3A 6841  11.297   2.162   8.157 -0.1724 -0.0229 -0.2335
  428loPI   C4A 6842  11.067   2.083   7.749 -0.1109  0.0621  0.0722
  428loPI   C5A 6843  11.114   2.224   7.294 -0.1491 -0.0162  0.0334
  428loPI   C6A 6844  10.902   2.079   6.918 -0.0544 -0.1199  0.2931
  428loPI   C1B 6845  11.491   2.682   8.576  0.1127  0.3336  0.1243
  428loPI   C2B 6846  11.486   2.584   8.273  0.3668 -0.1093 -0.2671
  428loPI   C3B 6847  11.324   2.537   7.747 -0.0473 -0.0402 -0.0519
  428loPI   C4B 6848  11.227   2.783   7.344 -0.0640 -0.2877  0.2074
  429loPI    C1 6849  10.101  18.820   9.557 -0.0073  0.0082  0.2006
  429loPI    C2 6850   9.714  18.878   9.637 -0.0197  0.1315  0.0562
  429loPI    C3 6851   9.948  18.696   9.905 -0.1722  0.0756  0.1532
  429loPI   PO4 6852  10.099  18.812   9.199  0.0089 -0.0086 -0.1408
  429loPI   GL1 6853  10.008  19.029   8.876 -0.1628  0.0720  0.3221
  429loPI   GL2 6854  10.063  19.196   8.647 -0.0675 -0.2028 -0.1516
  429loPI   C1A 6855   9.923  18.681   8.530 -0.1708 -0.0571 -0.1108
  429loPI   C2A 6856   9.828  18.735   8.147 -0.0780  0.0122  0.2885
  429loPI   C3A 6857   9.845  18.742   7.647  0.0040 -0.0308  0.0237
  429loPI   C4A 6858   9.839  18.823   7.172  0.1423 -0.0130 -0.0960
  429loPI   C5A 6859   9.605  18.967   6.839 -0.2142  0.2124  0.1167
  429loPI   C6A 6860   9.579  18.773   6.454 -0.1029 -0.1535 -0.0592
  429loPI   C1B 6861  10.031  19.240   8.220 -0.1267  0.1210  0.1583
  429loPI   C2B 6862  10.204  19.360   7.916 -0.1025 -0.3272  0.0334
  429loPI   C3B 6863  10.352  19.482   7.488 -0.1352 -0.0796 -0.2114
  429loPI   C4B 6864  10.475  19.662   7.103  0.1080 -0.0262  0.0272
  430loPI    C1 6865   8.863   7.360   9.332 -0.0756  0.1046  0.0927
  430loPI    C2 6866   8.868   7.416   9.728  0.0925 -0.0487  0.1137
  430loPI    C3 6867   8.555   7.540   9.512 -0.0925 -0.1474  0.3220
  430loPI   PO4 6868   9.062   7.406   9.210 -0.1549 -0.1264  0.0689
  430loPI   GL1 6869   9.224   7.416   8.817  0.1256 -0.0812  0.0940
  430loPI   GL2 6870   9.620   7.276   8.699 -0.1709  0.0678  0.0820
  430loPI   C1A 6871   9.182   7.293   8.461  0.0121  0.2358  0.1969
  430loPI   C2A 6872   9.197   7.189   7.998  0.6098 -0.2219 -0.1699
  430loPI   C3A 6873   9.094   7.012   7.622  0.4390  0.0359 -0.0297
  430loPI   C4A 6874   8.916   6.876   7.299  0.1581  0.1380  0.0805
  430loPI   C5A 6875   8.762   7.186   6.992  0.1636  0.0518 -0.0650
  430loPI   C6A 6876   8.462   7.430   6.924 -0.0275  0.1089  0.0516
  430loPI   C1B 6877   9.654   7.204   8.236  0.5620  0.0311 -0.2817
  430loPI   C2B 6878   9.686   7.208   7.797 -0.0461 -0.1744  0.1204
  430loPI   C3B 6879   9.479   7.100   7.362 -0.1176  0.0543 -0.2122
  430loPI   C4B 6880   9.213   7.351   7.080 -0.2082 -0.0742  0.0022
  431loPI    C1 6881  17.715   3.989   9.553 -0.0127 -0.3072  0.0323
  431loPI    C2 6882  18.104   4.038   9.470 -0.0851 -0.2260 -0.2717
  431loPI    C3 6883  17.939   4.228   9.782  0.1543 -0.3938 -0.0387
  431loPI   PO4 6884  17.618   4.039   9.295 -0.0707  0.0312 -0.0767
  431loPI   GL1 6885  17.836   4.136   8.951 -0.3415  0.0563  0.0503
  431loPI   GL2 6886  18.080   4.093   8.651 -0.0073 -0.0895 -0.0111
  431loPI   C1A 6887  17.588   3.972   8.590 -0.1958  0.0909 -0.0101
  431loPI   C2A 6888  17.440   3.786   8.170  0.0589  0.3167  0.2760
  431loPI   C3A 6889  17.389   3.732   7.709 -0.0322 -0.3895 -0.3052
  431loPI   C4A 6890  17.005   3.917   7.422 -0.0667 -0.2285  0.3269
  431loPI   C5A 6891  16.705   4.172   7.244 -0.0899  0.2201  0.0084
  431loPI   C6A 6892  16.404   4.549   7.376  0.2028 -0.2783 -0.1647
  431loPI   C1B 6893  17.958   3.952   8.279 -0.1109  0.0129  0.3045
  431loPI   C2B 6894  17.908   3.872   7.803 -0.1646  0.2452  0.0141
  431loPI   C3B 6895  17.866   4.100   7.503  0.0569  0.3965 -0.2546
  431loPI   C4B 6896  18.182   4.272   7.174 -0.0777  0.0300  0.2072
  432loPI    C1 6897  10.779  10.474   9.400  0.4169  0.2468 -0.0671
  432loPI    C2 6898  10.864  10.107   9.535  0.0233  0.1554 -0.0558
  432loPI    C3 6899  10.846  10.415   9.790  0.0059  0.1177 -0.0115
  432loPI   PO4 6900  10.681  10.442   9.134  0.0674  0.2253  0.1642
  432loPI   GL1 6901  10.647  10.270   8.773  0.0823 -0.0669 -0.1445
  432loPI   GL2 6902  10.523  10.562   8.681 -0.0485 -0.0594 -0.2961
  432loPI   C1A 6903  11.047  10.381   8.434 -0.0329  0.0993  0.3918
  432loPI   C2A 6904  11.327  10.401   8.137 -0.2449 -0.2196 -0.1214
  432loPI   C3A 6905  11.371  10.620   7.673 -0.0736 -0.2891 -0.1105
  432loPI   C4A 6906  11.511  10.803   7.313  0.1430 -0.0475  0.0844
  432loPI   C5A 6907  11.452  11.093   6.989 -0.1379  0.0057 -0.1723
  432loPI   C6A 6908  11.176  11.454   7.078  0.1688 -0.0414  0.0222
  432loPI   C1B 6909  10.595  10.567   8.294 -0.1284  0.1720  0.0552
  432loPI   C2B 6910  10.889  10.580   7.939  0.1150 -0.2055 -0.0070
  432loPI   C3B 6911  10.951  10.470   7.491 -0.0709 -0.0175 -0.0287
  432loPI   C4B 6912  11.059  10.439   7.142 -0.5851 -0.0803  0.0064
  433loPI    C1 6913  11.907   6.764   9.527  0.0578  0.0755  0.0954
  433loPI    C2 6914  12.241   6.898   9.701 -0.0051  0.2865  0.0564
  433loPI    C3 6915  11.912   7.125   9.699 -0.0095  0.2820 -0.3237
  433loPI   PO4 6916  12.019   6.662   9.342  0.3914  0.1086 -0.0473
  433loPI   GL1 6917  12.157   6.398   9.111 -0.0517 -0.1459 -0.1905
  433loPI   GL2 6918  11.993   6.147   9.048  0.0609  0.5377 -0.0081
  433loPI   C1A 6919  12.202   6.573   8.697 -0.0834  0.1060 -0.2074
  433loPI   C2A 6920  12.198   6.530   8.287  0.3318  0.3270  0.1038
  433loPI   C3A 6921  12.454   6.504   8.046 -0.1371  0.2081 -0.0898
  433loPI   C4A 6922  12.689   6.520   7.691  0.1510 -0.1583 -0.0028
  433loPI   C5A 6923  12.473   6.597   7.316 -0.2741 -0.2663 -0.3039
  433loPI   C6A 6924  12.487   6.459   6.884 -0.0375 -0.0045  0.0775
  433loPI   C1B 6925  11.827   6.194   8.643  0.0556  0.1933  0.0207
  433loPI   C2B 6926  11.801   6.150   8.191  0.2755 -0.2117 -0.4560
  433loPI   C3B 6927  12.036   6.331   7.853 -0.2155  0.2604 -0.1476
  433loPI   C4B 6928  12.245   6.266   7.565  0.2148 -0.0782 -0.0081
  434loPI    C1 6929  19.893   4.051   9.116  0.0111  0.1113 -0.0669
  434loPI    C2 6930  20.195   3.790   9.141 -0.0260  0.0644 -0.1100
  434loPI    C3 6931  19.958   3.852   9.457 -0.0536  0.0015 -0.1182
  434loPI   PO4 6932  19.985   4.162   8.992  0.1467  0.1756 -0.1074
  434loPI   GL1 6933  19.981   4.475   8.643  0.0793  0.2382 -0.2642
  434loPI   GL2 6934  20.156   4.724   8.648 -0.1761  0.0185  0.0783
  434loPI   C1A 6935  19.786   4.688   8.275 -0.1326 -0.0094 -0.1690
  434loPI   C2A 6936  20.083   4.886   8.024  0.2648 -0.3480 -0.4749
  434loPI   C3A 6937  20.203   5.233   7.877  0.2993  0.1369 -0.0806
  434loPI   C4A 6938  20.512   5.615   7.752 -0.0172 -0.0676  0.3209
  434loPI   C5A 6939  20.634   5.775   7.340  0.1181 -0.2750 -0.2587
  434loPI   C6A 6940  20.755   5.978   6.924  0.3080  0.1386  0.1814
  434loPI   C1B 6941  20.458   4.653   8.309 -0.2061  0.0051  0.3275
  434loPI   C2B 6942  20.466   4.673   7.830 -0.0047  0.0833  0.1497
  434loPI   C3B 6943  20.463   4.677   7.351 -0.0834  0.5299 -0.0617
  434loPI   C4B 6944  20.663   4.458   6.899 -0.0771  0.3520  0.4196
  435loPI    C1 6945   2.367  11.244   9.331  0.0136  0.0066  0.0831
  435loPI    C2 6946   2.053  11.044   9.477 -0.0315  0.1087  0.1270
  435loPI    C3 6947   2.408  11.019   9.659 -0.0093 -0.0208  0.0672
  435loPI   PO4 6948   2.181  11.225   9.009 -0.3275  0.0764  0.1236
  435loPI   GL1 6949   2.075  11.282   8.612 -0.1887 -0.0131 -0.0118
  435loPI   GL2 6950   2.291  11.520   8.555  0.2614 -0.0781  0.1259
  435loPI   C1A 6951   2.169  10.970   8.381 -0.1729  0.2181  0.1098
  435loPI   C2A 6952   2.287  10.845   8.019  0.0918  0.1070  0.1042
  435loPI   C3A 6953   2.111  10.850   7.662 -0.2285 -0.1547 -0.0461
  435loPI   C4A 6954   1.892  10.834   7.295  0.3376  0.1166  0.2108
  435loPI   C5A 6955   1.757  10.638   6.939  0.0539 -0.0772  0.3107
  435loPI   C6A 6956   1.414  10.243   6.845 -0.2940 -0.0087  0.0035
  435loPI   C1B 6957   2.142  11.374   8.086  0.1834  0.0015  0.0407
  435loPI   C2B 6958   2.122  11.411   7.698  0.1017  0.0786  0.2810
  435loPI   C3B 6959   1.989  11.314   7.316 -0.0057 -0.2915 -0.0486
  435loPI   C4B 6960   1.833  11.280   6.996 -0.1444 -0.0956 -0.1528
  436loPI    C1 6961   8.862  19.555   9.251 -0.2990 -0.1016  0.3864
  436loPI    C2 6962   8.991  19.882   9.442 -0.3293 -0.0515  0.3216
  436loPI    C3 6963   8.975  19.531   9.634  0.2493 -0.1366  0.2305
  436loPI   PO4 6964   8.544  19.500   9.189  0.1916  0.0338 -0.0126
  436loPI   GL1 6965   8.385  19.600   8.864 -0.1578  0.2302  0.2656
  436loPI   GL2 6966   8.247  19.927   8.753 -0.4442  0.1682  0.1778
  436loPI   C1A 6967   8.637  19.391   8.541 -0.2605  0.0804 -0.0542
  436loPI   C2A 6968   8.665  19.332   8.184  0.1433  0.1061 -0.0707
  436loPI   C3A 6969   8.662  19.431   7.796 -0.2337 -0.0615 -0.0478
  436loPI   C4A 6970   8.759  19.555   7.452  0.0988  0.1594  0.2048
  436loPI   C5A 6971   8.875  19.547   7.044 -0.0123 -0.1154 -0.1272
  436loPI   C6A 6972   8.614  19.532   6.748 -0.0383  0.4527 -0.2353
  436loPI   C1B 6973   8.298  19.790   8.280 -0.2647  0.2606 -0.1319
  436loPI   C2B 6974   8.259  19.760   7.816 -0.1899  0.2101  0.5609
  436loPI   C3B 6975   8.286  19.959   7.415 -0.1242  0.0983  0.0154
  436loPI   C4B 6976   8.523  19.972   6.985 -0.0751 -0.0343 -0.1464
  437loPI    C1 6977  18.630  18.695   9.756  0.2197  0.0214  0.1284
  437loPI    C2 6978  18.441  18.604  10.097  0.0838 -0.1798  0.0012
  437loPI    C3 6979  18.838  18.567  10.073  0.0668 -0.4135  0.0592
  437loPI   PO4 6980  18.435  18.476   9.486  0.1377  0.3138 -0.0489
  437loPI   GL1 6981  18.586  18.180   9.125  0.0633  0.1920 -0.1779
  437loPI   GL2 6982  18.915  18.278   8.897 -0.0758 -0.0189 -0.0963
  437loPI   C1A 6983  18.497  18.166   8.644  0.0454 -0.0579 -0.3785
  437loPI   C2A 6984  18.350  18.270   8.208  0.0263 -0.0998 -0.1200
  437loPI   C3A 6985  18.492  18.096   7.888  0.0867  0.1193 -0.0249
  437loPI   C4A 6986  18.634  18.209   7.463  0.1349 -0.4757  0.2232
  437loPI   C5A 6987  18.369  18.385   7.199 -0.1369  0.1847 -0.0095
  437loPI   C6A 6988  18.200  18.686   6.956  0.0130 -0.1679  0.1253
  437loPI   C1B 6989  18.887  18.274   8.403 -0.0505  0.0425 -0.0530
  437loPI   C2B 6990  18.963  18.248   8.031  0.1151 -0.0010  0.0431
  437loPI   C3B 6991  19.197  18.413   7.749 -0.0155  0.2053  0.0551
  437loPI   C4B 6992  19.152  18.624   7.500 -0.1590  0.0610  0.0021
  438loPI    C1 6993   3.773  10.214   9.198 -0.0810 -0.0334  0.1420
  438loPI    C2 6994   4.137  10.282   9.348  0.0263  0.1212 -0.1801
  438loPI    C3 6995   3.913   9.986   9.496  0.2993 -0.0040 -0.0080
  438loPI   PO4 6996   3.915  10.185   8.920 -0.2870  0.0681 -0.0159
  438loPI   GL1 6997   4.072   9.826   8.636  0.0685 -0.0158  0.0577
  438loPI   GL2 6998   4.381   9.998   8.774 -0.0757  0.0918  0.2234
  438loPI   C1A 6999   4.018   9.883   8.247 -0.4065  0.2363  0.0021
  438loPI   C2A 7000   4.000  10.056   7.793  0.3238  0.1005 -0.3653
  438loPI   C3A 7001   4.009   9.946   7.430 -0.1989  0.2229 -0.0662
  438loPI   C4A 7002   3.971   9.527   7.189 -0.3068  0.1970  0.1889
  438loPI   C5A 7003   3.682   9.396   6.881  0.1445 -0.0728 -0.1798
  438loPI   C6A 7004   3.692   9.162   6.418  0.1213 -0.1557 -0.1937
  438loPI   C1B 7005   4.287  10.303   8.418 -0.1841  0.2761 -0.2061
  438loPI   C2B 7006   4.373  10.373   8.036 -0.1623  0.1527  0.1136
  438loPI   C3B 7007   4.458  10.225   7.592 -0.0507 -0.1953 -0.1021
  438loPI   C4B 7008   4.625  10.507   7.291 -0.1928  0.2609  0.1910
  439loPI    C1 7009   7.164  17.121   8.725  0.0963 -0.1171  0.0274
  439loPI    C2 7010   7.170  16.884   9.047  0.0386 -0.1851 -0.0215
  439loPI    C3 7011   6.923  17.198   9.035  0.1938 -0.0572  0.0891
  439loPI   PO4 7012   7.095  16.997   8.443  0.3066  0.3729  0.0018
  439loPI   GL1 7013   7.225  16.787   8.080 -0.1958 -0.2901 -0.0250
  439loPI   GL2 7014   7.494  16.784   8.071  0.5517 -0.1159  0.2148
  439loPI   C1A 7015   7.037  16.477   7.787 -0.3430 -0.4615  0.0876
  439loPI   C2A 7016   7.134  16.415   7.333 -0.0083 -0.0669 -0.3544
  439loPI   C3A 7017   7.343  16.469   6.927  0.1168 -0.2618 -0.3565
  439loPI   C4A 7018   7.324  16.317   6.649  0.0474 -0.0341  0.3345
  439loPI   C5A 7019   7.243  16.176   6.310 -0.1558  0.0036 -0.0592
  439loPI   C6A 7020   6.808  16.068   6.014 -0.0103 -0.0558 -0.1044
  439loPI   C1B 7021   7.568  16.401   7.795  0.0023 -0.2549 -0.0542
  439loPI   C2B 7022   7.881  16.072   7.549 -0.0138 -0.0575  0.1173
  439loPI   C3B 7023   7.613  16.109   7.110 -0.3116 -0.1918  0.0580
  439loPI   C4B 7024   7.204  16.000   7.028 -0.0955 -0.0930  0.4083
  440loPI    C1 7025   3.433  16.266   9.194  0.2254 -0.0388  0.0961
  440loPI    C2 7026   3.201  15.941   9.176 -0.2070  0.2762 -0.2313
  440loPI    C3 7027   3.432  16.004   9.496 -0.1994 -0.2910 -0.1153
  440loPI   PO4 7028   3.551  16.320   8.952  0.1757 -0.3020 -0.2026
  440loPI   GL1 7029   3.380  16.475   8.558  0.0895 -0.2947 -0.0210
  440loPI   GL2 7030   3.579  16.317   8.414 -0.3090  0.4007 -0.2050
  440loPI   C1A 7031   3.095  16.668   8.298 -0.0618  0.3427 -0.1076
  440loPI   C2A 7032   3.080  16.570   7.890 -0.3073  0.0774 -0.2353
  440loPI   C3A 7033   3.097  16.470   7.499  0.2602 -0.3758 -0.0654
  440loPI   C4A 7034   2.827  16.646   7.097 -0.1887  0.5002  0.2252
  440loPI   C5A 7035   2.744  16.803   6.639  0.0759  0.1330 -0.1418
  440loPI   C6A 7036   2.320  16.798   6.443  0.2050  0.0959  0.1644
  440loPI   C1B 7037   3.507  16.369   8.015 -0.0082  0.1093  0.2055
  440loPI   C2B 7038   3.592  16.338   7.587 -0.0560  0.1712 -0.0877
  440loPI   C3B 7039   3.559  16.330   7.207  0.0381 -0.0679  0.2400
  440loPI   C4B 7040   3.491  16.174   6.900 -0.1048  0.0369  0.4258
  441loPI    C1 7041  15.884   2.470   9.904  0.0368  0.3150  0.2768
  441loPI    C2 7042  16.283   2.502   9.912  0.0723 -0.0025  0.0187
  441loPI    C3 7043  16.100   2.219  10.128  0.0170 -0.0981 -0.1518
  441loPI   PO4 7044  15.807   2.629   9.820 -0.1214  0.0426  0.0936
  441loPI   GL1 7045  15.770   2.789   9.462 -0.0506 -0.0355 -0.2377
  441loPI   GL2 7046  15.570   2.617   9.409 -0.3651 -0.1777  0.0436
  441loPI   C1A 7047  15.854   2.741   8.998  0.2025 -0.0676  0.2132
  441loPI   C2A 7048  15.853   2.934   8.554 -0.1370 -0.2018 -0.0503
  441loPI   C3A 7049  15.852   2.988   8.004  0.2202 -0.0518 -0.0520
  441loPI   C4A 7050  15.665   3.071   7.594  0.1394  0.1115 -0.1177
  441loPI   C5A 7051  15.512   3.258   7.225  0.1116  0.2864  0.2030
  441loPI   C6A 7052  15.598   3.485   6.929 -0.0316  0.3851  0.0202
  441loPI   C1B 7053  15.443   2.451   9.040  0.2749 -0.0168  0.1264
  441loPI   C2B 7054  15.448   2.593   8.607  0.1571  0.1939  0.0070
  441loPI   C3B 7055  15.556   2.660   8.210  0.0809  0.1634 -0.2926
  441loPI   C4B 7056  15.504   2.628   7.723  0.2550 -0.2534  0.1229
  442loPI    C1 7057   9.446  18.041   9.284  0.0100  0.0881 -0.2043
  442loPI    C2 7058   9.464  17.646   9.219  0.1897  0.0798 -0.1106
  442loPI    C3 7059   9.192  17.795   9.471 -0.0268  0.0395 -0.3171
  442loPI   PO4 7060   9.397  18.160   9.094 -0.3209 -0.0802 -0.0044
  442loPI   GL1 7061   9.508  18.328   8.793 -0.1734 -0.0887 -0.1078
  442loPI   GL2 7062   9.280  18.625   8.738 -0.1245  0.0061  0.2505
  442loPI   C1A 7063   9.768  18.106   8.560 -0.1012 -0.3511 -0.2208
  442loPI   C2A 7064   9.794  18.173   8.147  0.0593 -0.1054 -0.1550
  442loPI   C3A 7065   9.746  18.204   7.723 -0.2585 -0.2096  0.0255
  442loPI   C4A 7066   9.727  18.319   7.229 -0.2244 -0.1919  0.1215
  442loPI   C5A 7067   9.753  18.386   6.782  0.0604 -0.2076  0.0251
  442loPI   C6A 7068  10.051  18.493   6.520  0.0285  0.2909  0.1694
  442loPI   C1B 7069   9.374  18.661   8.298 -0.0207  0.3362 -0.1879
  442loPI   C2B 7070   9.393  18.633   7.904  0.0753 -0.0470  0.1720
  442loPI   C3B 7071   9.347  18.588   7.488 -0.1623  0.2634 -0.1338
  442loPI   C4B 7072   9.297  18.600   7.057 -0.2752 -0.2177 -0.1236
  443loPI    C1 7073  18.290  14.671   9.576 -0.2308  0.0466  0.0938
  443loPI    C2 7074  18.345  15.066   9.551  0.3932 -0.0406 -0.0952
  443loPI    C3 7075  18.035  14.920   9.758  0.1849  0.5405  0.0231
  443loPI   PO4 7076  18.634  14.646   9.623 -0.1882  0.3872  0.0970
  443loPI   GL1 7077  18.868  14.424   9.307 -0.0846 -0.2073  0.2169
  443loPI   GL2 7078  18.933  14.638   9.239 -0.3598 -0.1512 -0.3208
  443loPI   C1A 7079  18.859  14.336   8.813  0.2938  0.1868  0.0400
  443loPI   C2A 7080  18.686  14.570   8.334 -0.2264  0.0880 -0.2085
  443loPI   C3A 7081  18.499  14.735   7.921 -0.1574 -0.1207  0.0370
  443loPI   C4A 7082  18.131  14.803   7.652 -0.1647 -0.1797 -0.2922
  443loPI   C5A 7083  18.175  14.599   7.238  0.0946  0.2112 -0.1520
  443loPI   C6A 7084  18.224  14.442   6.853 -0.0812  0.1385  0.2048
  443loPI   C1B 7085  18.908  14.802   8.869  0.1875 -0.0854 -0.0767
  443loPI   C2B 7086  18.408  14.914   8.631 -0.0737  0.1881 -0.1042
  443loPI   C3B 7087  18.200  14.813   8.269  0.2492 -0.6209  0.1525
  443loPI   C4B 7088  18.041  14.611   8.096  0.0639 -0.2390  0.1720
  444loPI    C1 7089  14.445  15.924   9.609  0.0090 -0.1673 -0.2156
  444loPI    C2 7090  14.614  16.135   9.904 -0.4615 -0.1302  0.0388
  444loPI    C3 7091  14.797  15.809   9.761 -0.0519  0.0612  0.1098
  444loPI   PO4 7092  14.364  16.128   9.495 -0.1065 -0.2232  0.0043
  444loPI   GL1 7093  14.486  16.180   9.124  0.1498 -0.0678 -0.2356
  444loPI   GL2 7094  14.816  16.297   8.985 -0.0825 -0.3028  0.1233
  444loPI   C1A 7095  14.424  16.291   8.669  0.1019 -0.0807 -0.0270
  444loPI   C2A 7096  14.705  16.479   8.505 -0.0171 -0.0975 -0.1472
  444loPI   C3A 7097  14.687  16.738   8.174 -0.1235 -0.0940  0.1787
  444loPI   C4A 7098  14.569  16.761   7.788 -0.3256  0.1692  0.1785
  444loPI   C5A 7099  14.842  16.616   7.381  0.1393 -0.4553  0.2807
  444loPI   C6A 7100  14.724  16.712   6.947  0.1109  0.1271 -0.1692
  444loPI   C1B 7101  14.915  16.000   8.585 -0.1518  0.0114  0.2104
  444loPI   C2B 7102  14.896  16.071   8.224 -0.1344 -0.1093  0.2161
  444loPI   C3B 7103  15.089  16.219   7.864  0.1134 -0.0398 -0.0361
  444loPI   C4B 7104  15.183  16.014   7.472  0.2473  0.1500 -0.1534
  445loPI    C1 7105  13.863  12.098   9.585 -0.0275 -0.2035  0.1837
  445loPI    C2 7106  14.068  12.194   9.915  0.0735  0.0274  0.0564
  445loPI    C3 7107  13.824  12.462   9.746  0.0657 -0.0703 -0.0889
  445loPI   PO4 7108  13.977  12.014   9.405  0.1128  0.1122  0.1004
  445loPI   GL1 7109  14.061  12.008   8.978 -0.3163  0.0284 -0.0680
  445loPI   GL2 7110  13.737  11.954   8.843  0.1363 -0.0614 -0.3694
  445loPI   C1A 7111  13.936  12.323   8.599  0.0124  0.0859 -0.3141
  445loPI   C2A 7112  14.046  12.496   8.219  0.2258 -0.0558 -0.1764
  445loPI   C3A 7113  13.989  12.507   7.769  0.0349 -0.0113 -0.1751
  445loPI   C4A 7114  13.882  12.451   7.317 -0.0163 -0.3316 -0.0326
  445loPI   C5A 7115  13.920  12.695   6.941 -0.0125  0.2852  0.3144
  445loPI   C6A 7116  13.723  12.765   6.597  0.1585 -0.1913 -0.1089
  445loPI   C1B 7117  13.519  12.056   8.411 -0.0427 -0.0918 -0.1121
  445loPI   C2B 7118  13.361  11.910   7.958  0.1987  0.1511  0.2410
  445loPI   C3B 7119  13.365  11.969   7.499 -0.2678 -0.1839  0.0809
  445loPI   C4B 7120  13.272  12.214   7.203 -0.5141  0.0816 -0.1518
  446loPI    C1 7121   1.164   3.162   9.151  0.2443  0.0078  0.1273
  446loPI    C2 7122   1.307   3.466   9.369  0.1515  0.0378  0.1468
  446loPI    C3 7123   1.386   3.089   9.476  0.1760  0.0537  0.1846
  446loPI   PO4 7124   0.972   3.385   9.004  0.0657 -0.1771 -0.0754
  446loPI   GL1 7125   0.865   3.390   8.497 -0.1312 -0.0253 -0.6227
  446loPI   GL2 7126   0.614   3.216   8.599  0.1324 -0.4819  0.0715
  446loPI   C1A 7127   0.939   3.560   8.129 -0.0972 -0.2101  0.0488
  446loPI   C2A 7128   0.922   3.661   7.676 -0.3282 -0.0329 -0.0156
  446loPI   C3A 7129   0.908   3.606   7.268 -0.0558  0.2552 -0.0437
  446loPI   C4A 7130   1.025   3.799   6.865  0.1962 -0.0361  0.0089
  446loPI   C5A 7131   1.106   4.245   6.682 -0.2973 -0.1515  0.0316
  446loPI   C6A 7132   1.222   4.614   6.457 -0.1848  0.2723 -0.2233
  446loPI   C1B 7133   0.507   3.124   8.076  0.1113 -0.1554  0.0916
  446loPI   C2B 7134   0.657   3.208   7.682 -0.0029  0.2794  0.2898
  446loPI   C3B 7135   0.502   3.285   7.263  0.0130  0.3015 -0.0311
  446loPI   C4B 7136   0.614   3.453   6.841 -0.2056 -0.0550 -0.1348
  447loPI    C1 7137  12.814   3.000   9.955 -0.1042 -0.0957  0.0621
  447loPI    C2 7138  12.651   3.104  10.305 -0.0580  0.3124 -0.0330
  447loPI    C3 7139  13.049   3.101  10.263 -0.0569  0.0427 -0.0185
  447loPI   PO4 7140  12.705   3.020   9.808  0.1961  0.0677  0.1064
  447loPI   GL1 7141  12.793   2.997   9.384  0.1760  0.1774  0.0713
  447loPI   GL2 7142  12.785   3.323   9.430 -0.2526  0.1830 -0.1531
  447loPI   C1A 7143  12.435   3.127   9.214 -0.0455  0.1069 -0.2938
  447loPI   C2A 7144  12.338   3.207   8.734 -0.2872 -0.1531  0.0395
  447loPI   C3A 7145  12.321   3.191   8.289 -0.3144 -0.0439 -0.0633
  447loPI   C4A 7146  12.244   3.242   7.837  0.0870 -0.2111 -0.0011
  447loPI   C5A 7147  12.030   3.323   7.514 -0.0437 -0.0640  0.2014
  447loPI   C6A 7148  12.232   3.547   7.097  0.2651  0.0223 -0.1946
  447loPI   C1B 7149  12.809   3.297   8.979  0.1571 -0.1504  0.1083
  447loPI   C2B 7150  12.855   3.266   8.581  0.4226 -0.1105  0.1077
  447loPI   C3B 7151  12.987   3.136   8.219  0.0375  0.2555 -0.2252
  447loPI   C4B 7152  13.076   3.038   7.859  0.0238 -0.2954  0.1269
  448loPI    C1 7153  10.617   8.172   8.902 -0.0173 -0.1815 -0.0582
  448loPI    C2 7154  10.433   8.248   9.248 -0.1104  0.0421 -0.1547
  448loPI    C3 7155  10.538   8.549   9.008  0.1675 -0.0978 -0.2126
  448loPI   PO4 7156  10.467   8.016   8.720  0.1915  0.0092 -0.0372
  448loPI   GL1 7157  10.220   8.145   8.433  0.0696 -0.1529  0.1338
  448loPI   GL2 7158  10.393   8.374   8.469 -0.1130 -0.2338 -0.1073
  448loPI   C1A 7159  10.242   8.260   7.993 -0.0966  0.1193 -0.3103
  448loPI   C2A 7160  10.035   8.426   7.708 -0.0047  0.0360 -0.0008
  448loPI   C3A 7161   9.909   8.486   7.294 -0.1080  0.1048  0.1029
  448loPI   C4A 7162  10.089   8.430   6.880  0.0304  0.0146  0.0464
  448loPI   C5A 7163  10.064   8.164   6.534  0.4236 -0.0103 -0.0541
  448loPI   C6A 7164   9.828   8.172   6.255 -0.2459  0.2007  0.0833
  448loPI   C1B 7165  10.442   8.748   8.208 -0.0662  0.0844  0.0565
  448loPI   C2B 7166  10.468   8.682   7.763  0.1152  0.1803 -0.3961
  448loPI   C3B 7167  10.416   8.728   7.330 -0.2323 -0.0872  0.3397
  448loPI   C4B 7168  10.254   8.941   7.064 -0.1702 -0.1513 -0.0738
  449loPI    C1 7169  16.761   9.017   9.675 -0.0902  0.1333 -0.0666
  449loPI    C2 7170  16.687   8.648   9.541 -0.0933  0.2150 -0.2954
  449loPI    C3 7171  16.777   8.707   9.927 -0.3615  0.0095 -0.1983
  449loPI   PO4 7172  16.624   9.151   9.574  0.0296 -0.0650 -0.2367
  449loPI   GL1 7173  16.726   9.401   9.316  0.0854 -0.4344  0.1560
  449loPI   GL2 7174  16.799   9.711   9.358 -0.2043  0.1293 -0.1434
  449loPI   C1A 7175  16.549   9.337   8.804 -0.0141  0.3293 -0.1288
  449loPI   C2A 7176  16.614   9.446   8.448  0.0730 -0.2101  0.3609
  449loPI   C3A 7177  16.564   9.330   8.077  0.1265  0.0301  0.0391
  449loPI   C4A 7178  16.592   9.372   7.663  0.3209  0.1282 -0.0510
  449loPI   C5A 7179  16.378   9.392   7.345  0.1129 -0.0721 -0.0860
  449loPI   C6A 7180  16.281   9.588   6.970  0.3660 -0.1559 -0.3015
  449loPI   C1B 7181  16.754   9.783   8.949  0.1431 -0.0822 -0.2138
  449loPI   C2B 7182  16.899   9.851   8.454 -0.1842  0.2370 -0.1125
  449loPI   C3B 7183  16.846   9.723   7.981 -0.1068  0.0857  0.0511
  449loPI   C4B 7184  16.708   9.819   7.476 -0.1325  0.2334  0.0195
  450loPI    C1 7185   3.325  12.517   9.171 -0.0081 -0.3859  0.0523
  450loPI    C2 7186   3.029  12.687   9.380  0.2097  0.0167  0.0428
  450loPI    C3 7187   3.217  12.366   9.526  0.0475  0.0113  0.2443
  450loPI   PO4 7188   3.376  12.671   9.025  0.2049 -0.1539 -0.4904
  450loPI   GL1 7189   3.392  12.773   8.631  0.1445 -0.2862  0.0412
  450loPI   GL2 7190   3.057  12.886   8.627  0.2899 -0.1105 -0.3608
  450loPI   C1A 7191   3.520  12.914   8.207 -0.0798 -0.0198 -0.2195
  450loPI   C2A 7192   3.763  12.696   7.935  0.1456  0.2865 -0.0164
  450loPI   C3A 7193   3.793  12.686   7.537 -0.0792 -0.0973 -0.1989
  450loPI   C4A 7194   3.913  12.488   7.233  0.2380  0.1399  0.4133
  450loPI   C5A 7195   4.319  12.399   6.980  0.1818 -0.0080  0.3344
  450loPI   C6A 7196   4.608  12.619   6.727 -0.0902  0.0466 -0.2256
  450loPI   C1B 7197   3.105  12.596   8.203 -0.0197 -0.0264  0.2746
  450loPI   C2B 7198   3.120  12.717   7.817 -0.1613  0.0998 -0.0231
  450loPI   C3B 7199   3.326  12.657   7.391  0.0258 -0.1529  0.0954
  450loPI   C4B 7200   3.516  12.661   7.033  0.1876 -0.3640  0.0916
  451loPI    C1 7201  16.580  19.800   9.986 -0.0923 -0.0658  0.2948
  451loPI    C2 7202  16.918  19.912  10.168 -0.0500  0.1906  0.0647
  451loPI    C3 7203  16.565  20.037  10.308 -0.0405  0.0788  0.1912
  451loPI   PO4 7204  16.625  19.849   9.681 -0.1364 -0.2010  0.4028
  451loPI   GL1 7205  16.755  19.848   9.268 -0.0822 -0.0135 -0.0521
  451loPI   GL2 7206  17.005  20.050   9.126 -0.0625  0.0081  0.2243
  451loPI   C1A 7207  16.697  19.734   8.801  0.0246 -0.1114 -0.3756
  451loPI   C2A 7208  16.677  19.902   8.309  0.0549  0.0345  0.1422
  451loPI   C3A 7209  16.891  19.921   7.786  0.0483 -0.1262 -0.2997
  451loPI   C4A 7210  16.998  20.016   7.358 -0.5506 -0.2129  0.0313
  451loPI   C5A 7211  16.959  20.078   6.902 -0.0525  0.3207  0.1400
  451loPI   C6A 7212  16.721  19.982   6.540 -0.0073  0.3039  0.2387
  451loPI   C1B 7213  17.125  20.062   8.722 -0.2418  0.3163  0.1656
  451loPI   C2B 7214  17.266  20.001   8.300 -0.1380 -0.3894  0.1282
  451loPI   C3B 7215  17.531  19.776   7.916 -0.0743 -0.1185 -0.3500
  451loPI   C4B 7216  17.323  19.651   7.659 -0.2416  0.1351 -0.1823
  452loPI    C1 7217   3.730   0.149   9.439 -0.0489  0.0944 -0.0375
  452loPI    C2 7218   4.011   0.432   9.458  0.0497 -0.0193  0.2597
  452loPI    C3 7219   3.766   0.373   9.769 -0.3055  0.0779  0.0040
  452loPI   PO4 7220   3.610   0.250   9.193  0.1176  0.0109 -0.0771
  452loPI   GL1 7221   3.658   0.318   8.825  0.0981 -0.2825 -0.1705
  452loPI   GL2 7222   3.667   0.059   8.617  0.1403  0.1530  0.0739
  452loPI   C1A 7223   3.506   0.589   8.550 -0.1281  0.2025 -0.0409
  452loPI   C2A 7224   3.444   0.576   8.087  0.0158 -0.0809  0.1054
  452loPI   C3A 7225   3.480   0.604   7.561 -0.2800  0.0328  0.1710
  452loPI   C4A 7226   3.623   0.802   7.196 -0.1736 -0.0457  0.0112
  452loPI   C5A 7227   3.540   0.959   6.801  0.3014  0.3608  0.2840
  452loPI   C6A 7228   3.129   0.962   6.624 -0.0557 -0.0223 -0.1618
  452loPI   C1B 7229   3.675   0.112   8.121  0.0008 -0.2819 -0.0340
  452loPI   C2B 7230   3.378   0.130   7.865  0.0632 -0.2934  0.1052
  452loPI   C3B 7231   3.337   0.021   7.458  0.1024 -0.1263 -0.0689
  452loPI   C4B 7232   3.575   0.187   7.141 -0.1440 -0.0477 -0.1891
  453loPI    C1 7233  13.065   7.671   9.712 -0.1462  0.2409  0.3027
  453loPI    C2 7234  13.291   8.002   9.712  0.0910  0.0850 -0.0793
  453loPI    C3 7235  13.369   7.706   9.970 -0.0312  0.2627  0.1654
  453loPI   PO4 7236  13.042   7.684   9.400 -0.3203  0.0115  0.2838
  453loPI   GL1 7237  13.199   7.787   9.002  0.3538 -0.3562  0.0367
  453loPI   GL2 7238  13.066   7.538   8.775  0.1717  0.1821 -0.3523
  453loPI   C1A 7239  13.081   7.981   8.553  0.1281  0.3148  0.1100
  453loPI   C2A 7240  13.291   8.004   8.113 -0.0673 -0.3379 -0.2254
  453loPI   C3A 7241  13.430   7.806   7.810  0.1549 -0.3410 -0.2818
  453loPI   C4A 7242  13.632   7.996   7.464 -0.3856  0.1036 -0.0377
  453loPI   C5A 7243  13.622   7.913   7.067  0.1288  0.0067 -0.2074
  453loPI   C6A 7244  13.259   7.988   6.949 -0.1513  0.3228 -0.2593
  453loPI   C1B 7245  13.459   7.187   8.713  0.0418  0.1855  0.1807
  453loPI   C2B 7246  13.859   6.905   8.766  0.0558 -0.1624  0.3983
  453loPI   C3B 7247  14.282   6.749   8.498  0.1248  0.0814 -0.1029
  453loPI   C4B 7248  14.556   6.794   8.239 -0.1900 -0.1519 -0.0647
  454loPI    C1 7249   7.887   8.057   9.636  0.1802  0.0216 -0.0469
  454loPI    C2 7250   8.151   7.773   9.733  0.1013  0.0030  0.1186
  454loPI    C3 7251   8.125   8.105   9.954 -0.0857 -0.0419  0.1655
  454loPI   PO4 7252   7.838   8.077   9.295  0.0061 -0.0064 -0.4619
  454loPI   GL1 7253   7.572   8.183   8.948  0.1012 -0.1091  0.1189
  454loPI   GL2 7254   7.287   7.892   8.825 -0.0825 -0.3044  0.0948
  454loPI   C1A 7255   7.607   8.307   8.563 -0.1221  0.0262 -0.0385
  454loPI   C2A 7256   7.621   8.302   8.144  0.0432 -0.1553 -0.2845
  454loPI   C3A 7257   7.712   8.294   7.674  0.1221  0.1911  0.0775
  454loPI   C4A 7258   7.583   8.291   7.251 -0.0997 -0.0180  0.1779
  454loPI   C5A 7259   7.646   7.941   6.908 -0.1395  0.0535 -0.1615
  454loPI   C6A 7260   7.238   7.751   6.722 -0.0850 -0.3153 -0.3097
  454loPI   C1B 7261   7.236   7.972   8.363  0.0153  0.3768 -0.4051
  454loPI   C2B 7262   7.276   8.043   7.842 -0.3442  0.3038 -0.2803
  454loPI   C3B 7263   7.165   8.330   7.448 -0.0276  0.0535  0.4494
  454loPI   C4B 7264   6.949   8.622   7.187  0.0035 -0.2268  0.1730
  455loPI    C1 7265  10.590   1.218   9.465 -0.0075  0.1245 -0.2292
  455loPI    C2 7266  10.847   1.525   9.470  0.1712 -0.0252  0.0748
  455loPI    C3 7267  10.541   1.516   9.727  0.2274 -0.1516  0.1380
  455loPI   PO4 7268  10.545   1.191   9.187  0.1391  0.1760 -0.2353
  455loPI   GL1 7269  10.193   1.217   8.838 -0.1328 -0.0516  0.3504
  455loPI   GL2 7270  10.406   1.491   8.749  0.1730 -0.3223 -0.1043
  455loPI   C1A 7271  10.171   1.217   8.421 -0.2105  0.2677 -0.0403
  455loPI   C2A 7272   9.840   1.485   8.095 -0.0063 -0.1133  0.0366
  455loPI   C3A 7273   9.843   1.557   7.690  0.0131  0.1697 -0.0312
  455loPI   C4A 7274   9.673   1.581   7.248  0.0107 -0.2613  0.0694
  455loPI   C5A 7275   9.365   1.937   6.975 -0.1430  0.1258 -0.3363
  455loPI   C6A 7276   9.041   1.980   6.636 -0.0644 -0.0597 -0.3323
  455loPI   C1B 7277  10.684   1.355   8.530  0.2156 -0.1843 -0.2090
  455loPI   C2B 7278  11.019   1.305   8.413  0.2343 -0.3835  0.2709
  455loPI   C3B 7279  11.192   1.563   7.959  0.1864  0.1162 -0.5399
  455loPI   C4B 7280  11.529   1.888   7.781  0.2673  0.0416 -0.1541
  456loPI    C1 7281  16.077  17.928   9.618  0.0016  0.1083 -0.0179
  456loPI    C2 7282  15.696  18.049   9.629 -0.0569 -0.0463 -0.2699
  456loPI    C3 7283  15.869  17.905   9.959 -0.1205  0.3080 -0.0769
  456loPI   PO4 7284  16.063  17.868   9.314 -0.0850  0.1201  0.1101
  456loPI   GL1 7285  15.911  17.635   8.992  0.1126 -0.0229 -0.3352
  456loPI   GL2 7286  15.731  17.884   8.915 -0.1261  0.1051 -0.2150
  456loPI   C1A 7287  16.198  17.601   8.720  0.1428  0.1021 -0.0989
  456loPI   C2A 7288  16.079  17.444   8.257 -0.0256  0.0051 -0.0668
  456loPI   C3A 7289  16.035  17.177   7.968 -0.2282  0.1136 -0.2439
  456loPI   C4A 7290  16.082  17.087   7.558 -0.0989  0.2226 -0.0612
  456loPI   C5A 7291  16.028  16.908   7.083  0.0870  0.2408  0.0391
  456loPI   C6A 7292  16.243  16.695   6.681  0.0810 -0.1800  0.3316
  456loPI   C1B 7293  15.710  17.872   8.526  0.3028 -0.3764  0.3236
  456loPI   C2B 7294  15.775  17.837   8.089  0.1928  0.1945 -0.0188
  456loPI   C3B 7295  15.844  17.898   7.700 -0.0641  0.0687 -0.0433
  456loPI   C4B 7296  15.868  18.149   7.375  0.1735  0.1421 -0.0867
  457loPI    C1 7297  17.485   8.681   9.775  0.1389 -0.2264 -0.0815
  457loPI    C2 7298  17.474   8.284   9.826 -0.1016 -0.1939  0.1404
  457loPI    C3 7299  17.692   8.512  10.073 -0.0113 -0.1814  0.0497
  457loPI   PO4 7300  17.175   8.720   9.598  0.0660  0.1780  0.3974
  457loPI   GL1 7301  16.948   8.900   9.201 -0.1523 -0.2465 -0.3176
  457loPI   GL2 7302  17.057   9.118   8.998 -0.2925  0.0040 -0.1586
  457loPI   C1A 7303  16.965   8.566   9.029 -0.1644 -0.0240 -0.0736
  457loPI   C2A 7304  16.819   8.475   8.616 -0.1813  0.0130  0.0711
  457loPI   C3A 7305  16.609   8.256   8.268 -0.0187  0.3370 -0.1089
  457loPI   C4A 7306  16.568   8.452   7.926 -0.0644 -0.2679  0.3541
  457loPI   C5A 7307  16.654   8.504   7.517 -0.1876 -0.4108 -0.1985
  457loPI   C6A 7308  16.678   8.145   7.169 -0.2750 -0.2805  0.1336
  457loPI   C1B 7309  16.923   8.974   8.598  0.3096  0.1026 -0.3189
  457loPI   C2B 7310  16.937   8.910   8.221 -0.1078  0.2492  0.1681
  457loPI   C3B 7311  16.812   8.885   7.797  0.2261 -0.1481 -0.1435
  457loPI   C4B 7312  16.653   8.958   7.410  0.0196  0.0263  0.1953
  458loPI    C1 7313   2.462  18.802   9.455  0.1816  0.0418 -0.0912
  458loPI    C2 7314   2.510  19.043   9.770  0.0009  0.2118 -0.1923
  458loPI    C3 7315   2.151  19.007   9.599  0.0392 -0.0858 -0.2149
  458loPI   PO4 7316   2.713  18.870   9.299 -0.1199 -0.1009  0.0318
  458loPI   GL1 7317   2.839  19.059   8.928  0.0220 -0.1660 -0.1641
  458loPI   GL2 7318   3.219  19.277   8.820 -0.0600 -0.2447  0.0257
  458loPI   C1A 7319   2.621  19.038   8.482 -0.1910  0.2606 -0.4102
  458loPI   C2A 7320   2.675  19.278   8.097 -0.2069 -0.2758 -0.2668
  458loPI   C3A 7321   2.722  19.246   7.737 -0.2942  0.1766  0.2398
  458loPI   C4A 7322   2.709  19.528   7.353  0.1072  0.2269  0.0718
  458loPI   C5A 7323   2.466  19.829   7.036  0.1018 -0.1989 -0.0449
  458loPI   C6A 7324   2.542  19.999   6.628 -0.2994  0.0714  0.2993
  458loPI   C1B 7325   3.073  19.344   8.493 -0.0243  0.2132  0.0150
  458loPI   C2B 7326   2.867  19.739   8.219  0.2337 -0.0517  0.3597
  458loPI   C3B 7327   2.739  19.758   7.893  0.0390 -0.1153  0.0620
  458loPI   C4B 7328   2.759  19.964   7.528 -0.1912 -0.2521 -0.1250
  459loPI    C1 7329  16.884   6.094   9.878 -0.0334 -0.0135 -0.2657
  459loPI    C2 7330  16.610   5.931  10.119 -0.0296 -0.0369 -0.2771
  459loPI    C3 7331  16.734   6.307  10.181  0.0094 -0.0604 -0.2116
  459loPI   PO4 7332  16.785   6.091   9.634 -0.1203  0.4746  0.0005
  459loPI   GL1 7333  16.686   5.898   9.292  0.0596  0.3392 -0.0996
  459loPI   GL2 7334  16.360   6.071   9.157  0.0339 -0.4568 -0.2652
  459loPI   C1A 7335  16.739   5.982   8.849 -0.0329  0.0119  0.1557
  459loPI   C2A 7336  16.983   5.965   8.474  0.1019  0.3165  0.0313
  459loPI   C3A 7337  17.093   6.143   8.143 -0.4064 -0.0829  0.1307
  459loPI   C4A 7338  16.969   6.255   7.624 -0.0560 -0.2324 -0.0069
  459loPI   C5A 7339  17.076   5.959   7.193 -0.2580  0.2346  0.1743
  459loPI   C6A 7340  17.372   5.596   6.960 -0.0058 -0.2455 -0.1525
  459loPI   C1B 7341  16.342   6.258   8.693 -0.0158 -0.0952  0.0911
  459loPI   C2B 7342  16.532   6.244   8.268  0.2253  0.1366 -0.0400
  459loPI   C3B 7343  16.545   6.380   7.855 -0.0890  0.1291 -0.1675
  459loPI   C4B 7344  16.382   6.489   7.605 -0.1489 -0.2586  0.2819
  460loPI    C1 7345   0.808  12.739   9.230 -0.1601  0.1095  0.3045
  460loPI    C2 7346   0.676  12.719   9.607  0.2367  0.2388  0.4554
  460loPI    C3 7347   1.015  12.915   9.523  0.2406  0.0703  0.0532
  460loPI   PO4 7348   0.673  12.759   9.012  0.1008 -0.1635 -0.0610
  460loPI   GL1 7349   0.785  12.970   8.609 -0.2133  0.3795  0.2248
  460loPI   GL2 7350   0.996  12.978   8.471 -0.0372  0.0448  0.0229
  460loPI   C1A 7351   0.532  13.221   8.305 -0.2287  0.1395 -0.1206
  460loPI   C2A 7352   0.462  13.099   7.853 -0.0699 -0.2453 -0.0721
  460loPI   C3A 7353   0.436  13.234   7.394 -0.1034 -0.0122 -0.1822
  460loPI   C4A 7354   0.394  13.218   6.871  0.0936 -0.0390 -0.3601
  460loPI   C5A 7355   0.264  13.392   6.545 -0.1911  0.0436 -0.0515
  460loPI   C6A 7356  -0.085  13.509   6.374  0.1269  0.0857 -0.0295
  460loPI   C1B 7357   0.967  12.743   7.930  0.0577 -0.0249 -0.2055
  460loPI   C2B 7358   0.998  12.518   7.625 -0.0276  0.3603  0.1071
  460loPI   C3B 7359   1.025  12.397   7.154  0.0458 -0.1706  0.3132
  460loPI   C4B 7360   1.020  12.519   6.629 -0.3727  0.0940  0.0780
  461loPI    C1 7361  14.461   3.141  10.025 -0.1938  0.1382  0.1373
  461loPI    C2 7362  14.198   3.153  10.326  0.1596  0.0155  0.4603
  461loPI    C3 7363  14.424   2.828  10.272  0.3583  0.1795  0.2863
  461loPI   PO4 7364  14.375   3.325   9.787 -0.4361  0.1558  0.0199
  461loPI   GL1 7365  14.462   3.292   9.371 -0.0229  0.3474 -0.0318
  461loPI   GL2 7366  14.337   3.508   9.324  0.0472 -0.1567 -0.1801
  461loPI   C1A 7367  14.579   3.174   8.961 -0.1631  0.2761 -0.2524
  461loPI   C2A 7368  14.535   2.882   8.597 -0.0378  0.2658 -0.0880
  461loPI   C3A 7369  14.560   2.768   8.165  0.2416 -0.0930 -0.2071
  461loPI   C4A 7370  14.394   2.681   7.828 -0.4000 -0.1226 -0.1377
  461loPI   C5A 7371  14.267   2.387   7.390  0.0106  0.2361 -0.1937
  461loPI   C6A 7372  14.198   1.953   7.450 -0.1568 -0.0083 -0.2227
  461loPI   C1B 7373  14.259   3.490   8.830  0.0213  0.3993 -0.2839
  461loPI   C2B 7374  14.324   3.390   8.440  0.0367 -0.1949  0.3526
  461loPI   C3B 7375  14.598   3.344   8.177 -0.0737  0.0471  0.1020
  461loPI   C4B 7376  14.634   3.087   7.808  0.2416 -0.3124  0.0017
  462loPI    C1 7377   3.854   5.504   9.525 -0.2897  0.0302 -0.1154
  462loPI    C2 7378   3.489   5.562   9.680 -0.2181  0.1264  0.0189
  462loPI    C3 7379   3.749   5.318   9.863 -0.2087  0.0715 -0.0672
  462loPI   PO4 7380   3.895   5.340   9.248 -0.3417 -0.1840  0.1939
  462loPI   GL1 7381   3.885   5.493   8.831  0.0219  0.0787 -0.3461
  462loPI   GL2 7382   3.528   5.481   8.801 -0.1957 -0.1587  0.2172
  462loPI   C1A 7383   4.070   5.657   8.475  0.3146  0.0464 -0.1269
  462loPI   C2A 7384   4.121   5.629   7.954 -0.0274 -0.0226  0.0298
  462loPI   C3A 7385   4.218   5.775   7.524  0.1827  0.0493 -0.0363
  462loPI   C4A 7386   4.066   5.815   7.104 -0.0564  0.0090  0.1100
  462loPI   C5A 7387   3.771   6.004   6.910 -0.1350 -0.2248  0.1627
  462loPI   C6A 7388   3.502   5.905   6.553 -0.2147 -0.0474 -0.0754
  462loPI   C1B 7389   3.492   5.645   8.471  0.1955 -0.0829  0.0186
  462loPI   C2B 7390   3.602   5.717   7.964 -0.0580 -0.1081 -0.2283
  462loPI   C3B 7391   3.719   5.807   7.543  0.0511 -0.1172 -0.0679
  462loPI   C4B 7392   3.493   5.707   7.132  0.2011  0.0719 -0.1517
  463loPI    C1 7393  17.412  19.198  10.142  0.0813 -0.0041  0.2616
  463loPI    C2 7394  17.075  18.982  10.151  0.1071 -0.0450  0.2431
  463loPI    C3 7395  17.426  18.810  10.239  0.1817 -0.1108 -0.1615
  463loPI   PO4 7396  17.383  19.277   9.803 -0.0387 -0.2266  0.3231
  463loPI   GL1 7397  17.294  19.617   9.493  0.0220 -0.2419  0.2607
  463loPI   GL2 7398  17.439  19.791   9.280  0.0511 -0.1276  0.0746
  463loPI   C1A 7399  17.160  19.485   8.986 -0.0173  0.0753  0.3606
  463loPI   C2A 7400  16.839  19.254   8.742  0.1074  0.0337  0.0107
  463loPI   C3A 7401  16.628  19.379   8.361 -0.1021  0.1484  0.1111
  463loPI   C4A 7402  16.552  19.324   7.833 -0.0014 -0.1175 -0.1057
  463loPI   C5A 7403  16.655  19.514   7.442  0.0645  0.1625  0.1832
  463loPI   C6A 7404  16.834  19.548   7.056 -0.2709 -0.3145 -0.2173
  463loPI   C1B 7405  17.699  19.497   9.017  0.0262 -0.2573  0.2641
  463loPI   C2B 7406  17.473  19.443   8.569 -0.3038 -0.0350 -0.1798
  463loPI   C3B 7407  17.306  19.448   8.191 -0.3033  0.3184  0.0733
  463loPI   C4B 7408  16.981  19.504   8.045 -0.1199 -0.1639  0.0717
  464loPI    C1 7409   9.716   6.237   9.473 -0.0001  0.1441  0.0245
  464loPI    C2 7410   9.616   6.471   9.781 -0.0661 -0.0778  0.1741
  464loPI    C3 7411   9.775   6.110   9.847 -0.1352 -0.1513 -0.0509
  464loPI   PO4 7412   9.494   6.211   9.278  0.3045  0.0842 -0.1944
  464loPI   GL1 7413   9.667   6.201   8.901  0.1158  0.1130 -0.2536
  464loPI   GL2 7414  10.007   6.165   9.030  0.2184 -0.2713  0.3051
  464loPI   C1A 7415   9.869   6.104   8.454  0.1450 -0.3638 -0.5063
  464loPI   C2A 7416   9.762   6.239   8.093  0.0717 -0.0135 -0.1730
  464loPI   C3A 7417   9.579   6.132   7.788  0.0468 -0.0578  0.2345
  464loPI   C4A 7418   9.463   6.079   7.353  0.0045 -0.2570  0.4418
  464loPI   C5A 7419   9.169   5.833   7.081  0.1916  0.3769 -0.5029
  464loPI   C6A 7420   9.076   5.431   6.847 -0.1089 -0.2734  0.1813
  464loPI   C1B 7421  10.254   6.275   8.736 -0.3994 -0.0941 -0.0987
  464loPI   C2B 7422  10.307   6.298   8.317  0.0328  0.1768 -0.2151
  464loPI   C3B 7423  10.251   6.389   7.879 -0.1223 -0.3561 -0.2563
  464loPI   C4B 7424   9.983   6.211   7.510  0.3255  0.0302 -0.3685
  465loPI    C1 7425  14.552  18.392   9.563 -0.0082 -0.2028 -0.3057
  465loPI    C2 7426  14.438  18.066   9.765  0.2923 -0.2289 -0.1721
  465loPI    C3 7427  14.808  18.211   9.812  0.0942  0.2605 -0.0621
  465loPI   PO4 7428  14.453  18.368   9.319 -0.2521 -0.1151  0.1155
  465loPI   GL1 7429  14.495  18.114   8.954 -0.1277 -0.2033 -0.2797
  465loPI   GL2 7430  14.845  17.966   8.827  0.0791 -0.1874 -0.4526
  465loPI   C1A 7431  14.206  18.109   8.654 -0.1324  0.0264  0.0806
  465loPI   C2A 7432  14.176  18.117   8.182  0.0264  0.0799  0.3751
  465loPI   C3A 7433  14.232  18.028   7.703  0.3904 -0.0591 -0.7124
  465loPI   C4A 7434  14.257  18.294   7.336  0.0763  0.0936  0.0866
  465loPI   C5A 7435  14.160  18.602   6.927  0.0057 -0.1862  0.1431
  465loPI   C6A 7436  14.223  18.531   6.506  0.3948 -0.1015  0.3271
  465loPI   C1B 7437  14.792  18.040   8.407 -0.0977 -0.2713  0.0266
  465loPI   C2B 7438  14.840  18.062   7.925  0.1018  0.0611 -0.2360
  465loPI   C3B 7439  14.817  18.012   7.471 -0.2643  0.1405  0.0968
  465loPI   C4B 7440  15.051  18.095   7.113 -0.1783 -0.2245  0.3480
  466loPI    C1 7441  12.943  18.784   9.461  0.0078 -0.2550  0.1342
  466loPI    C2 7442  13.234  18.730   9.191  0.0775  0.0404  0.1468
  466loPI    C3 7443  13.326  18.810   9.572 -0.0211 -0.0158  0.1830
  466loPI   PO4 7444  12.720  18.711   9.274 -0.3696 -0.4445 -0.0037
  466loPI   GL1 7445  12.583  18.749   8.898  0.2207 -0.2886 -0.2267
  466loPI   GL2 7446  12.956  18.823   8.724 -0.1385  0.1901 -0.2141
  466loPI   C1A 7447  12.724  18.458   8.431  0.1936 -0.0665  0.2443
  466loPI   C2A 7448  12.851  18.565   7.962 -0.2112 -0.0021  0.1827
  466loPI   C3A 7449  12.625  18.666   7.646 -0.2642 -0.0240  0.0814
  466loPI   C4A 7450  12.333  18.928   7.391 -0.2409  0.1599 -0.0747
  466loPI   C5A 7451  12.169  18.831   6.958 -0.0252 -0.4095 -0.0905
  466loPI   C6A 7452  12.275  18.716   6.572 -0.2371 -0.4233 -0.2950
  466loPI   C1B 7453  13.155  18.854   8.285  0.0918  0.0333  0.1373
  466loPI   C2B 7454  13.244  18.942   7.915  0.0309  0.1508 -0.0643
  466loPI   C3B 7455  13.318  19.287   7.698 -0.2705  0.1900 -0.2077
  466loPI   C4B 7456  13.284  19.554   7.438  0.0063  0.0376  0.2601
  467loPI    C1 7457  19.167   4.832   9.271 -0.0689  0.1062 -0.0010
  467loPI    C2 7458  19.512   4.692   9.418 -0.0940  0.0299 -0.0140
  467loPI    C3 7459  19.482   5.075   9.306  0.0148  0.0134 -0.1011
  467loPI   PO4 7460  19.081   4.707   9.062 -0.3868  0.2357 -0.1176
  467loPI   GL1 7461  19.106   4.565   8.607 -0.0578 -0.1309  0.2897
  467loPI   GL2 7462  19.311   4.752   8.404 -0.2061 -0.2160 -0.1775
  467loPI   C1A 7463  19.324   4.112   8.305  0.1449 -0.0248  0.3838
  467loPI   C2A 7464  19.346   3.947   7.971 -0.1259 -0.0732  0.2107
  467loPI   C3A 7465  19.427   3.714   7.592 -0.1016  0.0244 -0.1937
  467loPI   C4A 7466  19.189   3.384   7.368 -0.2535 -0.0662 -0.2154
  467loPI   C5A 7467  19.026   3.170   7.001 -0.2598 -0.0041  0.1840
  467loPI   C6A 7468  18.736   3.006   7.025  0.3515  0.1820  0.1603
  467loPI   C1B 7469  19.275   4.504   8.013 -0.1477 -0.4026 -0.0763
  467loPI   C2B 7470  19.293   4.593   7.633  0.1038  0.0546  0.0885
  467loPI   C3B 7471  19.529   4.582   7.309  0.1300  0.0829  0.0241
  467loPI   C4B 7472  19.415   4.479   6.939  0.1519  0.0411 -0.3569
  468loPI    C1 7473  15.545  16.379   9.586  0.1050 -0.1340  0.1142
  468loPI    C2 7474  15.490  16.728   9.773  0.0869 -0.2186  0.2675
  468loPI    C3 7475  15.840  16.537   9.806  0.1600 -0.1272  0.0359
  468loPI   PO4 7476  15.550  16.410   9.326  0.1741 -0.0528  0.2734
  468loPI   GL1 7477  15.422  16.070   9.105  0.4233 -0.1662  0.0994
  468loPI   GL2 7478  15.704  15.920   9.298  0.1666 -0.3279  0.2295
  468loPI   C1A 7479  15.522  16.102   8.667 -0.0389  0.4234 -0.0126
  468loPI   C2A 7480  15.636  16.272   8.266  0.1618 -0.0593  0.0869
  468loPI   C3A 7481  15.562  16.436   7.939  0.0976  0.0224  0.1060
  468loPI   C4A 7482  15.311  16.502   7.567 -0.0605 -0.0543 -0.1286
  468loPI   C5A 7483  15.516  16.760   7.212  0.0203  0.5456 -0.4940
  468loPI   C6A 7484  15.641  17.112   6.899  0.2225  0.1187 -0.2701
  468loPI   C1B 7485  15.940  15.831   8.901 -0.0353  0.1147 -0.0555
  468loPI   C2B 7486  15.972  15.808   8.420  0.0679  0.0409 -0.3429
  468loPI   C3B 7487  16.143  15.760   8.060  0.1875 -0.3776 -0.2425
  468loPI   C4B 7488  16.005  15.800   7.571  0.0468  0.0231 -0.0061
  469loPI    C1 7489   5.124  19.424   8.905 -0.0297 -0.0607  0.0212
  469loPI    C2 7490   5.374  19.681   9.080 -0.0728 -0.1153  0.1645
  469loPI    C3 7491   5.179  19.411   9.301 -0.0194 -0.2787  0.0141
  469loPI   PO4 7492   5.238  19.264   8.631 -0.0533 -0.1247 -0.2460
  469loPI   GL1 7493   5.304  19.158   8.290  0.0254 -0.0306  0.0511
  469loPI   GL2 7494   5.378  19.522   8.197 -0.0084 -0.2562 -0.1323
  469loPI   C1A 7495   4.908  19.276   8.123 -0.0653 -0.5469  0.0626
  469loPI   C2A 7496   4.754  19.257   7.646  0.1866 -0.0822  0.1049
  469loPI   C3A 7497   4.599  19.104   7.197  0.0836 -0.0487 -0.3397
  469loPI   C4A 7498   4.921  19.228   6.852 -0.0692 -0.0154 -0.0663
  469loPI   C5A 7499   5.016  19.400   6.445 -0.1675  0.0296 -0.0979
  469loPI   C6A 7500   5.012  19.644   6.232  0.2053  0.1583  0.2784
  469loPI   C1B 7501   5.186  19.519   7.755 -0.2104  0.2178 -0.1233
  469loPI   C2B 7502   5.090  19.732   7.350  0.4107 -0.2026  0.0053
  469loPI   C3B 7503   4.889  19.767   6.977 -0.0038 -0.3190  0.0210
  469loPI   C4B 7504   4.748  19.870   6.571  0.0452  0.0487  0.1050
  470loPI    C1 7505  17.467  16.999   9.924 -0.0018  0.0210 -0.1247
  470loPI    C2 7506  17.722  16.943   9.621  0.1819  0.0368  0.0252
  470loPI    C3 7507  17.834  16.856   9.995 -0.0006  0.1330  0.1033
  470loPI   PO4 7508  17.208  16.873   9.791 -0.0861 -0.2803  0.0991
  470loPI   GL1 7509  17.145  16.862   9.469 -0.3056  0.2100 -0.0064
  470loPI   GL2 7510  17.376  16.803   9.279  0.0847  0.2206  0.2451
  470loPI   C1A 7511  16.960  16.882   9.078 -0.3184  0.3870 -0.0930
  470loPI   C2A 7512  17.055  17.019   8.573 -0.2313  0.0357  0.1799
  470loPI   C3A 7513  16.974  17.177   8.140 -0.0401  0.2248 -0.0891
  470loPI   C4A 7514  17.188  17.297   7.661 -0.2304  0.4222  0.0576
  470loPI   C5A 7515  17.124  17.631   7.411 -0.2485  0.2344  0.4177
  470loPI   C6A 7516  16.717  17.894   7.385 -0.0435 -0.3904  0.2503
  470loPI   C1B 7517  17.486  16.858   8.877  0.0843  0.4240  0.0193
  470loPI   C2B 7518  17.547  17.091   8.539 -0.1744  0.4047  0.0639
  470loPI   C3B 7519  17.523  17.243   8.101  0.2267 -0.1985  0.2481
  470loPI   C4B 7520  17.700  17.054   7.708  0.0333  0.1599 -0.3327
  471loPI    C1 7521   6.333   3.823   9.661  0.1222  0.0427 -0.0175
  471loPI    C2 7522   5.960   3.781   9.799  0.0881  0.0403 -0.1099
  471loPI    C3 7523   6.112   4.147   9.742  0.0517  0.0415 -0.2010
  471loPI   PO4 7524   6.325   3.595   9.516 -0.4741 -0.0861  0.0325
  471loPI   GL1 7525   6.341   3.582   9.035 -0.0903  0.0091  0.2508
  471loPI   GL2 7526   6.640   3.577   8.983 -0.1340 -0.1585 -0.1516
  471loPI   C1A 7527   6.071   3.636   8.721  0.0362 -0.2226  0.1546
  471loPI   C2A 7528   6.107   3.665   8.289 -0.0809  0.3654  0.1688
  471loPI   C3A 7529   6.066   3.726   7.842 -0.1164  0.0236 -0.2588
  471loPI   C4A 7530   6.102   3.797   7.431  0.0130 -0.0639 -0.0450
  471loPI   C5A 7531   6.017   3.871   7.029 -0.1458  0.2740  0.0139
  471loPI   C6A 7532   6.175   3.853   6.659  0.1444  0.2071  0.0420
  471loPI   C1B 7533   6.599   3.804   8.580 -0.1113  0.1438 -0.0544
  471loPI   C2B 7534   6.551   3.948   8.160 -0.0138 -0.0814  0.0940
  471loPI   C3B 7535   6.625   4.086   7.669  0.1473  0.0738 -0.3643
  471loPI   C4B 7536   6.550   4.024   7.296  0.0165 -0.2697 -0.1247
  472loPI    C1 7537  14.554   9.943   9.678  0.0464 -0.0270 -0.3286
  472loPI    C2 7538  14.690  10.294   9.544  0.0712  0.1586  0.1647
  472loPI    C3 7539  14.718  10.203   9.933 -0.3590 -0.1961  0.1211
  472loPI   PO4 7540  14.645   9.803   9.474  0.0204  0.2217  0.1617
  472loPI   GL1 7541  14.589   9.872   9.051 -0.1108 -0.0851 -0.0565
  472loPI   GL2 7542  14.823   9.796   8.852  0.2721 -0.2286 -0.0146
  472loPI   C1A 7543  14.557  10.343   8.767  0.1535  0.2071  0.2193
  472loPI   C2A 7544  14.567  10.435   8.272  0.0315 -0.0169 -0.1795
  472loPI   C3A 7545  14.565  10.481   7.860 -0.1814 -0.4599  0.4213
  472loPI   C4A 7546  14.354  10.175   7.651 -0.0516 -0.2377 -0.0244
  472loPI   C5A 7547  14.044   9.967   7.406 -0.2724  0.0897 -0.0817
  472loPI   C6A 7548  13.650  10.012   7.322  0.1601 -0.4370 -0.1379
  472loPI   C1B 7549  14.632   9.919   8.441 -0.0454 -0.3811  0.0709
  472loPI   C2B 7550  14.756   9.907   8.073 -0.0254  0.0168  0.0813
  472loPI   C3B 7551  14.769   9.842   7.619 -0.0972  0.4474 -0.0959
  472loPI   C4B 7552  14.706  10.014   7.122 -0.4455  0.0809 -0.1812
  473loPI    C1 7553   1.438   4.436   9.312  0.1360 -0.0071 -0.0399
  473loPI    C2 7554   1.818   4.378   9.423  0.2034  0.2531 -0.1268
  473loPI    C3 7555   1.600   4.665   9.598 -0.1072 -0.2035  0.2611
  473loPI   PO4 7556   1.454   4.324   9.043 -0.2880  0.1409 -0.2255
  473loPI   GL1 7557   1.450   4.172   8.641  0.3173 -0.0643 -0.0368
  473loPI   GL2 7558   1.635   3.943   8.607  0.0792  0.0735 -0.2020
  473loPI   C1A 7559   1.204   4.068   8.261 -0.3106  0.2915 -0.1677
  473loPI   C2A 7560   1.249   4.153   7.831 -0.0949  0.0352 -0.0237
  473loPI   C3A 7561   1.367   4.150   7.344  0.1326  0.0130 -0.1774
  473loPI   C4A 7562   1.511   3.879   6.937 -0.0380 -0.4547  0.1692
  473loPI   C5A 7563   1.722   3.757   6.602  0.1826  0.0266  0.0920
  473loPI   C6A 7564   2.102   3.518   6.453 -0.4948  0.0907  0.0066
  473loPI   C1B 7565   1.742   4.184   8.170  0.3522 -0.0414 -0.1039
  473loPI   C2B 7566   1.755   4.080   7.684  0.0625  0.1849  0.2711
  473loPI   C3B 7567   1.898   4.039   7.295 -0.0038 -0.1271  0.0545
  473loPI   C4B 7568   2.081   4.020   6.973  0.0309 -0.1421 -0.5207
  474loPI    C1 7569   0.120   1.678   9.832 -0.1872 -0.2393  0.0394
  474loPI    C2 7570   0.143   1.298   9.954 -0.0900 -0.2067  0.1244
  474loPI    C3 7571   0.378   1.575  10.119 -0.3250 -0.0661  0.2279
  474loPI   PO4 7572   0.258   1.672   9.493 -0.1676  0.0032  0.3146
  474loPI   GL1 7573   0.398   1.514   9.057 -0.2502 -0.0072  0.1133
  474loPI   GL2 7574   0.328   1.832   9.068 -0.0221 -0.1566 -0.1356
  474loPI   C1A 7575   0.643   1.434   8.646 -0.0542  0.0753  0.2005
  474loPI   C2A 7576   0.876   1.221   8.308 -0.2419 -0.2056 -0.0931
  474loPI   C3A 7577   1.121   0.915   8.142  0.1492  0.1871 -0.3228
  474loPI   C4A 7578   1.172   1.062   7.830 -0.2412  0.1622 -0.1658
  474loPI   C5A 7579   1.133   1.034   7.509  0.2052 -0.1478  0.0772
  474loPI   C6A 7580   0.761   1.066   7.222 -0.1527  0.0970  0.2359
  474loPI   C1B 7581   0.090   1.604   8.685 -0.1901 -0.2327  0.2060
  474loPI   C2B 7582   0.315   1.568   8.259  0.0099 -0.1506  0.2398
  474loPI   C3B 7583   0.444   1.167   8.065  0.0329  0.3419 -0.0094
  474loPI   C4B 7584   0.701   1.099   7.755 -0.1322  0.2057  0.0761
  475loPI    C1 7585  19.183   3.654   9.471 -0.0372  0.2461 -0.2240
  475loPI    C2 7586  19.555   3.682   9.614 -0.0721  0.1989 -0.1231
  475loPI    C3 7587  19.271   3.928   9.750 -0.1756 -0.0484  0.1165
  475loPI   PO4 7588  19.250   3.670   9.125 -0.1829 -0.0366  0.2398
  475loPI   GL1 7589  19.408   3.781   8.765 -0.1183  0.1004  0.3209
  475loPI   GL2 7590  19.575   4.165   8.695 -0.1307  0.0574  0.0966
  475loPI   C1A 7591  19.525   3.629   8.376 -0.0710 -0.1267 -0.2840
  475loPI   C2A 7592  19.748   3.618   7.985 -0.1504  0.0315  0.1959
  475loPI   C3A 7593  19.901   3.919   7.714  0.1716 -0.0797 -0.2788
  475loPI   C4A 7594  19.724   4.100   7.279  0.1571  0.0269  0.2729
  475loPI   C5A 7595  19.754   4.119   6.766  0.0477 -0.0775 -0.1226
  475loPI   C6A 7596  19.674   3.854   6.620 -0.0147  0.2291 -0.0927
  475loPI   C1B 7597  19.782   4.091   8.368 -0.2108 -0.1111  0.0457
  475loPI   C2B 7598  19.720   4.310   7.909  0.1320 -0.4029 -0.1465
  475loPI   C3B 7599  19.821   4.598   7.724  0.2603  0.0704 -0.0184
  475loPI   C4B 7600  19.989   4.881   7.381 -0.3338  0.1560 -0.0395
  476loPI    C1 7601   8.857  17.465   9.370 -0.2558 -0.2789 -0.2034
  476loPI    C2 7602   8.828  17.198   9.666 -0.1369 -0.0958 -0.0240
  476loPI    C3 7603   8.596  17.524   9.667 -0.0753 -0.0513 -0.0861
  476loPI   PO4 7604   8.758  17.350   9.156  0.0688 -0.1715  0.2076
  476loPI   GL1 7605   8.713  17.255   8.707 -0.3759 -0.1842 -0.1134
  476loPI   GL2 7606   8.868  17.498   8.600 -0.2176 -0.1803  0.0140
  476loPI   C1A 7607   8.608  17.178   8.191  0.0175  0.2919  0.2677
  476loPI   C2A 7608   8.449  16.792   8.047 -0.0464  0.1852  0.1356
  476loPI   C3A 7609   8.610  16.622   7.644 -0.1858 -0.0890  0.0425
  476loPI   C4A 7610   8.527  16.484   7.203 -0.0449  0.0862  0.1245
  476loPI   C5A 7611   8.527  16.684   6.794 -0.3539 -0.0891 -0.0969
  476loPI   C6A 7612   8.212  16.779   6.450 -0.0703 -0.0483  0.0243
  476loPI   C1B 7613   9.031  17.420   8.232 -0.1126 -0.3829  0.1429
  476loPI   C2B 7614   9.035  17.500   7.793 -0.1650  0.3074 -0.2764
  476loPI   C3B 7615   9.115  17.514   7.446 -0.0444 -0.0657  0.0397
  476loPI   C4B 7616   9.049  17.406   7.101 -0.0427  0.0995 -0.3089
  477loPI    C1 7617   6.182  16.264   9.065 -0.0755 -0.1338  0.1644
  477loPI    C2 7618   6.249  16.652   9.135  0.1447 -0.0934 -0.2397
  477loPI    C3 7619   6.232  16.394   9.440  0.0132  0.2276  0.0316
  477loPI   PO4 7620   6.077  16.237   8.876  0.0051 -0.0835 -0.1410
  477loPI   GL1 7621   6.137  16.276   8.455  0.1925 -0.1950 -0.2985
  477loPI   GL2 7622   6.402  16.209   8.386  0.4731 -0.2284 -0.1175
  477loPI   C1A 7623   6.015  16.605   8.127 -0.0343  0.0222 -0.2504
  477loPI   C2A 7624   5.855  16.719   7.819 -0.2538  0.4184 -0.3384
  477loPI   C3A 7625   5.909  16.836   7.444 -0.0238 -0.2428  0.0256
  477loPI   C4A 7626   5.885  17.015   7.070 -0.2187  0.1991 -0.0806
  477loPI   C5A 7627   6.241  16.928   6.786 -0.1694 -0.3814  0.1918
  477loPI   C6A 7628   6.454  16.634   6.547  0.0663 -0.0006  0.3556
  477loPI   C1B 7629   6.357  16.102   8.017 -0.0799 -0.1058 -0.2184
  477loPI   C2B 7630   6.341  16.018   7.589  0.0457 -0.3209  0.0989
  477loPI   C3B 7631   6.043  15.928   7.171 -0.0383 -0.0983 -0.0434
  477loPI   C4B 7632   5.785  15.876   6.855  0.3863 -0.1427 -0.2299
  478loPI    C1 7633   3.651  17.666   8.933 -0.0156 -0.3123  0.0380
  478loPI    C2 7634   3.340  17.562   9.162 -0.1215  0.0857  0.0827
  478loPI    C3 7635   3.666  17.724   9.328  0.0795 -0.2489  0.0255
  478loPI   PO4 7636   3.542  17.818   8.634 -0.0655  0.2280  0.1379
  478loPI   GL1 7637   3.239  17.924   8.219  0.3064 -0.1739 -0.1776
  478loPI   GL2 7638   3.032  17.647   8.166 -0.0049 -0.1902  0.0780
  478loPI   C1A 7639   3.395  18.049   7.929 -0.0061 -0.0471  0.1763
  478loPI   C2A 7640   3.688  18.072   7.707 -0.4104 -0.2453 -0.0573
  478loPI   C3A 7641   3.943  18.174   7.456 -0.1340  0.1062  0.0602
  478loPI   C4A 7642   4.207  18.307   7.200  0.0111  0.3726 -0.3049
  478loPI   C5A 7643   4.437  18.411   6.832 -0.1808  0.0312  0.0728
  478loPI   C6A 7644   4.480  18.527   6.399  0.1192 -0.1073 -0.0842
  478loPI   C1B 7645   3.045  17.776   7.673 -0.0663 -0.2799 -0.3831
  478loPI   C2B 7646   2.925  17.976   7.288  0.1421 -0.0153  0.2021
  478loPI   C3B 7647   3.138  18.169   6.916  0.3407  0.3233 -0.2350
  478loPI   C4B 7648   3.486  17.939   6.650  0.1317 -0.2586  0.2736
  479loPI    C1 7649  10.909   5.202   9.614  0.2003 -0.2865 -0.0860
  479loPI    C2 7650  10.895   5.541   9.827  0.0399 -0.1081 -0.3732
  479loPI    C3 7651  11.243   5.349   9.777  0.0554 -0.2390  0.1739
  479loPI   PO4 7652  10.810   5.226   9.416  0.2636  0.0781 -0.1946
  479loPI   GL1 7653  10.827   5.298   9.063  0.1702 -0.1988 -0.0533
  479loPI   GL2 7654  10.731   4.933   8.949  0.2037 -0.1315 -0.0351
  479loPI   C1A 7655  10.699   5.373   8.621  0.3154 -0.2113  0.0849
  479loPI   C2A 7656  10.758   5.230   8.307 -0.2761  0.2691 -0.1262
  479loPI   C3A 7657  10.866   5.189   7.887 -0.3160  0.1139  0.3411
  479loPI   C4A 7658  11.274   4.976   7.664  0.0648  0.1377  0.1503
  479loPI   C5A 7659  11.575   4.871   7.268  0.0225  0.1737  0.1366
  479loPI   C6A 7660  11.839   4.628   6.947 -0.3185  0.0660  0.0022
  479loPI   C1B 7661  10.503   4.883   8.539 -0.1409 -0.2633 -0.3068
  479loPI   C2B 7662  10.374   4.850   8.179 -0.2214 -0.0466 -0.1941
  479loPI   C3B 7663  10.453   4.958   7.712  0.0203 -0.0704  0.1434
  479loPI   C4B 7664  10.794   5.173   7.370  0.3656  0.0905  0.1592
  480loPI    C1 7665   2.850   6.578   9.486 -0.0586  0.2927  0.0449
  480loPI    C2 7666   2.711   6.343   9.778  0.0024  0.0880 -0.0893
  480loPI    C3 7667   3.085   6.485   9.797 -0.0130  0.1221 -0.0394
  480loPI   PO4 7668   2.663   6.672   9.206 -0.1701 -0.0933 -0.2176
  480loPI   GL1 7669   2.658   6.668   8.710  0.1785  0.0167 -0.1992
  480loPI   GL2 7670   2.392   6.836   8.663  0.2109 -0.0897 -0.2245
  480loPI   C1A 7671   2.746   6.844   8.231 -0.0268  0.0993 -0.1176
  480loPI   C2A 7672   2.655   7.013   7.751 -0.1078  0.0462  0.2327
  480loPI   C3A 7673   2.490   6.842   7.450 -0.1003  0.1353 -0.2751
  480loPI   C4A 7674   2.381   6.744   6.964 -0.0302 -0.3005 -0.0170
  480loPI   C5A 7675   2.612   6.777   6.491 -0.4089 -0.1148  0.4914
  480loPI   C6A 7676   3.023   6.798   6.292 -0.2085  0.0591 -0.0262
  480loPI   C1B 7677   2.252   6.895   8.293  0.2788  0.0187  0.0140
  480loPI   C2B 7678   2.239   7.040   7.955 -0.0619  0.3802 -0.2519
  480loPI   C3B 7679   2.217   7.240   7.492 -0.1012  0.1923  0.2982
  480loPI   C4B 7680   2.078   7.320   7.054  0.1406  0.1580  0.0908
  481loPI    C1 7681   6.932   9.443   9.732 -0.0066 -0.1862  0.1472
  481loPI    C2 7682   6.643   9.683   9.869  0.2155  0.1441  0.0504
  481loPI    C3 7683   6.706   9.327  10.040 -0.3305  0.0086 -0.0122
  481loPI   PO4 7684   6.965   9.409   9.491  0.3315 -0.1185 -0.0324
  481loPI   GL1 7685   7.036   9.393   9.077  0.0028  0.0496 -0.2411
  481loPI   GL2 7686   6.780   9.445   9.034  0.0792  0.1665  0.0025
  481loPI   C1A 7687   6.822   9.021   8.667 -0.4244 -0.0664  0.2778
  481loPI   C2A 7688   6.708   8.920   8.262  0.0972 -0.2204 -0.0376
  481loPI   C3A 7689   6.723   8.548   7.947 -0.2088  0.1003 -0.0745
  481loPI   C4A 7690   6.524   8.463   7.582 -0.2441 -0.0722 -0.0519
  481loPI   C5A 7691   6.347   8.363   7.110  0.0199 -0.1986 -0.2940
  481loPI   C6A 7692   6.169   8.476   6.619  0.0276 -0.3620 -0.3451
  481loPI   C1B 7693   6.957   9.717   8.698 -0.2982  0.1720  0.2036
  481loPI   C2B 7694   6.886   9.801   8.277 -0.1328 -0.2577 -0.1194
  481loPI   C3B 7695   6.837   9.802   7.872 -0.2192 -0.2224  0.1442
  481loPI   C4B 7696   6.838   9.578   7.422  0.2475 -0.1250  0.0264
  482loPI    C1 7697   5.560  19.060   9.101 -0.2164  0.0414  0.1388
  482loPI    C2 7698   5.482  18.809   9.402  0.1416 -0.1956  0.0392
  482loPI    C3 7699   5.611  19.179   9.479 -0.0686 -0.1502  0.1804
  482loPI   PO4 7700   5.804  19.062   8.865  0.0139 -0.3222 -0.1353
  482loPI   GL1 7701   5.806  19.140   8.464 -0.1286 -0.0118  0.0730
  482loPI   GL2 7702   6.134  19.110   8.440  0.2143  0.0876 -0.2276
  482loPI   C1A 7703   5.796  18.847   8.138 -0.3985 -0.0745 -0.0796
  482loPI   C2A 7704   5.701  18.761   7.725  0.0463 -0.2236  0.1584
  482loPI   C3A 7705   5.580  18.964   7.442 -0.0671  0.2500  0.0087
  482loPI   C4A 7706   5.710  19.041   7.125 -0.0489 -0.0156  0.0122
  482loPI   C5A 7707   5.715  18.938   6.751 -0.2385 -0.0852 -0.0347
  482loPI   C6A 7708   5.423  18.645   6.491 -0.0779 -0.2555 -0.1840
  482loPI   C1B 7709   6.004  19.277   8.042  0.0557  0.0080  0.1056
  482loPI   C2B 7710   5.616  19.242   7.893 -0.0663  0.0893 -0.2766
  482loPI   C3B 7711   5.203  19.023   7.804  0.1213  0.2263 -0.1749
  482loPI   C4B 7712   4.857  18.792   7.829  0.4318  0.0928 -0.1377
  483loPI    C1 7713  14.766   9.014   9.725 -0.0609  0.2819 -0.0758
  483loPI    C2 7714  14.372   8.982   9.784 -0.0472  0.0694 -0.0902
  483loPI    C3 7715  14.625   8.901  10.082 -0.0101  0.0649 -0.1228
  483loPI   PO4 7716  14.728   9.215   9.542 -0.1682 -0.2722 -0.2285
  483loPI   GL1 7717  14.926   9.480   9.198 -0.0180  0.0698 -0.5798
  483loPI   GL2 7718  15.294   9.570   9.136 -0.4275 -0.1245 -0.1944
  483loPI   C1A 7719  14.996   9.272   8.833 -0.0211  0.0422 -0.0715
  483loPI   C2A 7720  15.091   9.340   8.458  0.0020  0.0813 -0.0461
  483loPI   C3A 7721  15.000   9.414   8.080 -0.1436  0.1175 -0.3778
  483loPI   C4A 7722  14.960   9.386   7.678  0.0428 -0.0013 -0.0546
  483loPI   C5A 7723  14.757   9.470   7.239 -0.3156 -0.0748  0.1471
  483loPI   C6A 7724  14.606   9.598   6.834  0.0477 -0.0547 -0.0763
  483loPI   C1B 7725  15.263   9.812   8.768 -0.3112 -0.2210  0.2323
  483loPI   C2B 7726  15.348   9.769   8.368 -0.0604 -0.1169 -0.2706
  483loPI   C3B 7727  15.223   9.770   7.830 -0.2218 -0.0348  0.0225
  483loPI   C4B 7728  15.207   9.959   7.345  0.0950 -0.2975  0.0105
  484loPI    C1 7729  16.855  14.085   9.979 -0.1015 -0.0636 -0.3158
  484loPI    C2 7730  16.511  14.221   9.826 -0.1143  0.2866  0.0081
  484loPI    C3 7731  16.603  14.296  10.207  0.1625 -0.1104  0.0259
  484loPI   PO4 7732  16.975  14.082   9.718 -0.0079 -0.0731 -0.0147
  484loPI   GL1 7733  17.051  14.329   9.458 -0.1441  0.0962  0.2317
  484loPI   GL2 7734  16.981  14.184   9.176  0.3048 -0.2677 -0.1476
  484loPI   C1A 7735  17.482  14.303   9.080  0.5495 -0.0579 -0.1401
  484loPI   C2A 7736  17.508  14.353   8.676 -0.0015  0.2764 -0.0924
  484loPI   C3A 7737  17.485  14.318   8.148 -0.0903 -0.0172  0.1952
  484loPI   C4A 7738  17.643  14.430   7.709  0.4681 -0.2591  0.2713
  484loPI   C5A 7739  17.688  14.710   7.327  0.0995  0.2171  0.1425
  484loPI   C6A 7740  17.372  15.015   7.169 -0.0119 -0.1375  0.2684
  484loPI   C1B 7741  16.978  14.543   8.863 -0.1829  0.1915  0.1551
  484loPI   C2B 7742  16.757  14.467   8.581 -0.1060  0.0914 -0.5929
  484loPI   C3B 7743  16.697  14.391   8.116 -0.2095  0.3093  0.0574
  484loPI   C4B 7744  16.539  14.284   7.697 -0.1986  0.1977  0.3522
  485loPI    C1 7745  19.322   6.980   9.371  0.0583 -0.2786 -0.0499
  485loPI    C2 7746  19.570   7.137   9.644  0.0975 -0.1144 -0.1783
  485loPI    C3 7747  19.223   6.975   9.759 -0.0061  0.1887 -0.0543
  485loPI   PO4 7748  19.226   7.192   9.254  0.0274  0.3617 -0.1561
  485loPI   GL1 7749  19.292   7.382   8.919  0.2872  0.1344 -0.0578
  485loPI   GL2 7750  19.513   7.360   8.775  0.1792  0.1581  0.1346
  485loPI   C1A 7751  19.172   7.666   8.509 -0.0302 -0.0672 -0.1933
  485loPI   C2A 7752  18.986   7.769   8.185  0.1455 -0.1565  0.1719
  485loPI   C3A 7753  18.978   7.871   7.748 -0.2425  0.2912 -0.1246
  485loPI   C4A 7754  18.720   7.767   7.361 -0.1424 -0.2544 -0.0974
  485loPI   C5A 7755  18.703   8.012   6.969  0.3705  0.1220  0.0828
  485loPI   C6A 7756  18.677   8.401   6.800  0.0459  0.3716  0.0096
  485loPI   C1B 7757  19.446   7.363   8.282 -0.2594 -0.0372  0.3651
  485loPI   C2B 7758  19.255   7.309   7.811  0.0036 -0.1198 -0.3320
  485loPI   C3B 7759  19.270   7.362   7.389  0.1641 -0.0662  0.3136
  485loPI   C4B 7760  19.056   7.556   7.009 -0.2560  0.2700  0.1891
  486loPI    C1 7761   4.703  14.457   9.607 -0.2006 -0.1764  0.0330
  486loPI    C2 7762   4.861  14.816   9.685 -0.0586 -0.1947 -0.1641
  486loPI    C3 7763   4.715  14.593   9.983 -0.3285  0.1096 -0.0634
  486loPI   PO4 7764   4.718  14.527   9.255  0.0067 -0.2060  0.0358
  486loPI   GL1 7765   4.788  14.432   8.807  0.0417 -0.0245 -0.1034
  486loPI   GL2 7766   5.096  14.479   8.691  0.3536  0.2065 -0.1236
  486loPI   C1A 7767   4.721  14.570   8.282 -0.0333 -0.0173  0.1335
  486loPI   C2A 7768   4.553  14.736   7.946  0.0913 -0.2538  0.4411
  486loPI   C3A 7769   4.490  14.685   7.566 -0.1743 -0.0236 -0.0026
  486loPI   C4A 7770   4.514  14.665   7.135 -0.0707 -0.3101 -0.1897
  486loPI   C5A 7771   4.346  14.702   6.835 -0.2424  0.3119  0.3896
  486loPI   C6A 7772   4.102  15.164   6.807 -0.0697 -0.1153  0.1960
  486loPI   C1B 7773   5.104  14.247   8.185 -0.1938  0.0283 -0.2866
  486loPI   C2B 7774   4.829  14.377   7.773  0.5081 -0.1208 -0.2405
  486loPI   C3B 7775   4.671  14.230   7.437 -0.1006  0.0147  0.0259
  486loPI   C4B 7776   4.639  14.039   7.086 -0.3221 -0.0883 -0.1835
  487loPI    C1 7777   5.672  15.834   9.329  0.0459 -0.2217  0.1594
  487loPI    C2 7778   5.841  16.117   9.557  0.0938  0.0030 -0.1487
  487loPI    C3 7779   5.597  15.846   9.722 -0.1057  0.3399  0.1222
  487loPI   PO4 7780   5.619  16.041   9.144  0.3112  0.5772 -0.2011
  487loPI   GL1 7781   5.667  15.950   8.654 -0.0989  0.1223 -0.0871
  487loPI   GL2 7782   5.623  16.246   8.603 -0.2138  0.0535 -0.2361
  487loPI   C1A 7783   5.824  15.925   8.249 -0.3236  0.1081 -0.0961
  487loPI   C2A 7784   5.889  15.983   7.817 -0.0868 -0.0745 -0.2156
  487loPI   C3A 7785   5.868  16.304   7.454 -0.0554  0.1179 -0.0335
  487loPI   C4A 7786   5.524  16.533   7.250  0.4560  0.0469 -0.0090
  487loPI   C5A 7787   5.158  16.743   7.006  0.2843 -0.0907  0.0552
  487loPI   C6A 7788   4.902  16.656   6.615  0.0057 -0.1327  0.1592
  487loPI   C1B 7789   5.548  16.453   8.178  0.0413  0.1597  0.2270
  487loPI   C2B 7790   5.489  16.408   7.743 -0.1160 -0.0695  0.0879
  487loPI   C3B 7791   5.382  16.111   7.434  0.1414 -0.1122  0.0081
  487loPI   C4B 7792   5.081  15.808   7.394 -0.3526  0.2190  0.1515
  488loPI    C1 7793  15.671  18.550   9.754 -0.0706  0.2097  0.0420
  488loPI    C2 7794  15.293  18.486   9.867  0.0311 -0.0576  0.2412
  488loPI    C3 7795  15.593  18.314  10.067  0.2491 -0.0140 -0.0423
  488loPI   PO4 7796  15.676  18.557   9.516  0.1871  0.0294 -0.1179
  488loPI   GL1 7797  15.878  18.575   9.147 -0.2381  0.1715  0.1132
  488loPI   GL2 7798  15.872  18.304   9.092  0.0562  0.0353  0.2880
  488loPI   C1A 7799  15.659  18.759   8.863 -0.0727  0.0717 -0.0567
  488loPI   C2A 7800  15.827  18.887   8.395  0.3872 -0.2279  0.4295
  488loPI   C3A 7801  15.812  18.832   7.939 -0.0458  0.1065 -0.0887
  488loPI   C4A 7802  15.782  18.952   7.608  0.1514 -0.0193  0.0801
  488loPI   C5A 7803  15.463  19.002   7.277 -0.0725  0.2274  0.2067
  488loPI   C6A 7804  15.247  19.062   6.853 -0.1267  0.3868 -0.0358
  488loPI   C1B 7805  16.032  18.522   8.664  0.0174 -0.1980  0.0143
  488loPI   C2B 7806  16.155  18.519   8.245  0.3889 -0.3684 -0.0050
  488loPI   C3B 7807  16.084  18.416   7.739  0.1341 -0.1538  0.1340
  488loPI   C4B 7808  16.426  18.351   7.413 -0.2251  0.3692  0.1758
  489loPI    C1 7809  19.020   6.316   9.818  0.1655  0.0844  0.1363
  489loPI    C2 7810  18.861   6.240  10.177  0.2717  0.1653  0.2013
  489loPI    C3 7811  18.971   6.612  10.082 -0.1181  0.2195 -0.0628
  489loPI   PO4 7812  18.888   6.221   9.663  0.0076  0.2243 -0.0135
  489loPI   GL1 7813  18.599   6.319   9.291 -0.0327 -0.1369 -0.1773
  489loPI   GL2 7814  18.622   6.451   9.019 -0.2045 -0.0462  0.2041
  489loPI   C1A 7815  18.573   5.989   8.903 -0.2557 -0.0683  0.0918
  489loPI   C2A 7816  18.556   5.953   8.505 -0.5140 -0.0606  0.0653
  489loPI   C3A 7817  18.497   6.116   8.038 -0.1232 -0.0850  0.1997
  489loPI   C4A 7818  18.322   6.042   7.703  0.1008 -0.3477 -0.0665
  489loPI   C5A 7819  17.972   5.980   7.490 -0.3760 -0.0348  0.2642
  489loPI   C6A 7820  17.562   5.582   7.535  0.0570 -0.1332 -0.0843
  489loPI   C1B 7821  18.329   6.444   8.665  0.3275 -0.1780  0.1089
  489loPI   C2B 7822  18.075   6.364   8.220 -0.3301  0.2173 -0.1551
  489loPI   C3B 7823  17.874   6.317   7.883  0.0906  0.2546  0.2324
  489loPI   C4B 7824  17.547   6.206   7.660 -0.0273  0.1520 -0.0239
  490loPI    C1 7825  12.361  14.897   9.556  0.0265  0.0379 -0.0889
  490loPI    C2 7826  12.163  14.673   9.822 -0.2812  0.2461 -0.1370
  490loPI    C3 7827  12.188  15.069   9.873  0.3618  0.1975  0.0117
  490loPI   PO4 7828  12.623  14.714   9.492 -0.0384 -0.1879 -0.3924
  490loPI   GL1 7829  12.791  14.494   9.147 -0.4543 -0.1200 -0.0560
  490loPI   GL2 7830  12.551  14.308   9.076 -0.0348 -0.0434  0.2028
  490loPI   C1A 7831  12.883  14.884   8.932  0.0281 -0.0984  0.1858
  490loPI   C2A 7832  12.730  14.973   8.467 -0.4169  0.1551 -0.0053
  490loPI   C3A 7833  12.603  14.930   7.961  0.2882 -0.2519  0.1289
  490loPI   C4A 7834  12.708  14.658   7.536  0.0860 -0.2581 -0.0998
  490loPI   C5A 7835  12.600  14.682   7.099  0.3188  0.0250  0.0267
  490loPI   C6A 7836  12.826  14.489   6.812 -0.0097 -0.1033  0.0907
  490loPI   C1B 7837  12.702  14.529   8.634 -0.2273  0.0951 -0.2162
  490loPI   C2B 7838  12.409  14.504   8.309 -0.1011 -0.3722 -0.0111
  490loPI   C3B 7839  12.253  14.390   8.008 -0.1174  0.1542  0.3055
  490loPI   C4B 7840  12.396  14.289   7.533  0.0881 -0.0365 -0.1689
  491loPI    C1 7841  15.045   5.529   9.698 -0.0052 -0.1237 -0.0326
  491loPI    C2 7842  14.710   5.747   9.728  0.1198  0.0280  0.3158
  491loPI    C3 7843  14.770   5.514   9.408 -0.1307  0.3115  0.0567
  491loPI   PO4 7844  15.272   5.738   9.705  0.0877  0.0470 -0.3530
  491loPI   GL1 7845  15.320   6.071   9.346 -0.2518 -0.0365 -0.0350
  491loPI   GL2 7846  14.986   5.972   9.345  0.2055  0.2706  0.1999
  491loPI   C1A 7847  15.368   5.875   8.856  0.0264 -0.1901  0.1243
  491loPI   C2A 7848  15.505   5.863   8.462 -0.2020 -0.0234  0.2493
  491loPI   C3A 7849  15.743   5.994   8.063  0.1392 -0.1522  0.0081
  491loPI   C4A 7850  15.534   6.016   7.659 -0.1167 -0.1443 -0.1397
  491loPI   C5A 7851  15.070   6.227   7.597 -0.0739 -0.0997  0.0514
  491loPI   C6A 7852  14.646   6.355   7.390  0.0447 -0.1947 -0.0632
  491loPI   C1B 7853  14.801   5.739   8.945  0.0010 -0.1079  0.0095
  491loPI   C2B 7854  14.874   5.564   8.546 -0.0769  0.2941 -0.1636
  491loPI   C3B 7855  15.166   5.557   8.132  0.0317 -0.1895  0.0496
  491loPI   C4B 7856  15.120   5.659   7.742  0.0412  0.2916  0.0487
  492loPI    C1 7857   5.212  17.481   9.015  0.1954 -0.1865  0.1707
  492loPI    C2 7858   5.189  17.716   9.338 -0.2936 -0.0326  0.0320
  492loPI    C3 7859   4.983  17.374   9.325  0.0591 -0.2504  0.0488
  492loPI   PO4 7860   5.247  17.667   8.874 -0.1283  0.5325  0.1653
  492loPI   GL1 7861   5.207  17.706   8.493 -0.0378  0.0695  0.1201
  492loPI   GL2 7862   5.078  17.996   8.550 -0.0303 -0.1207  0.3007
  492loPI   C1A 7863   5.330  17.468   8.167  0.1889  0.0868 -0.1972
  492loPI   C2A 7864   5.321  17.490   7.767  0.2507 -0.2408 -0.1289
  492loPI   C3A 7865   5.519  17.509   7.312 -0.0598  0.0091 -0.0832
  492loPI   C4A 7866   5.590  17.381   6.979 -0.1069 -0.1183  0.3260
  492loPI   C5A 7867   5.584  17.646   6.644 -0.1993  0.4626  0.0151
  492loPI   C6A 7868   6.008  17.921   6.586 -0.2167  0.0882 -0.0736
  492loPI   C1B 7869   5.357  17.975   8.049  0.2281 -0.4505 -0.0624
  492loPI   C2B 7870   5.356  17.949   7.586  0.1474  0.4806 -0.1308
  492loPI   C3B 7871   5.458  17.976   7.050 -0.1012  0.3289 -0.0410
  492loPI   C4B 7872   5.599  18.197   6.672  0.2976  0.0959  0.1534
  493loPI    C1 7873  17.450   0.504   9.584  0.0562  0.1729 -0.1507
  493loPI    C2 7874  17.573   0.834   9.774  0.0946  0.0473  0.0454
  493loPI    C3 7875  17.728   0.478   9.870 -0.1204 -0.0594  0.0031
  493loPI   PO4 7876  17.228   0.621   9.414  0.3675  0.0463 -0.1944
  493loPI   GL1 7877  17.383   0.882   9.115 -0.0166  0.0590  0.0572
  493loPI   GL2 7878  17.357   1.208   9.140 -0.0805  0.1241  0.1801
  493loPI   C1A 7879  17.295   0.632   8.742 -0.2829  0.0981  0.3892
  493loPI   C2A 7880  17.174   0.670   8.452  0.0200 -0.1759  0.0621
  493loPI   C3A 7881  17.459   0.749   8.036 -0.0661 -0.0834 -0.3359
  493loPI   C4A 7882  17.300   0.773   7.689 -0.3415 -0.1055  0.1031
  493loPI   C5A 7883  16.960   0.798   7.474 -0.0366 -0.0440  0.2491
  493loPI   C6A 7884  16.703   0.447   7.126  0.1043 -0.1275  0.1300
  493loPI   C1B 7885  17.119   1.206   8.754  0.1729  0.1927 -0.0151
  493loPI   C2B 7886  17.140   1.185   8.337 -0.0775 -0.0404 -0.2462
  493loPI   C3B 7887  17.040   1.208   7.824 -0.0593  0.2294  0.2789
  493loPI   C4B 7888  16.769   1.325   7.486  0.3871  0.1068  0.0466
  494loPI    C1 7889  19.392  16.355   9.806 -0.1842  0.0267 -0.0824
  494loPI    C2 7890  19.655  16.604   9.635  0.0658 -0.1372  0.0572
  494loPI    C3 7891  19.660  16.548  10.031 -0.0228 -0.3242  0.0331
  494loPI   PO4 7892  19.337  16.125   9.568 -0.3379  0.0316 -0.0504
  494loPI   GL1 7893  19.426  15.921   9.167  0.0343  0.0897 -0.0656
  494loPI   GL2 7894  19.207  16.110   9.124  0.1543  0.2012  0.3264
  494loPI   C1A 7895  19.258  15.779   8.743 -0.0490  0.1997  0.0899
  494loPI   C2A 7896  19.243  15.599   8.339  0.1405  0.0191  0.1310
  494loPI   C3A 7897  18.964  15.597   7.985 -0.2138  0.0183 -0.2690
  494loPI   C4A 7898  18.718  15.644   7.670 -0.0353 -0.2734  0.4888
  494loPI   C5A 7899  18.658  15.751   7.218  0.0929 -0.0893  0.1895
  494loPI   C6A 7900  18.780  15.608   6.761  0.0044 -0.1590 -0.1548
  494loPI   C1B 7901  19.028  16.237   8.761 -0.2454  0.0171  0.4306
  494loPI   C2B 7902  19.043  16.271   8.292 -0.1526 -0.3455  0.3178
  494loPI   C3B 7903  18.988  16.339   7.900  0.0391  0.2033 -0.3821
  494loPI   C4B 7904  18.930  16.423   7.457 -0.0317 -0.1863 -0.1496
  495loPI    C1 7905   9.290  15.579   9.482 -0.0890  0.2114  0.1161
  495loPI    C2 7906   9.622  15.492   9.687 -0.0782 -0.0522 -0.0093
  495loPI    C3 7907   9.275  15.322   9.788 -0.1962  0.2872  0.1757
  495loPI   PO4 7908   9.398  15.936   9.282  0.1090  0.0379 -0.0182
  495loPI   GL1 7909   9.530  16.013   8.858  0.1936  0.0186 -0.4337
  495loPI   GL2 7910   9.390  15.753   8.611 -0.0991  0.1827 -0.4151
  495loPI   C1A 7911   9.688  16.167   8.434 -0.0205 -0.1584  0.2084
  495loPI   C2A 7912   9.759  16.075   7.986  0.1467 -0.0169 -0.0973
  495loPI   C3A 7913   9.804  16.050   7.508 -0.0625 -0.0469 -0.3462
  495loPI   C4A 7914   9.931  16.104   7.086  0.1684 -0.0187  0.0832
  495loPI   C5A 7915   9.985  15.826   6.850  0.4206  0.4074  0.0809
  495loPI   C6A 7916  10.223  15.818   6.462 -0.1951  0.2765 -0.2997
  495loPI   C1B 7917   9.220  15.469   8.254 -0.3256  0.1713  0.0760
  495loPI   C2B 7918   9.112  15.469   7.839 -0.2264  0.0422  0.2502
  495loPI   C3B 7919   8.890  15.389   7.483 -0.1353  0.1388  0.2431
  495loPI   C4B 7920   8.923  15.215   7.082 -0.1690  0.3710  0.0360
  496loPI    C1 7921  14.614  12.098  10.037  0.2214  0.0924  0.2203
  496loPI    C2 7922  14.360  11.824  10.180 -0.0497  0.2865  0.1204
  496loPI    C3 7923  14.636  11.986  10.420  0.0135  0.0391  0.2180
  496loPI   PO4 7924  14.656  11.977   9.769  0.1335 -0.0368 -0.2859
  496loPI   GL1 7925  14.605  11.928   9.314  0.0102 -0.1220 -0.2406
  496loPI   GL2 7926  14.859  11.750   9.309 -0.3990  0.0370 -0.2562
  496loPI   C1A 7927  14.576  11.838   8.901  0.0254 -0.0008  0.1102
  496loPI   C2A 7928  14.733  11.723   8.434  0.1598  0.0300  0.2279
  496loPI   C3A 7929  14.512  11.730   7.986  0.0675 -0.3429  0.3175
  496loPI   C4A 7930  14.650  11.630   7.604 -0.0875  0.1729  0.2586
  496loPI   C5A 7931  14.963  11.463   7.292 -0.3207 -0.1693  0.2506
  496loPI   C6A 7932  15.098  11.269   7.012  0.0430 -0.0690 -0.0633
  496loPI   C1B 7933  14.996  11.528   8.907 -0.1092  0.2040  0.0657
  496loPI   C2B 7934  14.829  11.248   8.553 -0.0642  0.0515  0.1358
  496loPI   C3B 7935  14.484  11.232   8.313  0.3250 -0.3444  0.0584
  496loPI   C4B 7936  14.294  10.813   8.103  0.1510  0.0487  0.0198
  497loPI    C1 7937   2.213  10.069   9.060 -0.0844  0.0658 -0.0200
  497loPI    C2 7938   1.920  10.140   9.322 -0.1114 -0.0605 -0.0155
  497loPI    C3 7939   1.992   9.767   9.198  0.0418 -0.0290 -0.0236
  497loPI   PO4 7940   2.244  10.311   8.911 -0.1693 -0.0983  0.1508
  497loPI   GL1 7941   2.418  10.507   8.652 -0.0921  0.0790 -0.1224
  497loPI   GL2 7942   2.200  10.384   8.433  0.1115 -0.1083 -0.0041
  497loPI   C1A 7943   2.654  10.679   8.362 -0.0522  0.3129 -0.0227
  497loPI   C2A 7944   2.747  10.614   7.850 -0.0054  0.2778  0.2589
  497loPI   C3A 7945   2.566  10.635   7.354  0.2065  0.1783 -0.2720
  497loPI   C4A 7946   2.752  10.720   6.933  0.4945 -0.1416 -0.5655
  497loPI   C5A 7947   2.713  10.586   6.558 -0.0771 -0.3091 -0.0097
  497loPI   C6A 7948   3.173  10.638   6.146  0.2303  0.1150  0.1628
  497loPI   C1B 7949   2.451  10.269   8.162  0.2652  0.3279  0.0465
  497loPI   C2B 7950   2.520  10.120   7.716  0.1991 -0.2109 -0.0775
  497loPI   C3B 7951   2.703  10.027   7.439  0.1592 -0.0742  0.1775
  497loPI   C4B 7952   2.682  10.208   7.036  0.1548  0.3761  0.1588
  498loPI    C1 7953   1.943  14.488   9.077  0.0032 -0.0520  0.1511
  498loPI    C2 7954   1.763  14.679   9.379 -0.0870 -0.1666  0.1701
  498loPI    C3 7955   1.994  14.361   9.452  0.2489  0.0710  0.1611
  498loPI   PO4 7956   2.095  14.752   8.945  0.0500 -0.1267 -0.1634
  498loPI   GL1 7957   2.222  14.756   8.613  0.2325  0.0979  0.1594
  498loPI   GL2 7958   2.000  14.997   8.432  0.3050 -0.0989 -0.5944
  498loPI   C1A 7959   2.005  14.593   8.180  0.3058  0.0464  0.5189
  498loPI   C2A 7960   1.972  14.482   7.692 -0.4763 -0.2489 -0.3974
  498loPI   C3A 7961   2.034  14.351   7.392  0.1682  0.1738 -0.1612
  498loPI   C4A 7962   2.142  14.275   7.037 -0.0146  0.1432 -0.2934
  498loPI   C5A 7963   2.533  14.180   6.844 -0.0394  0.0988 -0.2084
  498loPI   C6A 7964   2.849  14.282   6.613  0.1626 -0.4517  0.3172
  498loPI   C1B 7965   2.374  14.985   8.024 -0.0719  0.2069  0.2670
  498loPI   C2B 7966   2.260  14.969   7.622 -0.2158 -0.1050 -0.2538
  498loPI   C3B 7967   2.291  15.203   7.264 -0.0245 -0.1791  0.1594
  498loPI   C4B 7968   2.401  15.114   6.809  0.0120  0.0387  0.1480
  499loPI    C1 7969   1.469   1.280   9.423  0.0796 -0.2076 -0.1505
  499loPI    C2 7970   1.685   1.117   9.718 -0.1936 -0.2396  0.0355
  499loPI    C3 7971   1.378   1.359   9.804 -0.2233 -0.1807 -0.2254
  499loPI   PO4 7972   1.562   1.419   9.268  0.0216  0.2197 -0.0498
  499loPI   GL1 7973   1.570   1.847   9.022  0.1110 -0.1609 -0.2435
  499loPI   GL2 7974   1.745   1.895   8.958  0.1128  0.0724  0.0659
  499loPI   C1A 7975   1.547   1.520   8.689 -0.2239  0.0101 -0.2477
  499loPI   C2A 7976   1.640   1.473   8.282 -0.2543  0.1918 -0.0222
  499loPI   C3A 7977   1.371   1.518   8.050 -0.1084 -0.1425 -0.1818
  499loPI   C4A 7978   1.138   1.520   7.704  0.0099 -0.1495  0.0266
  499loPI   C5A 7979   0.887   1.480   7.495 -0.2167  0.2051 -0.0989
  499loPI   C6A 7980   0.700   1.808   7.344 -0.1818  0.1212  0.1815
  499loPI   C1B 7981   1.846   1.964   8.447 -0.2213  0.0239 -0.1807
  499loPI   C2B 7982   1.764   1.831   7.990  0.1366 -0.0156  0.0673
  499loPI   C3B 7983   1.715   1.518   7.596 -0.1417 -0.1401 -0.0678
  499loPI   C4B 7984   1.466   1.397   7.293 -0.0842  0.0051 -0.1857
  500loPI    C1 7985  11.754   0.731   9.734  0.0542 -0.1108  0.0938
  500loPI    C2 7986  11.466   0.506   9.896  0.1215 -0.2035  0.0860
  500loPI    C3 7987  11.802   0.577  10.100  0.0219  0.0493  0.1664
  500loPI   PO4 7988  11.592   0.899   9.560 -0.0162 -0.0790  0.0740
  500loPI   GL1 7989  11.433   1.034   9.127 -0.2035 -0.2010  0.0492
  500loPI   GL2 7990  11.594   1.254   8.992 -0.0298 -0.0248 -0.3424
  500loPI   C1A 7991  11.268   0.949   8.704  0.3589  0.2761  0.0548
  500loPI   C2A 7992  11.080   0.807   8.396 -0.2014  0.1375  0.2280
  500loPI   C3A 7993  11.052   0.913   7.988 -0.0791 -0.3000 -0.1722
  500loPI   C4A 7994  11.019   0.900   7.543  0.2118 -0.1259  0.2341
  500loPI   C5A 7995  11.231   0.862   7.188 -0.0878 -0.2615 -0.1214
  500loPI   C6A 7996  11.147   0.773   6.795 -0.1616 -0.1209 -0.0581
  500loPI   C1B 7997  11.637   1.233   8.544 -0.1226 -0.0633  0.0061
  500loPI   C2B 7998  11.482   1.139   8.203 -0.2719 -0.1370  0.0170
  500loPI   C3B 7999  11.433   1.076   7.689  0.2258  0.0943  0.1723
  500loPI   C4B 8000  11.568   1.224   7.308  0.1038  0.3325 -0.4406
  501loPI    C1 8001   4.362   7.669   9.170  0.0048 -0.3036 -0.0465
  501loPI    C2 8002   4.230   8.019   9.311  0.1047 -0.2839 -0.0013
  501loPI    C3 8003   4.479   7.796   9.530  0.0743 -0.3638 -0.0476
  501loPI   PO4 8004   4.356   7.740   8.878 -0.3116 -0.0195 -0.4120
  501loPI   GL1 8005   4.405   7.954   8.500 -0.0793 -0.3532  0.3558
  501loPI   GL2 8006   4.729   8.112   8.567  0.0932  0.1902  0.0053
  501loPI   C1A 8007   4.412   7.823   7.941  0.0900 -0.6250  0.1532
  501loPI   C2A 8008   4.288   7.656   7.650  0.0963  0.0459 -0.2521
  501loPI   C3A 8009   4.295   7.627   7.171 -0.0843 -0.2608  0.0474
  501loPI   C4A 8010   4.551   7.633   6.769 -0.0435  0.2273 -0.0948
  501loPI   C5A 8011   4.881   7.650   6.544 -0.1859  0.0484 -0.0862
  501loPI   C6A 8012   5.157   7.349   6.665  0.0649  0.1548 -0.2373
  501loPI   C1B 8013   4.914   7.964   8.230 -0.2366 -0.1489  0.0435
  501loPI   C2B 8014   4.910   7.932   7.717  0.2019  0.5127 -0.1295
  501loPI   C3B 8015   4.759   7.620   7.533  0.0138 -0.0255  0.1599
  501loPI   C4B 8016   4.949   7.510   7.100  0.0396  0.3362 -0.0717
  502loPI    C1 8017   2.272  12.084   9.062  0.1340  0.1536 -0.0971
  502loPI    C2 8018   2.076  11.747   8.971  0.0888  0.2008 -0.1757
  502loPI    C3 8019   2.019  11.922   9.326  0.1409  0.1055 -0.1201
  502loPI   PO4 8020   2.631  12.024   8.946  0.2514  0.0222 -0.1201
  502loPI   GL1 8021   2.936  11.886   8.656 -0.0457 -0.3309 -0.0092
  502loPI   GL2 8022   2.872  11.670   8.472 -0.0357 -0.2409  0.0400
  502loPI   C1A 8023   3.100  12.080   8.258  0.1196  0.0110  0.3088
  502loPI   C2A 8024   3.013  12.059   7.773  0.0605  0.1377 -0.0371
  502loPI   C3A 8025   2.997  12.289   7.465  0.1837  0.0653  0.1714
  502loPI   C4A 8026   3.054  12.514   6.999  0.1403  0.0838 -0.3260
  502loPI   C5A 8027   2.800  12.616   6.681 -0.0075  0.0927  0.3450
  502loPI   C6A 8028   2.696  12.946   6.408 -0.4389  0.2678  0.0650
  502loPI   C1B 8029   2.536  11.763   8.140  0.1021 -0.1471  0.0110
  502loPI   C2B 8030   2.626  11.763   7.738 -0.1362 -0.0344  0.1604
  502loPI   C3B 8031   2.717  11.970   7.324 -0.0272 -0.1529 -0.1540
  502loPI   C4B 8032   2.897  12.009   6.936 -0.0048  0.1454 -0.2257
  503loPI    C1 8033   1.838  10.644   9.306 -0.2420  0.1551  0.1112
  503loPI    C2 8034   1.788  10.574   9.697 -0.0771 -0.2387  0.0656
  503loPI    C3 8035   2.149  10.527   9.529 -0.1561 -0.1138 -0.1427
  503loPI   PO4 8036   1.603  10.523   9.121  0.0540 -0.1934 -0.0518
  503loPI   GL1 8037   1.637  10.474   8.574  0.1171  0.0747 -0.2917
  503loPI   GL2 8038   1.353  10.392   8.614 -0.1126 -0.2815 -0.0097
  503loPI   C1A 8039   1.863  10.628   8.221  0.0889 -0.1191  0.0439
  503loPI   C2A 8040   1.689  10.549   7.916  0.1852 -0.2180  0.0975
  503loPI   C3A 8041   1.695  10.466   7.509 -0.6276  0.0453 -0.0717
  503loPI   C4A 8042   1.401  10.539   7.252  0.0305  0.0801  0.0362
  503loPI   C5A 8043   1.140  10.661   6.884 -0.0072  0.0163  0.2863
  503loPI   C6A 8044   1.067  10.401   6.463  0.1372 -0.0863 -0.1770
  503loPI   C1B 8045   1.313  10.584   8.231  0.1563 -0.0908 -0.2106
  503loPI   C2B 8046   1.254  10.656   7.740 -0.1450  0.1094 -0.1760
  503loPI   C3B 8047   0.992  10.724   7.356  0.0886 -0.0192 -0.3886
  503loPI   C4B 8048   0.689  10.920   6.926  0.2196 -0.2242  0.1626
  504loPI    C1 8049  18.762  13.455   9.664  0.0159 -0.0283 -0.0054
  504loPI    C2 8050  18.595  13.730   9.903  0.3561  0.1876 -0.0087
  504loPI    C3 8051  18.646  13.355  10.034  0.2897  0.2357  0.1569
  504loPI   PO4 8052  18.511  13.485   9.390 -0.3170  0.0239 -0.0371
  504loPI   GL1 8053  18.074  13.601   9.102  0.0237 -0.1938 -0.0238
  504loPI   GL2 8054  17.862  13.596   9.326  0.0454 -0.0768  0.0243
  504loPI   C1A 8055  18.105  13.623   8.693  0.2665 -0.2500 -0.0283
  504loPI   C2A 8056  18.062  13.626   8.185 -0.0549 -0.1133 -0.4999
  504loPI   C3A 8057  17.837  13.605   7.706  0.3747  0.1907 -0.1097
  504loPI   C4A 8058  17.610  13.637   7.323  0.2262  0.0682 -0.0471
  504loPI   C5A 8059  17.490  13.922   6.957  0.0242  0.2077  0.3186
  504loPI   C6A 8060  17.310  13.911   6.448 -0.0575 -0.2223  0.1333
  504loPI   C1B 8061  17.476  13.781   9.236 -0.0079 -0.1290  0.0795
  504loPI   C2B 8062  17.304  13.889   8.824  0.0868  0.2391 -0.2938
  504loPI   C3B 8063  17.036  13.731   8.459 -0.1486  0.3277 -0.1479
  504loPI   C4B 8064  17.065  14.118   8.336  0.6157  0.3557 -0.0961
  505loPI    C1 8065  16.303   4.970   9.820 -0.2839  0.3210  0.0560
  505loPI    C2 8066  15.993   4.832  10.033 -0.2819  0.2539  0.0157
  505loPI    C3 8067  16.330   4.942  10.219 -0.2199  0.0378  0.0344
  505loPI   PO4 8068  16.250   4.922   9.541 -0.1369  0.0574 -0.0168
  505loPI   GL1 8069  16.513   5.104   9.147  0.3363 -0.1025  0.2032
  505loPI   GL2 8070  16.500   4.726   9.093 -0.1332 -0.0627 -0.3514
  505loPI   C1A 8071  16.214   5.137   8.807 -0.1400 -0.2812  0.1060
  505loPI   C2A 8072  16.047   5.398   8.540 -0.2049  0.1040  0.0504
  505loPI   C3A 8073  15.878   5.526   8.254  0.2240  0.2064  0.0201
  505loPI   C4A 8074  15.564   5.492   7.869 -0.0279  0.0253  0.0077
  505loPI   C5A 8075  15.583   5.401   7.465  0.0066 -0.2861 -0.2113
  505loPI   C6A 8076  15.629   5.400   7.023  0.3315 -0.0997 -0.0137
  505loPI   C1B 8077  16.499   4.492   8.671  0.2030 -0.0415 -0.0108
  505loPI   C2B 8078  16.258   4.358   8.400 -0.2463  0.0837  0.1249
  505loPI   C3B 8079  15.924   4.517   8.241  0.0045  0.2282  0.2843
  505loPI   C4B 8080  15.628   4.318   7.941 -0.2358  0.2496  0.1638
  506loPI    C1 8081  17.673   0.036   9.654  0.1212 -0.3183 -0.0255
  506loPI    C2 8082  17.897   0.028   9.985  0.0013  0.1140  0.0725
  506loPI    C3 8083  17.549  -0.168   9.975  0.1869 -0.2230  0.0612
  506loPI   PO4 8084  17.848   0.100   9.457  0.0775  0.0903 -0.2241
  506loPI   GL1 8085  17.882   0.142   9.087  0.2353 -0.1846  0.2191
  506loPI   GL2 8086  17.502   0.350   9.068 -0.0473  0.1211 -0.0983
  506loPI   C1A 8087  18.052  -0.208   8.757  0.1651 -0.2100 -0.1434
  506loPI   C2A 8088  18.274  -0.468   8.437  0.0541 -0.1565 -0.2220
  506loPI   C3A 8089  18.246  -0.864   8.232  0.3587  0.1750 -0.0045
  506loPI   C4A 8090  18.251  -1.170   7.986  0.0594  0.2794  0.3062
  506loPI   C5A 8091  18.154  -1.459   7.693  0.2299 -0.0307 -0.1911
  506loPI   C6A 8092  17.699  -1.580   7.554  0.0385 -0.0197 -0.0498
  506loPI   C1B 8093  17.671   0.139   8.625  0.0766 -0.0996  0.0277
  506loPI   C2B 8094  17.807  -0.156   8.358 -0.2285 -0.2567 -0.4401
  506loPI   C3B 8095  17.831  -0.551   8.126  0.0308  0.3200 -0.1648
  506loPI   C4B 8096  17.936  -0.634   7.572 -0.2484  0.0670  0.1029
  507loPI    C1 8097  14.711  15.393   9.476 -0.1957  0.3698 -0.1675
  507loPI    C2 8098  14.776  15.310   9.090  0.0016  0.0260 -0.0650
  507loPI    C3 8099  14.484  15.122   9.289  0.2508 -0.2057  0.0894
  507loPI   PO4 8100  14.982  15.419   9.529 -0.2615 -0.0940  0.1319
  507loPI   GL1 8101  15.258  15.399   9.165  0.0699  0.0393 -0.1216
  507loPI   GL2 8102  15.510  15.371   9.205  0.2799 -0.1660 -0.3472
  507loPI   C1A 8103  15.154  15.507   8.776 -0.0990 -0.1134  0.1409
  507loPI   C2A 8104  15.356  15.742   8.329 -0.2621 -0.0266  0.0266
  507loPI   C3A 8105  15.582  15.910   7.987  0.0049  0.2570  0.3229
  507loPI   C4A 8106  15.615  16.113   7.517  0.0736  0.2537 -0.1976
  507loPI   C5A 8107  15.474  16.231   7.123 -0.0500 -0.1516 -0.0891
  507loPI   C6A 8108  15.589  16.089   6.691  0.2739  0.0294 -0.1720
  507loPI   C1B 8109  15.698  15.435   8.768  0.6070  0.1325  0.1486
  507loPI   C2B 8110  16.023  15.211   8.618  0.1395  0.2280  0.2063
  507loPI   C3B 8111  16.233  15.230   8.181  0.0035 -0.2136 -0.5386
  507loPI   C4B 8112  16.388  15.248   7.821  0.1405  0.0472  0.0709
  508loPI    C1 8113   7.060  12.717   9.591 -0.2224 -0.2899 -0.1940
  508loPI    C2 8114   6.807  12.426   9.698  0.0860 -0.3800  0.3247
  508loPI    C3 8115   6.905  12.712   9.960  0.4033 -0.2598  0.0805
  508loPI   PO4 8116   7.051  12.640   9.298 -0.0962  0.3670  0.1708
  508loPI   GL1 8117   6.834  12.490   8.813  0.1690  0.2132 -0.0833
  508loPI   GL2 8118   6.926  12.241   8.847 -0.1378  0.0584 -0.2867
  508loPI   C1A 8119   7.140  12.511   8.446 -0.0349  0.2162 -0.0608
  508loPI   C2A 8120   7.097  12.621   8.016 -0.2147  0.0373  0.2141
  508loPI   C3A 8121   7.161  12.446   7.710 -0.1315 -0.1135 -0.1229
  508loPI   C4A 8122   7.389  12.328   7.288 -0.0617  0.2520 -0.2316
  508loPI   C5A 8123   7.407  12.071   6.839 -0.0012  0.1116 -0.0990
  508loPI   C6A 8124   7.276  11.860   6.423 -0.0240  0.0579 -0.0483
  508loPI   C1B 8125   7.096  11.968   8.403 -0.0186 -0.2945  0.2423
  508loPI   C2B 8126   7.307  12.138   8.051  0.0747 -0.2259  0.0459
  508loPI   C3B 8127   7.470  12.038   7.682 -0.2738 -0.1404  0.0707
  508loPI   C4B 8128   7.428  11.840   7.306 -0.1755 -0.1768 -0.2748
  509loPI    C1 8129   5.223   5.658   9.598 -0.0816  0.1503  0.0685
  509loPI    C2 8130   5.501   5.912   9.734  0.3085 -0.0933 -0.2514
  509loPI    C3 8131   5.305   5.675   9.989  0.4238  0.0509 -0.0257
  509loPI   PO4 8132   5.143   5.783   9.281 -0.0709 -0.0604 -0.0876
  509loPI   GL1 8133   5.217   5.679   8.827  0.0820  0.0816 -0.0135
  509loPI   GL2 8134   5.600   5.718   8.765 -0.0369 -0.0046  0.2777
  509loPI   C1A 8135   5.087   5.636   8.421  0.0912  0.2625  0.2375
  509loPI   C2A 8136   5.220   5.457   7.946  0.1466  0.2797 -0.0884
  509loPI   C3A 8137   5.290   5.341   7.435 -0.2193  0.1844  0.0598
  509loPI   C4A 8138   5.075   5.314   7.053  0.0282  0.1768  0.2345
  509loPI   C5A 8139   4.838   5.579   6.750 -0.2445  0.2535 -0.3747
  509loPI   C6A 8140   4.610   5.543   6.292 -0.0912  0.2334 -0.2795
  509loPI   C1B 8141   5.632   5.613   8.307 -0.1263 -0.0867  0.0755
  509loPI   C2B 8142   5.727   5.638   7.937 -0.1382  0.1591 -0.2083
  509loPI   C3B 8143   5.896   5.619   7.561 -0.2556  0.2222 -0.5578
  509loPI   C4B 8144   6.030   5.524   7.140 -0.1404 -0.0388  0.0570
  510loPI    C1 8145  15.731   3.733   9.964  0.1329  0.2795 -0.0220
  510loPI    C2 8146  15.612   3.982  10.253 -0.1221 -0.0068  0.1261
  510loPI    C3 8147  15.687   3.599  10.338  0.3793  0.0384 -0.0759
  510loPI   PO4 8148  15.661   3.855   9.708  0.2516 -0.0305 -0.2381
  510loPI   GL1 8149  15.576   3.797   9.333  0.0952 -0.0274  0.1230
  510loPI   GL2 8150  15.974   3.741   9.274  0.0696  0.1492  0.0111
  510loPI   C1A 8151  15.730   3.319   9.223  0.2084 -0.0436 -0.0746
  510loPI   C2A 8152  15.512   3.159   8.778 -0.4460 -0.0341 -0.1775
  510loPI   C3A 8153  15.458   3.154   8.269 -0.1624 -0.1084  0.3101
  510loPI   C4A 8154  15.253   3.254   7.868  0.0850  0.1584 -0.1936
  510loPI   C5A 8155  14.951   3.326   7.499 -0.3039  0.0397 -0.3667
  510loPI   C6A 8156  14.663   3.355   7.093  0.2081  0.3025 -0.0142
  510loPI   C1B 8157  15.669   3.632   8.881  0.1255  0.0349 -0.1346
  510loPI   C2B 8158  15.570   3.599   8.493 -0.2681 -0.1406 -0.1336
  510loPI   C3B 8159  15.151   3.671   8.270 -0.0196 -0.1520 -0.1138
  510loPI   C4B 8160  14.884   3.622   7.908 -0.5098  0.0827  0.0385
  511loPI    C1 8161  13.063  17.946   9.524  0.2305 -0.1494  0.2692
  511loPI    C2 8162  13.223  18.302   9.439  0.1752 -0.1869 -0.0022
  511loPI    C3 8163  12.922  18.276   9.701  0.0292 -0.0035 -0.1480
  511loPI   PO4 8164  12.975  17.866   9.362  0.1846 -0.1594  0.1948
  511loPI   GL1 8165  12.686  17.834   8.981 -0.1962 -0.3083 -0.2533
  511loPI   GL2 8166  12.524  17.621   8.914 -0.0202 -0.0759  0.1639
  511loPI   C1A 8167  12.955  17.987   8.759 -0.1488  0.0872  0.0626
  511loPI   C2A 8168  13.189  18.171   8.404  0.0478  0.4664  0.0586
  511loPI   C3A 8169  13.405  18.442   8.092 -0.1773 -0.0196  0.2710
  511loPI   C4A 8170  13.403  18.490   7.671 -0.3697 -0.1355 -0.0092
  511loPI   C5A 8171  13.125  18.663   7.519  0.0235  0.2132 -0.0579
  511loPI   C6A 8172  12.720  18.827   7.125 -0.6744 -0.4420  0.0544
  511loPI   C1B 8173  12.852  17.456   8.592  0.2983  0.0638  0.2275
  511loPI   C2B 8174  12.918  17.401   8.195 -0.1418  0.2244  0.1916
  511loPI   C3B 8175  13.035  17.354   7.824 -0.1699 -0.2902 -0.0365
  511loPI   C4B 8176  13.455  17.559   7.801  0.0578 -0.0602 -0.0741
  512loPI    C1 8177  18.380   1.109   9.482 -0.1254  0.1213  0.1609
  512loPI    C2 8178  18.578   0.764   9.522 -0.3227 -0.0066  0.0491
  512loPI    C3 8179  18.720   1.097   9.692 -0.2692 -0.1959  0.3826
  512loPI   PO4 8180  18.282   1.081   9.201  0.2829 -0.0188  0.0467
  512loPI   GL1 8181  17.944   0.933   8.914 -0.1109 -0.1372 -0.0517
  512loPI   GL2 8182  17.857   0.627   8.777  0.2189 -0.2081 -0.0361
  512loPI   C1A 8183  18.237   1.133   8.573 -0.3917  0.2697 -0.2375
  512loPI   C2A 8184  18.491   1.339   8.255  0.0113  0.2390  0.0576
  512loPI   C3A 8185  18.875   1.493   7.986  0.0023  0.0245  0.0912
  512loPI   C4A 8186  18.964   1.629   7.558  0.3277  0.2747  0.1473
  512loPI   C5A 8187  19.120   2.071   7.356 -0.0392  0.1790  0.0394
  512loPI   C6A 8188  19.459   2.073   7.011  0.2651 -0.0477  0.1227
  512loPI   C1B 8189  17.811   0.620   8.350 -0.1562  0.3070  0.1685
  512loPI   C2B 8190  17.658   0.296   8.061 -0.2127 -0.0986 -0.0548
  512loPI   C3B 8191  17.657   0.448   7.593  0.1517 -0.0960 -0.4987
  512loPI   C4B 8192  17.443   0.407   7.208 -0.1031 -0.2047  0.2282
  513loPI    C1 8193  18.298   8.916   9.775  0.1119  0.1750  0.0834
  513loPI    C2 8194  18.491   8.991  10.118  0.2070  0.0134  0.0661
  513loPI    C3 8195  18.128   8.823  10.125  0.1209  0.1980  0.0940
  513loPI   PO4 8196  18.408   9.124   9.594  0.1427 -0.1664  0.1478
  513loPI   GL1 8197  18.546   9.384   9.281  0.0436  0.2313 -0.3382
  513loPI   GL2 8198  18.597   9.126   9.119 -0.1246  0.0962 -0.2503
  513loPI   C1A 8199  18.559   9.456   8.783  0.1689  0.3748  0.0503
  513loPI   C2A 8200  18.823   9.609   8.469  0.1172  0.0965  0.1324
  513loPI   C3A 8201  18.918   9.746   8.069 -0.1197  0.1939  0.1613
  513loPI   C4A 8202  18.816  10.032   7.764 -0.1639  0.0228 -0.1541
  513loPI   C5A 8203  18.906   9.962   7.349 -0.2222  0.0587  0.0857
  513loPI   C6A 8204  18.742  10.108   7.057  0.0642 -0.0047 -0.2938
  513loPI   C1B 8205  18.515   8.966   8.631  0.0408  0.0368 -0.1162
  513loPI   C2B 8206  18.471   9.080   8.198 -0.3132 -0.2812 -0.3007
  513loPI   C3B 8207  18.420   9.126   7.743  0.4051  0.0685  0.4207
  513loPI   C4B 8208  18.261   8.989   7.431 -0.0466 -0.0797 -0.0736
  514loPI    C1 8209  16.968  13.541  10.128  0.0207  0.0980  0.1877
  514loPI    C2 8210  17.294  13.319  10.059 -0.0581  0.0561 -0.0607
  514loPI    C3 8211  17.210  13.442  10.431  0.1833 -0.0205  0.0209
  514loPI   PO4 8212  16.809  13.346   9.933  0.0287 -0.3004 -0.1409
  514loPI   GL1 8213  16.870  13.329   9.426  0.0394 -0.3811  0.4199
  514loPI   GL2 8214  16.830  13.098   9.284  0.2862 -0.2209  0.0806
  514loPI   C1A 8215  16.947  13.666   9.071 -0.4337 -0.1662 -0.0902
  514loPI   C2A 8216  16.731  13.953   8.795  0.3029  0.0766  0.1986
  514loPI   C3A 8217  16.538  13.943   8.352  0.0041  0.0235  0.0744
  514loPI   C4A 8218  16.446  13.821   7.861  0.0493 -0.1783 -0.1719
  514loPI   C5A 8219  16.488  13.336   7.769  0.0470 -0.0016  0.1917
  514loPI   C6A 8220  16.533  13.002   7.931 -0.3830  0.0141 -0.1060
  514loPI   C1B 8221  16.733  13.197   8.797 -0.0052 -0.0313  0.2658
  514loPI   C2B 8222  16.697  13.310   8.318 -0.1700  0.2235 -0.0984
  514loPI   C3B 8223  16.847  13.550   8.058 -0.1765 -0.0643  0.0422
  514loPI   C4B 8224  16.923  13.920   7.910  0.0175 -0.0269 -0.3965
  515loPI    C1 8225   8.891  16.725   8.887 -0.1605  0.0049 -0.0820
  515loPI    C2 8226   8.919  16.863   9.262  0.1734  0.0230 -0.1103
  515loPI    C3 8227   8.565  16.862   9.074  0.0484  0.2370  0.1185
  515loPI   PO4 8228   9.269  16.789   8.826 -0.2470  0.2331 -0.0620
  515loPI   GL1 8229   9.587  16.905   8.568  0.0791  0.1373  0.0937
  515loPI   GL2 8230   9.537  17.157   8.552 -0.2702 -0.1973  0.1521
  515loPI   C1A 8231   9.660  16.752   8.220 -0.0812  0.1512 -0.2719
  515loPI   C2A 8232   9.700  16.773   7.769  0.1358 -0.2826 -0.3049
  515loPI   C3A 8233   9.880  16.696   7.332 -0.0068  0.2277  0.0884
  515loPI   C4A 8234  10.109  16.721   6.918 -0.1001 -0.1283  0.1955
  515loPI   C5A 8235  10.349  16.476   6.598  0.3189 -0.1327 -0.2802
  515loPI   C6A 8236  10.805  16.434   6.633 -0.3812  0.1120 -0.0084
  515loPI   C1B 8237   9.470  17.240   8.058  0.0567  0.1168  0.0676
  515loPI   C2B 8238   9.497  17.218   7.539  0.0410  0.0785  0.3691
  515loPI   C3B 8239   9.688  17.177   7.166 -0.4012  0.0701 -0.0728
  515loPI   C4B 8240   9.667  16.963   6.733 -0.1122 -0.3432 -0.0504
  516loPI    C1 8241  12.477   4.612   9.661 -0.3547  0.1905  0.0351
  516loPI    C2 8242  12.790   4.456   9.856 -0.0606  0.2001 -0.4146
  516loPI    C3 8243  12.469   4.230   9.778 -0.1310  0.1627 -0.0354
  516loPI   PO4 8244  12.546   4.723   9.399  0.1865 -0.4786 -0.2068
  516loPI   GL1 8245  12.454   4.596   8.943 -0.2521  0.1393  0.0274
  516loPI   GL2 8246  12.144   4.682   8.753  0.0786  0.0108  0.1538
  516loPI   C1A 8247  12.640   4.748   8.593  0.0887 -0.1501 -0.0687
  516loPI   C2A 8248  12.738   4.640   8.199  0.0463 -0.0711  0.0231
  516loPI   C3A 8249  12.838   4.575   7.794 -0.2445 -0.4356 -0.1273
  516loPI   C4A 8250  12.694   4.560   7.393  0.0511 -0.0224  0.0898
  516loPI   C5A 8251  12.599   4.240   6.914  0.1696 -0.2662  0.1140
  516loPI   C6A 8252  12.597   4.186   6.446  0.1416  0.0922 -0.0160
  516loPI   C1B 8253  12.158   4.702   8.347 -0.2219 -0.0624 -0.2816
  516loPI   C2B 8254  11.935   4.507   8.034 -0.3032 -0.0097 -0.0645
  516loPI   C3B 8255  11.922   4.564   7.539  0.3372 -0.1260  0.0605
  516loPI   C4B 8256  12.164   4.315   7.281  0.3171  0.1878  0.2382
  517loPI    C1 8257  10.042  14.279   9.457  0.2767 -0.1966 -0.1538
  517loPI    C2 8258   9.977  14.259   9.852  0.4048 -0.2168 -0.1334
  517loPI    C3 8259  10.164  14.576   9.696 -0.1125  0.0440 -0.2450
  517loPI   PO4 8260  10.206  14.050   9.463  0.1363 -0.0284  0.0443
  517loPI   GL1 8261  10.400  13.878   9.003  0.0051 -0.1537 -0.1220
  517loPI   GL2 8262  10.353  14.142   8.956 -0.1071 -0.2503  0.0896
  517loPI   C1A 8263  10.409  13.630   8.606  0.3327 -0.0099  0.3739
  517loPI   C2A 8264  10.518  13.715   8.136 -0.0168 -0.2259 -0.2205
  517loPI   C3A 8265  10.669  13.985   7.826  0.0496 -0.2806 -0.3002
  517loPI   C4A 8266  10.581  14.242   7.495 -0.2551 -0.0364  0.0501
  517loPI   C5A 8267  10.839  14.303   7.156 -0.0589  0.2336 -0.0233
  517loPI   C6A 8268  10.751  14.517   6.762  0.0703 -0.1443  0.0791
  517loPI   C1B 8269  10.404  14.206   8.621 -0.2391  0.0850 -0.0614
  517loPI   C2B 8270  10.341  14.407   8.296 -0.0203 -0.2116  0.0194
  517loPI   C3B 8271  10.531  14.565   7.887 -0.0315 -0.0638  0.1893
  517loPI   C4B 8272  10.927  14.789   7.667  0.0647  0.1049 -0.1636
  518loPI    C1 8273   5.915   9.640   9.422  0.1495  0.0342 -0.1381
  518loPI    C2 8274   5.598   9.419   9.318  0.2175 -0.1311  0.0008
  518loPI    C3 8275   5.668   9.499   9.704  0.1607  0.1849 -0.0520
  518loPI   PO4 8276   6.075   9.527   9.239  0.1048  0.0108  0.1788
  518loPI   GL1 8277   6.215   9.860   9.043 -0.0211 -0.0745  0.0467
  518loPI   GL2 8278   6.467   9.873   8.900  0.3040 -0.2109  0.0010
  518loPI   C1A 8279   6.080   9.946   8.630 -0.2337  0.2006  0.1770
  518loPI   C2A 8280   6.277   9.807   8.306 -0.0698  0.0145  0.0439
  518loPI   C3A 8281   6.403   9.742   7.874 -0.0409  0.0966 -0.3860
  518loPI   C4A 8282   6.316   9.616   7.530 -0.0213 -0.2054 -0.0568
  518loPI   C5A 8283   6.467   9.286   7.204 -0.3817 -0.3452  0.1108
  518loPI   C6A 8284   6.454   8.952   6.909 -0.0839  0.2792  0.0407
  518loPI   C1B 8285   6.438   9.551   8.693  0.1033  0.1833  0.2033
  518loPI   C2B 8286   6.467   9.373   8.291 -0.0973 -0.1046 -0.1549
  518loPI   C3B 8287   6.667   9.298   7.849 -0.1143 -0.5745 -0.0962
  518loPI   C4B 8288   6.756   8.950   7.651  0.2139  0.3276 -0.3150
  519loPI    C1 8289  18.185   2.698   9.546 -0.1969 -0.5179 -0.1438
  519loPI    C2 8290  18.038   2.398   9.765  0.0683 -0.3895  0.2201
  519loPI    C3 8291  18.414   2.522   9.823 -0.0094 -0.0439  0.0132
  519loPI   PO4 8292  18.157   2.542   9.271 -0.0491 -0.1515 -0.0897
  519loPI   GL1 8293  17.885   2.498   8.854  0.2424 -0.1921  0.1521
  519loPI   GL2 8294  17.937   2.122   8.860  0.3085 -0.2030 -0.0594
  519loPI   C1A 8295  17.988   2.625   8.501  0.1330  0.0324  0.1594
  519loPI   C2A 8296  18.015   2.565   8.074 -0.2806  0.1742 -0.0783
  519loPI   C3A 8297  17.643   2.390   7.868  0.0012 -0.0154  0.0496
  519loPI   C4A 8298  17.568   2.429   7.405  0.2841  0.0123 -0.1669
  519loPI   C5A 8299  17.419   2.388   6.995 -0.0607  0.0510 -0.1114
  519loPI   C6A 8300  17.029   2.150   6.845 -0.0469 -0.0122  0.1181
  519loPI   C1B 8301  18.016   1.765   8.591  0.0144 -0.4303 -0.0890
  519loPI   C2B 8302  17.978   1.499   8.138 -0.0477  0.0956  0.0558
  519loPI   C3B 8303  18.004   1.133   7.920 -0.2377  0.1749  0.0364
  519loPI   C4B 8304  17.720   0.996   7.576  0.0931  0.1848 -0.2258
  520loPI    C1 8305   2.334  15.630   8.744  0.0226  0.3287 -0.0241
  520loPI    C2 8306   2.165  15.605   9.106 -0.1650  0.1041 -0.1246
  520loPI    C3 8307   2.376  15.297   8.962  0.1644  0.3062 -0.0845
  520loPI   PO4 8308   2.364  15.966   8.730  0.1326  0.0829  0.4943
  520loPI   GL1 8309   2.098  16.185   8.490  0.2463 -0.0383  0.0472
  520loPI   GL2 8310   1.945  16.033   8.399  0.1908 -0.0093 -0.1911
  520loPI   C1A 8311   2.254  16.345   8.133 -0.2583  0.1049 -0.0428
  520loPI   C2A 8312   2.408  16.315   7.696 -0.1730  0.1497 -0.0653
  520loPI   C3A 8313   2.430  16.545   7.369  0.0319  0.1174 -0.0765
  520loPI   C4A 8314   2.272  16.443   6.871  0.0559  0.0282 -0.0648
  520loPI   C5A 8315   2.148  16.300   6.448  0.2078 -0.0265  0.0231
  520loPI   C6A 8316   2.133  16.252   6.025 -0.1991  0.2565 -0.2152
  520loPI   C1B 8317   2.057  15.905   7.974 -0.1216  0.1616 -0.4814
  520loPI   C2B 8318   2.136  15.702   7.543  0.0360  0.0893  0.0119
  520loPI   C3B 8319   1.946  15.563   7.104 -0.1502  0.0906  0.2017
  520loPI   C4B 8320   1.995  15.471   6.700  0.0049 -0.0042 -0.0458
  521loPI    C1 8321  14.334  10.789   9.593  0.1576  0.1154 -0.0386
  521loPI    C2 8322  14.300  10.466   9.827 -0.2773  0.0713 -0.1538
  521loPI    C3 8323  14.550  10.761   9.928  0.0130 -0.2315  0.0301
  521loPI   PO4 8324  14.370  10.622   9.368  0.2615  0.0986  0.1002
  521loPI   GL1 8325  14.129  10.540   9.072  0.1113  0.0375  0.3767
  521loPI   GL2 8326  13.899  10.800   9.035 -0.1477  0.3378  0.1274
  521loPI   C1A 8327  14.032  10.629   8.502 -0.1600 -0.2091  0.2401
  521loPI   C2A 8328  13.792  10.692   8.156  0.3144  0.0079 -0.2823
  521loPI   C3A 8329  13.778  10.975   7.761 -0.4225  0.1159  0.1108
  521loPI   C4A 8330  13.915  11.213   7.383 -0.0436 -0.1228 -0.0087
  521loPI   C5A 8331  13.727  10.948   7.096 -0.0070 -0.2612 -0.0043
  521loPI   C6A 8332  13.258  11.003   6.910 -0.3272  0.3127  0.3185
  521loPI   C1B 8333  13.598  10.690   8.672 -0.2226  0.2163 -0.1248
  521loPI   C2B 8334  13.397  10.917   8.347 -0.0880 -0.2397  0.1710
  521loPI   C3B 8335  13.301  10.822   8.000 -0.1569 -0.0691  0.1345
  521loPI   C4B 8336  13.337  10.933   7.537 -0.1752  0.1527  0.3439
  522loPI    C1 8337   7.393  18.475   9.068  0.0823 -0.0821  0.1703
  522loPI    C2 8338   7.094  18.251   8.926  0.0317  0.1502 -0.0985
  522loPI    C3 8339   7.044  18.459   9.264 -0.0086 -0.0389  0.0137
  522loPI   PO4 8340   7.459  18.553   8.859  0.0457 -0.0634 -0.1031
  522loPI   GL1 8341   7.611  18.755   8.448  0.0405 -0.0068 -0.2754
  522loPI   GL2 8342   7.909  18.802   8.467  0.0230 -0.0075  0.3779
  522loPI   C1A 8343   7.418  18.639   8.012 -0.2537 -0.0302  0.2656
  522loPI   C2A 8344   7.109  18.625   7.719 -0.4534 -0.0073  0.1806
  522loPI   C3A 8345   7.058  18.557   7.251  0.1219  0.0844 -0.3617
  522loPI   C4A 8346   6.928  18.305   6.946  0.0746  0.0567  0.0034
  522loPI   C5A 8347   6.589  18.025   6.611 -0.0486 -0.0619  0.0119
  522loPI   C6A 8348   6.455  17.522   6.705  0.3301 -0.6630  0.4788
  522loPI   C1B 8349   7.780  19.018   8.113 -0.0249  0.5472 -0.1341
  522loPI   C2B 8350   7.694  18.886   7.667  0.1586 -0.1906 -0.0631
  522loPI   C3B 8351   7.546  18.613   7.346  0.0911 -0.1424  0.1598
  522loPI   C4B 8352   7.687  18.544   6.868 -0.2410 -0.1234  0.2879
  523loPI    C1 8353   0.772  16.557   9.358 -0.0460 -0.2691 -0.0283
  523loPI    C2 8354   1.011  16.776   9.593 -0.3382  0.1723 -0.1294
  523loPI    C3 8355   0.721  16.553   9.755 -0.0663 -0.1164 -0.0289
  523loPI   PO4 8356   0.686  16.678   9.076  0.0581 -0.0578  0.1826
  523loPI   GL1 8357   0.684  16.702   8.583  0.3069 -0.0448  0.4981
  523loPI   GL2 8358   0.973  16.755   8.651 -0.1517  0.1732 -0.0226
  523loPI   C1A 8359   0.589  16.721   8.236  0.1127 -0.0732 -0.2078
  523loPI   C2A 8360   0.426  16.752   7.950 -0.0112  0.0791  0.0137
  523loPI   C3A 8361   0.392  16.416   7.603  0.1753 -0.2440 -0.2389
  523loPI   C4A 8362   0.169  16.302   7.249 -0.1152  0.1204 -0.1030
  523loPI   C5A 8363  -0.051  16.131   6.815 -0.5300  0.2232 -0.0393
  523loPI   C6A 8364  -0.204  15.663   6.678 -0.0463  0.2370 -0.0817
  523loPI   C1B 8365   1.036  16.976   8.248  0.0087  0.0677  0.1185
  523loPI   C2B 8366   0.986  16.753   7.869  0.1452  0.2764 -0.2651
  523loPI   C3B 8367   0.764  16.790   7.460 -0.1524 -0.1460 -0.2813
  523loPI   C4B 8368   0.861  16.732   6.998  0.0502  0.1289  0.3141
  524loPI    C1 8369  10.141  12.559   9.552 -0.2987  0.3639  0.0952
  524loPI    C2 8370  10.172  12.438   9.932 -0.2255  0.0194 -0.0175
  524loPI    C3 8371   9.812  12.517   9.776 -0.2673  0.0262  0.0819
  524loPI   PO4 8372  10.393  12.419   9.345 -0.0562 -0.1656 -0.1177
  524loPI   GL1 8373  10.747  12.259   9.046  0.1670  0.1923  0.1257
  524loPI   GL2 8374  10.410  12.092   8.915  0.0754 -0.0536 -0.1407
  524loPI   C1A 8375  10.939  12.149   8.759  0.0313 -0.1222 -0.1705
  524loPI   C2A 8376  10.912  12.287   8.269  0.1293  0.0994 -0.2190
  524loPI   C3A 8377  10.774  12.458   7.802  0.3995  0.0102 -0.0648
  524loPI   C4A 8378  10.793  12.726   7.436 -0.2630 -0.1913 -0.0890
  524loPI   C5A 8379  10.836  12.745   7.012  0.3252 -0.2806  0.0115
  524loPI   C6A 8380  10.680  12.863   6.582  0.1779 -0.1598  0.4078
  524loPI   C1B 8381  10.296  12.016   8.494  0.5313  0.0096 -0.2211
  524loPI   C2B 8382  10.309  11.982   8.067 -0.1870 -0.1326 -0.0719
  524loPI   C3B 8383  10.354  11.724   7.600 -0.2953  0.2390 -0.0875
  524loPI   C4B 8384  10.414  11.692   7.171 -0.2731 -0.2515 -0.0529
  525loPI    C1 8385   1.911   4.922   9.305 -0.1312  0.0127 -0.0967
  525loPI    C2 8386   2.273   4.774   9.220 -0.0892  0.0871 -0.0478
  525loPI    C3 8387   2.127   4.744   9.591 -0.1258  0.0727 -0.0634
  525loPI   PO4 8388   1.777   4.802   9.055 -0.0724  0.1421  0.2642
  525loPI   GL1 8389   1.806   4.710   8.634  0.0306  0.2067  0.1416
  525loPI   GL2 8390   1.412   4.699   8.664  0.2719 -0.1114 -0.0366
  525loPI   C1A 8391   1.915   4.922   8.191  0.0162 -0.3608 -0.0361
  525loPI   C2A 8392   1.807   4.946   7.745  0.1882 -0.2641  0.0369
  525loPI   C3A 8393   2.100   4.895   7.398 -0.0643  0.1636 -0.0096
  525loPI   C4A 8394   2.021   5.072   6.996  0.3374 -0.4608 -0.0639
  525loPI   C5A 8395   1.975   5.530   6.924  0.0486 -0.2238  0.1048
  525loPI   C6A 8396   2.220   5.903   7.079  0.2193 -0.3240 -0.0553
  525loPI   C1B 8397   1.499   4.625   8.264  0.2214 -0.3973  0.2821
  525loPI   C2B 8398   1.516   4.562   7.786  0.3578 -0.0724  0.1666
  525loPI   C3B 8399   1.718   4.552   7.335  0.1754 -0.2349  0.0921
  525loPI   C4B 8400   1.789   4.478   6.981  0.0017  0.3302 -0.2453
  526loPI    C1 8401  17.376   5.897   9.724  0.1615  0.3752 -0.0807
  526loPI    C2 8402  17.280   5.702  10.060  0.0082  0.1684 -0.2416
  526loPI    C3 8403  17.649   5.670   9.908 -0.0387 -0.0628 -0.3098
  526loPI   PO4 8404  17.211   5.790   9.497 -0.0790 -0.3784  0.1133
  526loPI   GL1 8405  17.237   5.900   9.100  0.0333 -0.0138  0.2108
  526loPI   GL2 8406  17.163   5.649   8.979 -0.1051  0.3299  0.1387
  526loPI   C1A 8407  17.396   6.084   8.712  0.0140 -0.0683  0.2892
  526loPI   C2A 8408  17.617   6.164   8.268  0.1428 -0.0128 -0.5035
  526loPI   C3A 8409  17.781   5.834   7.944 -0.0065 -0.0651  0.0320
  526loPI   C4A 8410  18.095   5.503   7.668 -0.1947  0.0468  0.0252
  526loPI   C5A 8411  17.948   5.159   7.545 -0.3068 -0.2967  0.1959
  526loPI   C6A 8412  17.901   4.763   7.467  0.0752 -0.0934  0.1101
  526loPI   C1B 8413  16.812   5.446   8.807 -0.0446  0.1296 -0.1051
  526loPI   C2B 8414  16.672   5.033   8.618  0.0329 -0.0541 -0.1684
  526loPI   C3B 8415  16.555   5.146   8.221 -0.0143 -0.0016  0.2510
  526loPI   C4B 8416  16.343   5.371   8.123 -0.2549  0.0837 -0.2319
  527loPI    C1 8417   5.412  13.178   9.703  0.2789  0.1137 -0.2254
  527loPI    C2 8418   5.345  12.789   9.640 -0.1300  0.1645 -0.1328
  527loPI    C3 8419   5.607  12.904   9.919 -0.2789 -0.0454  0.0988
  527loPI   PO4 8420   5.402  13.327   9.341 -0.1805  0.0996  0.1017
  527loPI   GL1 8421   5.088  13.139   8.976  0.0481  0.2007 -0.2838
  527loPI   GL2 8422   4.767  13.024   8.923  0.0650  0.3524  0.5532
  527loPI   C1A 8423   5.265  12.999   8.573  0.1197  0.0721 -0.0614
  527loPI   C2A 8424   5.362  12.838   8.099  0.2338 -0.1423  0.0844
  527loPI   C3A 8425   5.370  12.914   7.570 -0.3413  0.1607 -0.0045
  527loPI   C4A 8426   5.405  12.841   7.184 -0.3178 -0.3787 -0.0560
  527loPI   C5A 8427   5.330  12.628   6.842  0.0203  0.4779 -0.4174
  527loPI   C6A 8428   4.997  12.594   6.478  0.0162 -0.1645 -0.5436
  527loPI   C1B 8429   4.715  12.898   8.468  0.0081  0.1099 -0.3270
  527loPI   C2B 8430   4.877  12.545   8.293 -0.1809 -0.1473  0.0346
  527loPI   C3B 8431   4.939  12.478   8.023  0.0552 -0.0270  0.2004
  527loPI   C4B 8432   5.062  12.389   7.617  0.3513 -0.1898  0.1883
  528loPI    C1 8433   1.043   2.674   9.308  0.1643  0.2185 -0.0015
  528loPI    C2 8434   0.948   2.844   9.658  0.1745 -0.0680  0.1439
  528loPI    C3 8435   1.250   2.583   9.638  0.2167 -0.0037 -0.0939
  528loPI   PO4 8436   0.877   2.582   9.234  0.0028 -0.1632  0.0922
  528loPI   GL1 8437   0.697   2.435   8.853  0.2194 -0.0476  0.2002
  528loPI   GL2 8438   0.458   2.240   8.857 -0.0782 -0.0188  0.1067
  528loPI   C1A 8439   0.883   2.279   8.489  0.0274  0.2264  0.0151
  528loPI   C2A 8440   0.878   2.374   8.068 -0.1129  0.1413 -0.3510
  528loPI   C3A 8441   0.814   2.075   7.746  0.0857 -0.3196 -0.2335
  528loPI   C4A 8442   0.621   2.284   7.321  0.4807  0.0180  0.1092
  528loPI   C5A 8443   0.142   2.430   7.482 -0.0368  0.2414 -0.1067
  528loPI   C6A 8444  -0.164   2.498   7.827  0.1418 -0.2316 -0.0643
  528loPI   C1B 8445   0.059   2.177   8.620 -0.0491  0.0779  0.2081
  528loPI   C2B 8446  -0.483   2.081   8.716  0.0427  0.1740  0.2861
  528loPI   C3B 8447  -0.738   1.813   8.461 -0.1954 -0.4041 -0.2460
  528loPI   C4B 8448  -1.097   1.663   8.496  0.1691 -0.1852 -0.1069
  529loPI    C1 8449   7.626  11.732   9.441  0.1855 -0.0712  0.0464
  529loPI    C2 8450   7.673  12.111   9.560  0.0898 -0.0293 -0.0477
  529loPI    C3 8451   7.943  11.835   9.661  0.0044  0.0023  0.2770
  529loPI   PO4 8452   7.663  11.677   9.213  0.0327  0.1183  0.3535
  529loPI   GL1 8453   7.608  11.591   8.770  0.0635  0.0745 -0.1959
  529loPI   GL2 8454   7.875  11.763   8.783  0.2422 -0.0218  0.2044
  529loPI   C1A 8455   7.445  11.610   8.336 -0.0032  0.0304  0.2111
  529loPI   C2A 8456   7.221  11.606   8.008  0.0385 -0.0308  0.0508
  529loPI   C3A 8457   7.189  11.610   7.595  0.0254 -0.0736 -0.0746
  529loPI   C4A 8458   6.920  11.567   7.150  0.3295  0.2296 -0.0863
  529loPI   C5A 8459   6.878  11.605   6.679 -0.5992  0.1514 -0.1129
  529loPI   C6A 8460   6.929  11.634   6.178  0.1827 -0.1655  0.4533
  529loPI   C1B 8461   7.881  11.992   8.341 -0.3426  0.1187  0.1456
  529loPI   C2B 8462   7.916  12.013   8.017  0.1280 -0.3814  0.5145
  529loPI   C3B 8463   7.961  12.031   7.534  0.0460 -0.0081 -0.0400
  529loPI   C4B 8464   7.897  12.179   7.120  0.1915 -0.0030  0.0330
  530loPI    C1 8465   0.657  17.361   9.144 -0.0501 -0.0452  0.2517
  530loPI    C2 8466   0.925  17.084   9.038  0.1136  0.3139 -0.3157
  530loPI    C3 8467   0.940  17.246   9.403 -0.0070 -0.4326  0.0406
  530loPI   PO4 8468   0.644  17.480   8.915  0.2399 -0.0736  0.1218
  530loPI   GL1 8469   0.656  17.196   8.596 -0.0307 -0.0954 -0.1497
  530loPI   GL2 8470   1.019  17.352   8.564 -0.1005  0.1279  0.3216
  530loPI   C1A 8471   0.636  17.261   8.218  0.0438  0.0280 -0.1056
  530loPI   C2A 8472   0.664  17.170   7.806 -0.1733 -0.0504 -0.0903
  530loPI   C3A 8473   0.719  17.260   7.354 -0.1214 -0.0573 -0.1630
  530loPI   C4A 8474   0.891  17.535   7.102 -0.2513  0.2003  0.1687
  530loPI   C5A 8475   1.030  17.913   6.770 -0.2624 -0.1118  0.1417
  530loPI   C6A 8476   1.188  18.037   6.296 -0.2828  0.1433 -0.1191
  530loPI   C1B 8477   1.098  17.429   8.109  0.0347 -0.1133  0.3452
  530loPI   C2B 8478   0.908  17.615   7.694  0.1044 -0.4485  0.1973
  530loPI   C3B 8479   0.858  17.949   7.413 -0.1392  0.2085  0.3190
  530loPI   C4B 8480   0.605  17.989   7.000  0.0660  0.0498  0.0065
  531loPI    C1 8481   9.015  16.342   9.248  0.0295 -0.2454 -0.2833
  531loPI    C2 8482   9.392  16.456   9.175 -0.0348  0.1440 -0.0394
  531loPI    C3 8483   9.294  16.309   9.533 -0.1037 -0.0170 -0.1232
  531loPI   PO4 8484   8.976  16.191   9.039  0.0197 -0.1807  0.0319
  531loPI   GL1 8485   9.144  16.278   8.704  0.1017 -0.0464 -0.0160
  531loPI   GL2 8486   9.257  16.462   8.449  0.5632  0.1730  0.0464
  531loPI   C1A 8487   9.165  16.023   8.240 -0.1014 -0.2254 -0.1770
  531loPI   C2A 8488   9.249  15.955   7.851 -0.0399 -0.2142  0.1338
  531loPI   C3A 8489   9.336  15.840   7.486 -0.0175 -0.2093 -0.0646
  531loPI   C4A 8490   9.404  15.521   7.228  0.1113 -0.2572 -0.3257
  531loPI   C5A 8491   9.609  15.227   6.930 -0.1138  0.2339  0.0608
  531loPI   C6A 8492   9.674  14.791   6.830  0.3153 -0.0095  0.1060
  531loPI   C1B 8493   9.354  16.420   7.975 -0.0054 -0.1038  0.0928
  531loPI   C2B 8494   9.461  16.394   7.569  0.1467  0.1291 -0.3067
  531loPI   C3B 8495   9.426  16.180   7.120  0.0723  0.1822  0.0694
  531loPI   C4B 8496   9.497  15.903   6.800  0.0683 -0.0678 -0.0562
  532loPI    C1 8497   4.633   2.844   9.085  0.1235  0.3095  0.2008
  532loPI    C2 8498   4.275   3.008   9.157  0.1003  0.2152  0.3025
  532loPI    C3 8499   4.514   2.907   9.462  0.0616 -0.0568  0.2457
  532loPI   PO4 8500   4.474   2.689   8.870 -0.0735 -0.2501 -0.1956
  532loPI   GL1 8501   4.649   2.465   8.572 -0.1319 -0.3163  0.0108
  532loPI   GL2 8502   4.268   2.466   8.489 -0.0138  0.1848  0.5843
  532loPI   C1A 8503   4.687   2.802   8.185  0.2135  0.0704  0.0287
  532loPI   C2A 8504   4.783   2.987   7.812  0.1299 -0.0451 -0.0547
  532loPI   C3A 8505   4.805   3.151   7.363 -0.1594 -0.1991 -0.1670
  532loPI   C4A 8506   4.829   3.310   6.994 -0.1042  0.0469 -0.0849
  532loPI   C5A 8507   4.620   3.508   6.638 -0.0040  0.0662 -0.0928
  532loPI   C6A 8508   4.788   3.722   6.352 -0.0994  0.2639 -0.2906
  532loPI   C1B 8509   4.117   2.263   8.169 -0.2167 -0.2384  0.0301
  532loPI   C2B 8510   4.160   2.233   7.713 -0.0953  0.0139  0.2360
  532loPI   C3B 8511   4.559   2.135   7.452  0.1198  0.0944  0.1317
  532loPI   C4B 8512   4.760   2.009   7.075  0.1881 -0.0784 -0.0498
  533loPI    C1 8513   8.478  13.559   9.360  0.0876  0.1190 -0.0336
  533loPI    C2 8514   8.376  13.236   9.572 -0.1864  0.3363  0.1727
  533loPI    C3 8515   8.758  13.297   9.472 -0.1180  0.0031  0.2199
  533loPI   PO4 8516   8.297  13.612   9.151 -0.0630 -0.0946 -0.0907
  533loPI   GL1 8517   8.109  13.960   8.952 -0.3054 -0.1358  0.0281
  533loPI   GL2 8518   7.812  13.797   8.819  0.2028  0.2411  0.1854
  533loPI   C1A 8519   8.185  14.166   8.532  0.1652 -0.0735 -0.1297
  533loPI   C2A 8520   7.933  14.572   8.287  0.2120  0.0378  0.1564
  533loPI   C3A 8521   7.748  14.718   7.878 -0.0457  0.0160  0.1845
  533loPI   C4A 8522   7.627  14.704   7.549 -0.2458 -0.1114  0.0969
  533loPI   C5A 8523   7.609  14.725   7.063 -0.2088  0.1707 -0.1235
  533loPI   C6A 8524   7.574  14.846   6.691 -0.1714 -0.3068 -0.2672
  533loPI   C1B 8525   7.750  13.975   8.495 -0.3303 -0.1378  0.0760
  533loPI   C2B 8526   7.719  14.142   8.056  0.2655  0.1706 -0.0416
  533loPI   C3B 8527   7.470  14.293   7.736 -0.0728 -0.0472 -0.6595
  533loPI   C4B 8528   7.217  14.439   7.394  0.2940 -0.4253  0.0943
  534loPI    C1 8529  18.480   8.267   9.693  0.2108  0.0086  0.0347
  534loPI    C2 8530  18.436   8.076  10.042  0.2135  0.0577  0.0621
  534loPI    C3 8531  18.464   8.475  10.035 -0.2713  0.0960 -0.0333
  534loPI   PO4 8532  18.295   8.108   9.567  0.1971 -0.0036  0.2027
  534loPI   GL1 8533  18.200   8.299   9.206  0.2008 -0.1114 -0.0292
  534loPI   GL2 8534  17.898   8.289   8.973 -0.0006 -0.1818  0.1478
  534loPI   C1A 8535  18.231   7.931   8.842  0.2476  0.1315  0.1699
  534loPI   C2A 8536  18.100   7.810   8.509 -0.0569 -0.0550  0.1136
  534loPI   C3A 8537  18.043   8.112   8.043 -0.0420 -0.1437 -0.1867
  534loPI   C4A 8538  17.919   8.049   7.602  0.0047  0.2419 -0.1892
  534loPI   C5A 8539  18.176   8.118   7.157 -0.0533  0.2220 -0.0805
  534loPI   C6A 8540  18.262   8.206   6.702  0.0334  0.3421  0.0484
  534loPI   C1B 8541  17.882   8.321   8.563 -0.0512  0.1400 -0.3313
  534loPI   C2B 8542  17.705   8.456   8.119 -0.1901 -0.1854  0.2705
  534loPI   C3B 8543  17.639   8.418   7.611  0.2988  0.1032 -0.0632
  534loPI   C4B 8544  17.678   8.583   7.185 -0.0211 -0.1485  0.1371
  535loPI    C1 8545   2.479  12.549   9.287 -0.0386  0.0472 -0.1298
  535loPI    C2 8546   2.317  12.318   9.570  0.0417 -0.1680 -0.2569
  535loPI    C3 8547   2.666  12.215   9.404  0.1319  0.1029 -0.2390
  535loPI   PO4 8548   2.408  12.551   9.060  0.0639  0.1756  0.2346
  535loPI   GL1 8549   2.515  12.696   8.590 -0.2532  0.1417  0.0072
  535loPI   GL2 8550   2.147  12.770   8.557 -0.4380 -0.0545 -0.1044
  535loPI   C1A 8551   2.647  12.793   8.224 -0.0194  0.4844  0.1380
  535loPI   C2A 8552   2.628  12.811   7.781 -0.1754  0.1020  0.1497
  535loPI   C3A 8553   2.760  13.209   7.476  0.0822  0.1520  0.1508
  535loPI   C4A 8554   2.992  13.503   7.224  0.2508 -0.2035  0.0721
  535loPI   C5A 8555   3.330  13.850   7.177  0.0028  0.0755 -0.2329
  535loPI   C6A 8556   3.779  14.074   7.251  0.2110 -0.2458  0.0265
  535loPI   C1B 8557   2.187  12.476   8.181  0.1322  0.0131  0.4025
  535loPI   C2B 8558   2.206  12.622   7.882 -0.1226 -0.1028  0.1356
  535loPI   C3B 8559   2.113  12.893   7.556  0.1143 -0.1754  0.4092
  535loPI   C4B 8560   2.042  12.770   7.182  0.1002  0.0265  0.2480
  536loPI    C1 8561  12.398  10.790   9.125  0.0073 -0.2219 -0.1547
  536loPI    C2 8562  12.447  10.536   9.430  0.1077  0.0172  0.0319
  536loPI    C3 8563  12.087  10.694   9.357  0.1174  0.0853  0.1289
  536loPI   PO4 8564  12.572  10.734   9.008 -0.0220 -0.3084 -0.1767
  536loPI   GL1 8565  12.650  10.582   8.689 -0.0981 -0.3375  0.0631
  536loPI   GL2 8566  12.732  10.269   8.515 -0.1452 -0.1465 -0.3400
  536loPI   C1A 8567  12.790  10.801   8.317 -0.1044  0.0983 -0.1920
  536loPI   C2A 8568  12.806  10.778   7.911  0.0103  0.1581  0.3462
  536loPI   C3A 8569  12.877  11.001   7.386 -0.0967  0.0603  0.0333
  536loPI   C4A 8570  12.897  11.269   7.137  0.0694 -0.0142 -0.2576
  536loPI   C5A 8571  13.143  11.738   7.065 -0.1092  0.1854 -0.1726
  536loPI   C6A 8572  13.215  11.870   6.638 -0.1454 -0.5948  0.2620
  536loPI   C1B 8573  12.945  10.289   8.104  0.1118  0.4148  0.0832
  536loPI   C2B 8574  12.972  10.363   7.567  0.1815 -0.1392 -0.2144
  536loPI   C3B 8575  12.849  10.432   7.229  0.0119  0.0816 -0.2671
  536loPI   C4B 8576  12.610  10.577   7.022  0.1823 -0.1837  0.3034
  537loPI    C1 8577   5.019  12.343   9.543  0.0436  0.0453  0.2262
  537loPI    C2 8578   4.742  12.271   9.823 -0.0106 -0.1481  0.1252
  537loPI    C3 8579   4.885  12.642   9.772 -0.0750 -0.0927  0.3386
  537loPI   PO4 8580   4.979  12.195   9.309 -0.0828 -0.3245 -0.1524
  537loPI   GL1 8581   5.157  12.090   8.984  0.0548 -0.1650 -0.1591
  537loPI   GL2 8582   5.498  12.140   8.819  0.1112  0.0506  0.4259
  537loPI   C1A 8583   4.922  12.074   8.588 -0.2117 -0.1764 -0.1526
  537loPI   C2A 8584   5.021  12.062   8.245 -0.1680  0.2547  0.4860
  537loPI   C3A 8585   5.118  11.881   7.809 -0.0211  0.0346 -0.2110
  537loPI   C4A 8586   5.378  11.947   7.440 -0.1647 -0.0295  0.0931
  537loPI   C5A 8587   5.247  12.270   7.138 -0.2225  0.4013  0.2948
  537loPI   C6A 8588   5.173  12.185   6.596 -0.1281 -0.0928 -0.0082
  537loPI   C1B 8589   5.645  12.043   8.314  0.2788 -0.1481  0.1379
  537loPI   C2B 8590   5.794  12.026   7.731  0.1098 -0.1178 -0.2792
  537loPI   C3B 8591   5.898  11.925   7.267  0.0780 -0.0785 -0.0551
  537loPI   C4B 8592   5.746  12.182   6.902 -0.2582  0.0896  0.3092
  538loPI    C1 8593  14.109   7.212   9.785  0.0817  0.1419  0.2202
  538loPI    C2 8594  14.456   7.014   9.791 -0.0847 -0.1828 -0.2432
  538loPI    C3 8595  14.147   6.883  10.008  0.0077 -0.0265 -0.0123
  538loPI   PO4 8596  14.072   7.175   9.476  0.2082 -0.2515 -0.1301
  538loPI   GL1 8597  14.468   7.254   9.313 -0.0453 -0.2040 -0.1405
  538loPI   GL2 8598  14.482   7.541   9.176 -0.1200  0.1059  0.2094
  538loPI   C1A 8599  14.593   7.036   8.905 -0.4163 -0.0491 -0.0353
  538loPI   C2A 8600  14.378   7.199   8.563  0.1353 -0.3554  0.0078
  538loPI   C3A 8601  14.457   7.214   8.057 -0.0981  0.2992  0.4248
  538loPI   C4A 8602  14.194   7.206   7.651 -0.2864 -0.2231  0.0036
  538loPI   C5A 8603  14.198   7.243   7.206  0.0276  0.4117  0.1674
  538loPI   C6A 8604  14.161   7.091   6.787  0.1449 -0.1887 -0.2433
  538loPI   C1B 8605  14.569   7.657   8.778  0.3334 -0.1037 -0.2178
  538loPI   C2B 8606  14.684   7.577   8.353 -0.1159  0.0061  0.2519
  538loPI   C3B 8607  14.866   7.644   7.981 -0.1259  0.1669  0.1718
  538loPI   C4B 8608  14.823   7.761   7.455  0.1700  0.0375  0.0308
  539loPI    C1 8609   4.476  16.074   9.060 -0.0567  0.2980  0.0290
  539loPI    C2 8610   4.680  16.151   9.395 -0.2825  0.1424  0.2054
  539loPI    C3 8611   4.358  16.370   9.302 -0.3955 -0.0053  0.2454
  539loPI   PO4 8612   4.648  15.987   8.923  0.1271  0.1562  0.0519
  539loPI   GL1 8613   4.950  15.933   8.606 -0.0492  0.0841  0.0863
  539loPI   GL2 8614   5.276  15.989   8.380  0.0873  0.1491 -0.0830
  539loPI   C1A 8615   4.787  15.982   8.199  0.1450 -0.1235  0.4125
  539loPI   C2A 8616   4.841  15.907   7.834 -0.0738  0.1789  0.2569
  539loPI   C3A 8617   4.591  15.908   7.367 -0.0519  0.0623 -0.0586
  539loPI   C4A 8618   4.692  15.988   6.810  0.3022 -0.4170  0.2775
  539loPI   C5A 8619   5.050  16.185   6.670  0.2105 -0.1024  0.0602
  539loPI   C6A 8620   5.429  16.322   6.763  0.0116  0.0015 -0.1490
  539loPI   C1B 8621   5.426  15.907   7.944 -0.2164 -0.2478 -0.1217
  539loPI   C2B 8622   5.586  15.683   7.606  0.0237  0.0860  0.0162
  539loPI   C3B 8623   5.525  15.606   7.162 -0.0181  0.0032  0.0721
  539loPI   C4B 8624   5.645  15.400   6.756 -0.3672  0.2185 -0.0688
  540loPI    C1 8625   3.240   1.928   9.627  0.0397  0.0392 -0.1239
  540loPI    C2 8626   3.600   1.984   9.793 -0.0459  0.0672  0.0551
  540loPI    C3 8627   3.418   1.630   9.825 -0.1457  0.1295  0.1857
  540loPI   PO4 8628   3.250   2.028   9.401  0.3272 -0.1475  0.0725
  540loPI   GL1 8629   3.064   1.978   8.953  0.1593 -0.0550 -0.0593
  540loPI   GL2 8630   2.993   2.326   8.856  0.2235  0.3986 -0.0878
  540loPI   C1A 8631   3.143   1.923   8.588  0.1197 -0.0148  0.0725
  540loPI   C2A 8632   3.229   1.926   8.097 -0.0040  0.0562 -0.0066
  540loPI   C3A 8633   3.272   1.852   7.730 -0.1431 -0.0255  0.1390
  540loPI   C4A 8634   3.406   1.889   7.362  0.0375  0.3848 -0.1451
  540loPI   C5A 8635   3.340   1.621   7.017  0.0195  0.1572 -0.0204
  540loPI   C6A 8636   3.169   1.444   6.725  0.2911 -0.1092  0.1265
  540loPI   C1B 8637   2.852   2.322   8.437  0.2779 -0.1968 -0.1305
  540loPI   C2B 8638   2.862   2.513   7.992  0.1964  0.1959 -0.0149
  540loPI   C3B 8639   2.666   2.416   7.565  0.3611  0.2569  0.1561
  540loPI   C4B 8640   2.379   2.689   7.270  0.1815  0.0178 -0.0130
  541loPI    C1 8641   5.800   5.587   9.451  0.1308 -0.0088  0.2538
  541loPI    C2 8642   5.925   5.256   9.636  0.1546 -0.1050  0.0683
  541loPI    C3 8643   6.176   5.460   9.402  0.1174  0.0012  0.1205
  541loPI   PO4 8644   5.589   5.478   9.276 -0.5437  0.0012 -0.0301
  541loPI   GL1 8645   5.530   5.201   8.758  0.0165  0.0412  0.0372
  541loPI   GL2 8646   5.840   5.103   8.572  0.1399  0.1047 -0.0625
  541loPI   C1A 8647   5.313   5.138   8.405  0.0353  0.0888  0.0579
  541loPI   C2A 8648   5.313   4.958   7.983 -0.3004 -0.1317  0.0048
  541loPI   C3A 8649   5.283   4.811   7.561  0.2931  0.0697  0.0094
  541loPI   C4A 8650   5.258   4.815   7.173  0.0689  0.1162  0.0686
  541loPI   C5A 8651   5.413   5.002   6.812  0.4726 -0.1004  0.1690
  541loPI   C6A 8652   5.646   5.077   6.381 -0.1453 -0.0449  0.2376
  541loPI   C1B 8653   5.782   5.090   8.067  0.0293 -0.1388 -0.1695
  541loPI   C2B 8654   5.717   5.143   7.657 -0.0783  0.3194  0.1257
  541loPI   C3B 8655   5.688   5.183   7.196  0.2633  0.1405  0.0465
  541loPI   C4B 8656   5.934   5.158   6.833  0.2967 -0.1640 -0.1475
  542loPI    C1 8657   8.522   9.603   9.476 -0.0383  0.0941  0.0201
  542loPI    C2 8658   8.754   9.293   9.577 -0.0682  0.0332 -0.0959
  542loPI    C3 8659   8.546   9.488   9.858  0.0775  0.0511  0.0003
  542loPI   PO4 8660   8.438   9.524   9.219  0.1065  0.0381 -0.1254
  542loPI   GL1 8661   8.170   9.132   9.018 -0.2008 -0.0797 -0.1436
  542loPI   GL2 8662   8.333   9.297   8.806  0.0469 -0.1149  0.1958
  542loPI   C1A 8663   8.086   8.894   8.566  0.0148  0.0010  0.1304
  542loPI   C2A 8664   8.191   8.932   8.112  0.1197  0.0381 -0.0813
  542loPI   C3A 8665   8.085   9.185   7.663 -0.1054  0.2417  0.1084
  542loPI   C4A 8666   8.285   9.109   7.342 -0.0440 -0.1791  0.2647
  542loPI   C5A 8667   8.452   8.903   7.040 -0.0229  0.1146  0.3476
  542loPI   C6A 8668   8.570   8.438   6.728  0.0673 -0.1140  0.1035
  542loPI   C1B 8669   8.324   9.307   8.430 -0.2641  0.2355  0.1554
  542loPI   C2B 8670   8.302   9.407   7.997 -0.2179  0.0959  0.0955
  542loPI   C3B 8671   8.494   9.488   7.523  0.2111  0.1642  0.2899
  542loPI   C4B 8672   8.598   9.474   7.113  0.0481  0.1275  0.1392
  543loPI    C1 8673  14.616   0.444  10.004  0.0091 -0.0832 -0.1294
  543loPI    C2 8674  14.946   0.253  10.125  0.0648  0.1129  0.0352
  543loPI    C3 8675  14.868   0.621  10.260 -0.2095  0.0779 -0.0223
  543loPI   PO4 8676  14.511   0.523   9.676  0.0174  0.1568 -0.1163
  543loPI   GL1 8677  14.370   0.633   9.213 -0.1576 -0.0799 -0.0314
  543loPI   GL2 8678  14.631   0.665   9.215 -0.0873 -0.2259 -0.0185
  543loPI   C1A 8679  14.465   0.497   8.769  0.2251 -0.0705 -0.0456
  543loPI   C2A 8680  14.629   0.715   8.375 -0.5085  0.1372  0.2245
  543loPI   C3A 8681  14.646   0.844   8.013  0.0060  0.4314  0.1935
  543loPI   C4A 8682  14.651   0.793   7.590 -0.1520  0.1155 -0.0070
  543loPI   C5A 8683  14.640   0.929   7.209 -0.0805  0.0308 -0.0517
  543loPI   C6A 8684  14.464   0.628   6.889  0.1203 -0.0546  0.0062
  543loPI   C1B 8685  14.821   0.814   8.858 -0.2569  0.0539 -0.1831
  543loPI   C2B 8686  14.740   1.159   8.465  0.1052  0.0337 -0.0133
  543loPI   C3B 8687  14.612   1.303   8.118  0.0025 -0.0019 -0.0379
  543loPI   C4B 8688  14.583   1.252   7.751 -0.0172  0.2951  0.1290
  544loPI    C1 8689   8.367  12.440   9.188  0.1720  0.0507  0.0806
  544loPI    C2 8690   8.258  12.272   9.535 -0.0377  0.0342  0.0076
  544loPI    C3 8691   8.137  12.643   9.445 -0.0572  0.0055 -0.0859
  544loPI   PO4 8692   8.397  12.293   9.024  0.0756 -0.0335 -0.2356
  544loPI   GL1 8693   8.428  12.568   8.583 -0.0088 -0.0933 -0.0217
  544loPI   GL2 8694   8.450  12.754   8.835 -0.2440  0.0030  0.2951
  544loPI   C1A 8695   8.491  12.714   8.212 -0.0310  0.2089  0.0591
  544loPI   C2A 8696   8.495  12.732   7.732  0.2408  0.3526  0.2597
  544loPI   C3A 8697   8.667  12.837   7.331  0.0335  0.0121  0.4207
  544loPI   C4A 8698   8.540  12.937   6.909 -0.3384  0.1505  0.0635
  544loPI   C5A 8699   8.660  13.126   6.526 -0.2257 -0.0661 -0.3061
  544loPI   C6A 8700   9.097  13.395   6.510  0.1107 -0.3663  0.2502
  544loPI   C1B 8701   8.497  13.099   8.501 -0.3496  0.0181  0.0068
  544loPI   C2B 8702   8.458  13.199   8.111  0.0117 -0.2277 -0.1169
  544loPI   C3B 8703   8.452  13.303   7.699 -0.1082  0.2579 -0.0675
  544loPI   C4B 8704   8.468  13.265   7.278  0.1197 -0.0857  0.1366
  545loPI    C1 8705   5.223   7.485   9.290 -0.0799  0.1547  0.1198
  545loPI    C2 8706   5.482   7.307   9.537 -0.2517 -0.0167  0.1785
  545loPI    C3 8707   5.373   7.686   9.601 -0.2172 -0.0283  0.3073
  545loPI   PO4 8708   5.319   7.402   8.995 -0.2669  0.0567 -0.1627
  545loPI   GL1 8709   5.153   7.528   8.542  0.0834  0.0434  0.0576
  545loPI   GL2 8710   5.273   7.808   8.564  0.2046 -0.1337 -0.3621
  545loPI   C1A 8711   5.142   7.454   8.056 -0.0182  0.0984  0.2584
  545loPI   C2A 8712   5.144   7.356   7.667  0.0688  0.0810 -0.0494
  545loPI   C3A 8713   5.368   7.381   7.268 -0.4018  0.2209  0.0607
  545loPI   C4A 8714   5.520   7.148   6.934  0.0688  0.4824  0.1801
  545loPI   C5A 8715   5.868   6.843   6.607  0.0810  0.4206  0.3378
  545loPI   C6A 8716   6.011   6.463   6.497  0.2720 -0.0737  0.1078
  545loPI   C1B 8717   5.407   8.026   8.119  0.4822  0.0030 -0.2644
  545loPI   C2B 8718   5.062   8.331   7.957  0.0171  0.0732 -0.3675
  545loPI   C3B 8719   4.947   8.405   7.494  0.2942 -0.1468  0.1631
  545loPI   C4B 8720   4.688   8.542   7.223 -0.4066 -0.1271  0.0493
  546loPI    C1 8721  14.764  14.232   9.758 -0.1545  0.0589  0.1094
  546loPI    C2 8722  14.392  14.293   9.890 -0.1802  0.0986  0.0193
  546loPI    C3 8723  14.676  14.565   9.961 -0.1277 -0.0114  0.2372
  546loPI   PO4 8724  14.679  14.153   9.448  0.0002 -0.1395 -0.2615
  546loPI   GL1 8725  14.657  14.312   9.046 -0.0894 -0.1837  0.2516
  546loPI   GL2 8726  14.866  14.482   9.056  0.1881 -0.1458  0.1113
  546loPI   C1A 8727  14.605  14.415   8.683 -0.2039  0.4644  0.1083
  546loPI   C2A 8728  14.633  14.404   8.288 -0.1120 -0.1630 -0.0149
  546loPI   C3A 8729  14.748  14.399   7.914  0.2498 -0.0259  0.1878
  546loPI   C4A 8730  14.784  14.737   7.727 -0.0438  0.1634 -0.0421
  546loPI   C5A 8731  14.719  14.936   7.409  0.1253  0.0945 -0.1519
  546loPI   C6A 8732  14.643  14.813   6.953 -0.1974 -0.1305  0.2906
  546loPI   C1B 8733  14.719  14.828   8.906 -0.1287 -0.0834 -0.1726
  546loPI   C2B 8734  14.840  15.108   8.630 -0.1068  0.1040 -0.0906
  546loPI   C3B 8735  14.893  15.536   8.309 -0.0375 -0.4056  0.1921
  546loPI   C4B 8736  15.142  15.677   7.894 -0.0900 -0.1537  0.2986
  547loPI    C1 8737   3.356  15.443   9.259  0.1605 -0.0845 -0.1458
  547loPI    C2 8738   3.043  15.575   9.470  0.2929  0.0848 -0.0526
  547loPI    C3 8739   3.204  15.218   9.554  0.2813  0.1070  0.0661
  547loPI   PO4 8740   3.272  15.436   9.001  0.5516  0.0203  0.2304
  547loPI   GL1 8741   3.401  15.448   8.595 -0.1778 -0.2526 -0.1447
  547loPI   GL2 8742   3.117  15.603   8.511  0.0815 -0.0660 -0.1811
  547loPI   C1A 8743   3.464  15.353   8.135 -0.4636  0.0891  0.0434
  547loPI   C2A 8744   3.711  15.334   7.763  0.1742  0.1285  0.3367
  547loPI   C3A 8745   3.892  15.252   7.256  0.0905  0.1715 -0.1838
  547loPI   C4A 8746   3.641  15.077   6.921  0.1570  0.2304 -0.0781
  547loPI   C5A 8747   3.450  15.189   6.635  0.0896  0.0965 -0.0180
  547loPI   C6A 8748   3.414  15.294   6.237  0.3363  0.0888  0.3129
  547loPI   C1B 8749   3.085  15.639   8.102 -0.0346  0.1232  0.4087
  547loPI   C2B 8750   3.103  15.586   7.649 -0.1705 -0.3347 -0.2044
  547loPI   C3B 8751   2.865  15.692   7.241  0.1542 -0.1738  0.0408
  547loPI   C4B 8752   2.578  15.596   6.987  0.0023  0.0361  0.2931
  548loPI    C1 8753   6.875   8.958   9.236  0.1324 -0.2648  0.1446
  548loPI    C2 8754   7.038   8.891   9.595  0.3128 -0.1805  0.0794
  548loPI    C3 8755   7.273   8.954   9.278  0.1532  0.0830  0.0107
  548loPI   PO4 8756   6.654   8.744   9.182 -0.1372  0.1237 -0.3642
  548loPI   GL1 8757   6.447   8.695   8.841  0.2315  0.0433 -0.3488
  548loPI   GL2 8758   6.359   8.990   8.749  0.2621 -0.3244  0.5069
  548loPI   C1A 8759   6.302   8.538   8.551 -0.2113 -0.2238 -0.0409
  548loPI   C2A 8760   5.828   8.620   8.363  0.3016  0.0409  0.1364
  548loPI   C3A 8761   5.794   8.486   7.987 -0.3336  0.1294 -0.2717
  548loPI   C4A 8762   5.515   8.308   7.664 -0.3577  0.1035  0.0292
  548loPI   C5A 8763   5.283   8.068   7.240  0.2570  0.1137 -0.0512
  548loPI   C6A 8764   5.229   7.926   6.831  0.0932 -0.1700 -0.0449
  548loPI   C1B 8765   6.195   8.963   8.310  0.1116 -0.3620  0.1766
  548loPI   C2B 8766   6.336   8.867   7.962 -0.1262  0.1994  0.0016
  548loPI   C3B 8767   6.320   8.841   7.437  0.4178 -0.0916  0.2272
  548loPI   C4B 8768   6.000   8.652   7.106  0.0829  0.1424  0.3373
  549loPI    C1 8769   0.074   2.344   9.541 -0.1185  0.0902 -0.2634
  549loPI    C2 8770  -0.232   2.574   9.425 -0.1193  0.1666 -0.1121
  549loPI    C3 8771   0.048   2.722   9.669 -0.1597 -0.0148  0.0471
  549loPI   PO4 8772   0.134   2.277   9.206 -0.0110 -0.2270 -0.2545
  549loPI   GL1 8773   0.127   2.601   8.891  0.1421  0.0783  0.0006
  549loPI   GL2 8774   0.301   2.780   8.696  0.0194 -0.2250  0.0383
  549loPI   C1A 8775  -0.154   2.691   8.594  0.1619  0.2249 -0.1398
  549loPI   C2A 8776  -0.020   2.533   8.294 -0.2185  0.0353  0.1276
  549loPI   C3A 8777   0.367   2.567   7.956  0.2743  0.1531  0.0476
  549loPI   C4A 8778   0.727   2.676   7.687  0.1857  0.2041  0.0846
  549loPI   C5A 8779   0.849   2.814   7.262 -0.1642 -0.0347  0.0806
  549loPI   C6A 8780   1.050   3.102   7.013 -0.0245  0.1459  0.1697
  549loPI   C1B 8781   0.481   2.545   8.404 -0.3404 -0.1318 -0.1493
  549loPI   C2B 8782   0.859   2.816   8.326  0.3005  0.2947  0.0083
  549loPI   C3B 8783   0.998   3.061   7.971  0.1608 -0.0700  0.2121
  549loPI   C4B 8784   1.174   3.267   7.583  0.0831 -0.2132  0.2268
  550loPI    C1 8785  17.498   2.778   9.803  0.0338  0.0371  0.0685
  550loPI    C2 8786  17.659   2.609  10.128 -0.0333  0.1252  0.1481
  550loPI    C3 8787  17.274   2.547  10.041  0.0409 -0.0844 -0.0415
  550loPI   PO4 8788  17.637   2.651   9.604 -0.0443  0.0206 -0.1180
  550loPI   GL1 8789  17.626   2.660   9.203 -0.0491 -0.0813  0.1048
  550loPI   GL2 8790  17.758   2.919   8.995 -0.0055 -0.1262  0.2276
  550loPI   C1A 8791  17.312   2.611   8.849 -0.0673 -0.0179 -0.0559
  550loPI   C2A 8792  17.455   2.542   8.338  0.0549  0.2473  0.0545
  550loPI   C3A 8793  17.281   2.721   7.992  0.2842  0.1538  0.0330
  550loPI   C4A 8794  17.254   2.820   7.548  0.0033  0.1805  0.0980
  550loPI   C5A 8795  17.275   2.853   7.124  0.0017 -0.3762 -0.1863
  550loPI   C6A 8796  17.033   2.701   6.809  0.0933  0.2378 -0.1403
  550loPI   C1B 8797  17.554   2.999   8.676 -0.0617  0.3987  0.0144
  550loPI   C2B 8798  17.166   2.913   8.497  0.1591  0.0686  0.1274
  550loPI   C3B 8799  16.839   3.216   8.275 -0.1428  0.5972 -0.5025
  550loPI   C4B 8800  16.610   3.441   7.995 -0.0700  0.2726 -0.1269
  551loPI    C1 8801   7.046   8.461   9.470  0.0107  0.2680 -0.0006
  551loPI    C2 8802   7.354   8.339   9.695 -0.1383  0.0034  0.0638
  551loPI    C3 8803   7.022   8.476   9.869 -0.2260 -0.1317  0.0051
  551loPI   PO4 8804   7.013   8.302   9.177  0.0974 -0.2429  0.4364
  551loPI   GL1 8805   6.841   8.305   8.675  0.0767  0.2107 -0.0179
  551loPI   GL2 8806   6.688   8.059   8.710  0.0689 -0.3172  0.2828
  551loPI   C1A 8807   7.116   8.514   8.332 -0.0889  0.3892  0.2313
  551loPI   C2A 8808   7.249   8.539   7.906  0.1718  0.0662 -0.0009
  551loPI   C3A 8809   7.408   8.743   7.515 -0.0945 -0.1933  0.3145
  551loPI   C4A 8810   7.456   8.830   7.023 -0.0414 -0.0454  0.1088
  551loPI   C5A 8811   7.788   8.937   6.680  0.0089  0.0255  0.1668
  551loPI   C6A 8812   7.808   9.139   6.325 -0.0566 -0.1115 -0.0395
  551loPI   C1B 8813   6.497   8.091   8.348 -0.0736  0.1281  0.0257
  551loPI   C2B 8814   6.272   8.215   7.922 -0.0824  0.0801 -0.1099
  551loPI   C3B 8815   5.988   8.232   7.565 -0.0912 -0.0668  0.1517
  551loPI   C4B 8816   5.806   7.985   7.223  0.0418 -0.0728 -0.0509
  552loPI    C1 8817   1.850  16.687   9.111 -0.1535 -0.0554 -0.0836
  552loPI    C2 8818   2.066  16.414   9.308 -0.0227 -0.0518 -0.2198
  552loPI    C3 8819   2.010  16.777   9.466  0.0847 -0.0477 -0.1907
  552loPI   PO4 8820   1.926  16.557   8.867  0.0201  0.1161 -0.0254
  552loPI   GL1 8821   2.310  16.756   8.560  0.3531 -0.1081  0.0086
  552loPI   GL2 8822   2.516  16.685   8.354 -0.3580 -0.0949  0.0961
  552loPI   C1A 8823   2.080  16.803   8.180 -0.2232  0.0404 -0.0583
  552loPI   C2A 8824   2.047  16.804   7.724 -0.2651  0.1128  0.0557
  552loPI   C3A 8825   1.781  16.635   7.369 -0.0656 -0.0971 -0.2311
  552loPI   C4A 8826   1.501  16.634   7.130 -0.2503  0.1366 -0.1311
  552loPI   C5A 8827   1.232  16.396   6.936  0.0533 -0.3355  0.0696
  552loPI   C6A 8828   1.253  16.088   6.719 -0.0029  0.2631  0.2027
  552loPI   C1B 8829   2.613  16.684   7.939  0.0833 -0.1956 -0.1043
  552loPI   C2B 8830   2.768  16.907   7.526  0.4339  0.1195  0.2035
  552loPI   C3B 8831   3.093  16.983   7.312 -0.1203  0.4112  0.2269
  552loPI   C4B 8832   3.286  17.182   6.953 -0.1137 -0.0759 -0.0919
  553loPI    C1 8833  18.441   3.696   9.489  0.1436  0.0806 -0.3188
  553loPI    C2 8834  18.776   3.711   9.706  0.0623  0.0186 -0.1879
  553loPI    C3 8835  18.601   4.050   9.584  0.0440  0.0572 -0.0564
  553loPI   PO4 8836  18.486   3.540   9.258 -0.3896  0.0228  0.1062
  553loPI   GL1 8837  18.867   3.514   8.849 -0.0767 -0.2290 -0.1665
  553loPI   GL2 8838  18.638   3.259   8.879  0.1677 -0.2338 -0.1590
  553loPI   C1A 8839  18.991   3.639   8.360 -0.2576  0.2267  0.3980
  553loPI   C2A 8840  18.968   3.591   7.885  0.1940 -0.1494  0.0965
  553loPI   C3A 8841  18.851   3.767   7.527 -0.1772 -0.2325  0.1719
  553loPI   C4A 8842  18.695   4.107   7.099 -0.1488 -0.3308 -0.0838
  553loPI   C5A 8843  18.475   3.994   6.684 -0.2999 -0.4416  0.0007
  553loPI   C6A 8844  18.291   4.307   6.425  0.1982  0.1844 -0.1586
  553loPI   C1B 8845  18.590   3.340   8.417  0.0997  0.0425  0.1138
  553loPI   C2B 8846  18.707   3.222   8.037  0.4682  0.1036  0.0897
  553loPI   C3B 8847  18.915   3.110   7.741 -0.1182  0.3051 -0.2433
  553loPI   C4B 8848  19.019   2.929   7.450 -0.1994 -0.0463 -0.0726
  554loPI    C1 8849  10.893   2.103   9.921 -0.2258 -0.1170  0.0095
  554loPI    C2 8850  10.612   1.891  10.113 -0.1550 -0.0755  0.1599
  554loPI    C3 8851  10.790   2.200  10.295 -0.0218 -0.0924  0.0605
  554loPI   PO4 8852  10.829   1.988   9.621  0.0905  0.1571 -0.3710
  554loPI   GL1 8853  10.684   1.888   9.131 -0.1414  0.0438  0.3634
  554loPI   GL2 8854  10.870   1.727   8.916 -0.2142 -0.0276  0.0928
  554loPI   C1A 8855  10.495   1.972   8.635  0.2151  0.0868  0.1914
  554loPI   C2A 8856  10.547   2.104   8.300  0.0913 -0.1019  0.0336
  554loPI   C3A 8857  10.751   2.371   8.108  0.2417  0.0085 -0.1785
  554loPI   C4A 8858  10.808   2.512   7.623  0.0140  0.1309  0.0903
  554loPI   C5A 8859  10.721   2.608   7.274 -0.4623  0.0301 -0.0138
  554loPI   C6A 8860  10.615   3.037   7.148  0.3508 -0.0739 -0.1744
  554loPI   C1B 8861  10.916   1.802   8.435  0.0570 -0.2255  0.1164
  554loPI   C2B 8862  10.687   1.818   7.921 -0.0104 -0.0578 -0.1872
  554loPI   C3B 8863  10.700   1.987   7.439 -0.0236 -0.0246 -0.2913
  554loPI   C4B 8864  10.447   2.150   7.155  0.2032 -0.3802 -0.1044
  555loPI    C1 8865   3.757  11.411   9.277  0.0312 -0.1053 -0.2520
  555loPI    C2 8866   4.122  11.287   9.383  0.0257  0.0609 -0.0329
  555loPI    C3 8867   4.024  11.673   9.419 -0.2656 -0.0296  0.1848
  555loPI   PO4 8868   3.722  11.408   9.019  0.0007  0.3914 -0.1729
  555loPI   GL1 8869   3.618  11.039   8.734 -0.2629 -0.1391 -0.0443
  555loPI   GL2 8870   3.956  11.180   8.702  0.0454  0.1978 -0.2233
  555loPI   C1A 8871   3.550  10.862   8.279 -0.1065 -0.0272 -0.0345
  555loPI   C2A 8872   3.500  10.961   7.851  0.0753  0.0767 -0.1295
  555loPI   C3A 8873   3.821  10.990   7.555 -0.0074 -0.1095  0.0067
  555loPI   C4A 8874   4.223  10.926   7.312 -0.0326  0.0524 -0.1694
  555loPI   C5A 8875   4.333  10.918   6.861  0.0640 -0.0242  0.1044
  555loPI   C6A 8876   4.457  10.638   6.545 -0.2352  0.2587 -0.2130
  555loPI   C1B 8877   3.848  11.444   8.364  0.1133  0.2956 -0.2642
  555loPI   C2B 8878   3.683  11.387   7.885 -0.1581  0.1248  0.0119
  555loPI   C3B 8879   3.422  11.310   7.521 -0.3457  0.1506  0.1813
  555loPI   C4B 8880   3.403  11.156   7.181 -0.0960  0.1895 -0.2096
  556loPI    C1 8881  18.882   0.351   9.357  0.2182 -0.0664 -0.0300
  556loPI    C2 8882  18.643   0.333   9.677 -0.0724 -0.1508 -0.2470
  556loPI    C3 8883  19.024   0.213   9.705  0.0405  0.2736  0.1820
  556loPI   PO4 8884  18.704   0.291   9.120  0.1628 -0.0767 -0.1495
  556loPI   GL1 8885  18.453   0.242   8.824  0.0389 -0.0520 -0.0068
  556loPI   GL2 8886  18.351   0.545   8.717  0.1316 -0.0050 -0.0762
  556loPI   C1A 8887  18.508  -0.063   8.534 -0.2395  0.2461 -0.1979
  556loPI   C2A 8888  18.733  -0.236   8.262  0.2693 -0.0558 -0.0194
  556loPI   C3A 8889  18.871  -0.083   7.956  0.1089  0.0015 -0.0058
  556loPI   C4A 8890  19.122   0.107   7.541  0.2921 -0.0357  0.2491
  556loPI   C5A 8891  19.325   0.285   7.108  0.1367  0.2835 -0.2148
  556loPI   C6A 8892  19.529   0.512   6.718 -0.0198 -0.0099  0.0601
  556loPI   C1B 8893  18.232   0.284   8.390 -0.1063  0.3484 -0.1221
  556loPI   C2B 8894  18.175  -0.117   8.064 -0.1138 -0.3606 -0.1027
  556loPI   C3B 8895  18.407  -0.257   7.681  0.0449 -0.0836  0.0569
  556loPI   C4B 8896  18.441  -0.601   7.452  0.0231 -0.2583  0.2113
  557loPI    C1 8897  18.762   6.767   9.624  0.0341  0.1178  0.2041
  557loPI    C2 8898  18.377   6.691   9.544  0.1079  0.0734 -0.1219
  557loPI    C3 8899  18.547   6.539   9.873 -0.1198 -0.0089 -0.0406
  557loPI   PO4 8900  18.830   6.903   9.446  0.1330  0.0988 -0.0337
  557loPI   GL1 8901  18.976   6.855   8.942 -0.2342 -0.1331  0.0662
  557loPI   GL2 8902  18.840   6.670   8.623  0.0619  0.1583 -0.0637
  557loPI   C1A 8903  18.930   7.204   8.632  0.1167 -0.0096 -0.1673
  557loPI   C2A 8904  18.805   7.315   8.189  0.0043 -0.1729  0.1827
  557loPI   C3A 8905  18.755   7.427   7.700  0.1980  0.0262 -0.1126
  557loPI   C4A 8906  18.649   7.186   7.297  0.1393 -0.0602  0.0026
  557loPI   C5A 8907  18.698   7.268   6.846  0.0544  0.2291  0.0790
  557loPI   C6A 8908  18.562   7.009   6.413 -0.1184 -0.0124  0.1531
  557loPI   C1B 8909  18.699   6.535   8.324  0.0283  0.3527 -0.3568
  557loPI   C2B 8910  18.864   6.441   7.948  0.2810 -0.0307  0.0576
  557loPI   C3B 8911  18.770   6.535   7.540  0.0841  0.0838  0.0332
  557loPI   C4B 8912  18.724   6.698   7.192 -0.0563 -0.1463  0.1655
  558loPI    C1 8913   5.009  14.160   9.218 -0.1875 -0.0265  0.1248
  558loPI    C2 8914   5.223  14.357   9.492 -0.0051 -0.0354 -0.0092
  558loPI    C3 8915   5.053  14.007   9.584  0.0878 -0.0573  0.0810
  558loPI   PO4 8916   5.153  14.137   9.009  0.1340  0.0532 -0.2576
  558loPI   GL1 8917   5.135  13.912   8.685 -0.2083  0.4730 -0.2144
  558loPI   GL2 8918   5.287  13.667   8.847 -0.1185  0.0197 -0.2824
  558loPI   C1A 8919   5.226  13.793   8.095  0.0996 -0.0574 -0.2210
  558loPI   C2A 8920   5.169  13.913   7.657  0.1792 -0.0453  0.1110
  558loPI   C3A 8921   5.121  13.999   7.333  0.2620 -0.2048 -0.0504
  558loPI   C4A 8922   5.120  14.047   6.965  0.0616 -0.1297  0.0919
  558loPI   C5A 8923   4.862  14.056   6.615 -0.1664 -0.0715  0.2006
  558loPI   C6A 8924   4.552  13.887   6.360  0.2466  0.0823 -0.0820
  558loPI   C1B 8925   5.406  13.521   8.537  0.1072 -0.3260  0.2112
  558loPI   C2B 8926   5.298  13.311   8.169 -0.0628 -0.0454 -0.1363
  558loPI   C3B 8927   5.428  13.373   7.839 -0.2822  0.0346  0.4526
  558loPI   C4B 8928   5.415  13.478   7.343  0.0744  0.1643 -0.1742
  559loPI    C1 8929   9.954   3.891   9.772  0.0681  0.2659 -0.2514
  559loPI    C2 8930  10.177   3.904  10.104 -0.1275 -0.0107 -0.1064
  559loPI    C3 8931   9.904   4.188  10.035 -0.0648  0.0644 -0.0467
  559loPI   PO4 8932  10.019   3.799   9.548 -0.0848  0.0014  0.1324
  559loPI   GL1 8933  10.069   3.763   9.085  0.3757  0.0970 -0.0751
  559loPI   GL2 8934  10.344   4.034   8.979 -0.1931 -0.0831  0.2694
  559loPI   C1A 8935   9.930   3.448   8.868 -0.1432  0.0970  0.0504
  559loPI   C2A 8936   9.739   3.446   8.511  0.3223 -0.1413  0.0305
  559loPI   C3A 8937   9.794   3.264   8.084 -0.0673  0.0389 -0.0413
  559loPI   C4A 8938   9.894   3.426   7.756  0.3929 -0.2421  0.2836
  559loPI   C5A 8939   9.632   3.393   7.363  0.0130 -0.0280 -0.2135
  559loPI   C6A 8940   9.603   3.271   6.962 -0.1112 -0.0093 -0.0017
  559loPI   C1B 8941  10.290   4.177   8.620 -0.1063 -0.1713  0.0783
  559loPI   C2B 8942  10.416   4.132   8.175  0.0101 -0.3339  0.0852
  559loPI   C3B 8943  10.504   4.301   7.765 -0.0216  0.0961 -0.0493
  559loPI   C4B 8944  10.507   4.505   7.441  0.1330 -0.2578 -0.2405
  560loPI    C1 8945   4.794   5.438   9.379 -0.0506 -0.1383 -0.2714
  560loPI    C2 8946   4.670   5.179   9.658 -0.0462  0.2300  0.0820
  560loPI    C3 8947   5.061   5.225   9.587 -0.0562 -0.0447 -0.1671
  560loPI   PO4 8948   4.703   5.469   9.192  0.2266  0.0322  0.1533
  560loPI   GL1 8949   4.743   5.355   8.796 -0.1312  0.0414 -0.3325
  560loPI   GL2 8950   4.597   5.532   8.691 -0.1309  0.0554 -0.0604
  560loPI   C1A 8951   4.840   5.223   8.358 -0.1315 -0.0307 -0.0184
  560loPI   C2A 8952   4.769   4.953   7.885  0.0991 -0.1832  0.1275
  560loPI   C3A 8953   4.733   4.805   7.482 -0.1765  0.0553  0.0396
  560loPI   C4A 8954   4.714   4.811   7.043  0.2624  0.3228 -0.1673
  560loPI   C5A 8955   4.656   4.554   6.708  0.2402  0.1408  0.1902
  560loPI   C6A 8956   4.601   4.106   6.645  0.0244  0.1914  0.0804
  560loPI   C1B 8957   4.559   5.669   8.294 -0.0478 -0.3608  0.1666
  560loPI   C2B 8958   4.695   5.656   7.994  0.0138  0.1505 -0.2495
  560loPI   C3B 8959   4.690   5.403   7.636 -0.0925 -0.3225 -0.0645
  560loPI   C4B 8960   4.516   5.424   7.255 -0.0218  0.0232 -0.1163
  561loPI    C1 8961   6.740  16.716   8.922  0.0122 -0.1771  0.1047
  561loPI    C2 8962   6.644  16.385   9.125  0.0844 -0.2257  0.0602
  561loPI    C3 8963   6.815  16.692   9.315  0.0191 -0.2143  0.1010
  561loPI   PO4 8964   6.836  16.659   8.705  0.1075  0.0262 -0.2590
  561loPI   GL1 8965   6.640  16.689   8.306 -0.2094  0.0637 -0.3249
  561loPI   GL2 8966   6.773  16.959   8.082 -0.0719 -0.2749  0.0897
  561loPI   C1A 8967   6.576  16.518   7.992  0.2151 -0.0606  0.0246
  561loPI   C2A 8968   6.599  16.442   7.512  0.0119  0.1979  0.2840
  561loPI   C3A 8969   6.439  16.393   7.220 -0.0721 -0.1735 -0.1910
  561loPI   C4A 8970   6.127  16.345   6.933 -0.0061 -0.1909  0.0106
  561loPI   C5A 8971   5.959  16.459   6.556 -0.1630 -0.1406  0.3097
  561loPI   C6A 8972   5.755  16.316   6.147 -0.4570 -0.2505 -0.0796
  561loPI   C1B 8973   6.854  16.952   7.670 -0.1434  0.0856  0.1416
  561loPI   C2B 8974   6.853  16.830   7.255 -0.0103 -0.0479  0.0898
  561loPI   C3B 8975   6.853  16.777   6.877 -0.1691  0.3791  0.1177
  561loPI   C4B 8976   7.047  16.715   6.457 -0.2511 -0.1583  0.1194
  562loPI    C1 8977   6.320   4.951   9.264 -0.0457  0.0800  0.0012
  562loPI    C2 8978   6.244   4.559   9.285 -0.0934  0.0880 -0.0211
  562loPI    C3 8979   6.163   4.795   9.598  0.2229  0.0315  0.1076
  562loPI   PO4 8980   6.296   5.027   9.003 -0.0311 -0.1610 -0.0278
  562loPI   GL1 8981   6.366   5.262   8.626 -0.0956 -0.1607  0.0114
  562loPI   GL2 8982   6.679   5.316   8.641  0.2869 -0.2093 -0.0417
  562loPI   C1A 8983   6.538   5.089   8.233  0.0001 -0.2067 -0.0926
  562loPI   C2A 8984   6.567   5.089   7.759 -0.0613 -0.2742 -0.0294
  562loPI   C3A 8985   6.687   5.147   7.365 -0.0147  0.2059 -0.0955
  562loPI   C4A 8986   7.058   5.246   7.287 -0.1980  0.0744  0.1450
  562loPI   C5A 8987   7.357   5.153   7.058 -0.0639 -0.2098  0.1505
  562loPI   C6A 8988   7.704   5.331   6.770 -0.0367  0.1556 -0.3040
  562loPI   C1B 8989   6.587   5.578   8.274 -0.2571  0.0949  0.0963
  562loPI   C2B 8990   6.498   5.833   8.019 -0.0378  0.2461 -0.0523
  562loPI   C3B 8991   6.179   5.952   7.770  0.0706  0.1917  0.1290
  562loPI   C4B 8992   6.158   5.975   7.312  0.0362 -0.1150  0.0087
  563loPI    C1 8993  12.449   8.527   9.261 -0.1545 -0.3523  0.1650
  563loPI    C2 8994  12.594   8.538   9.634 -0.1329 -0.0050  0.1500
  563loPI    C3 8995  12.231   8.686   9.556 -0.0223  0.1846 -0.0146
  563loPI   PO4 8996  12.517   8.379   9.061 -0.0222  0.0065  0.0932
  563loPI   GL1 8997  12.747   8.391   8.704  0.0680  0.1482 -0.1072
  563loPI   GL2 8998  12.458   8.442   8.525  0.1622 -0.2729  0.1062
  563loPI   C1A 8999  12.943   8.464   8.340  0.2550  0.1368 -0.2148
  563loPI   C2A 9000  12.923   8.425   7.884 -0.0829 -0.2031  0.1265
  563loPI   C3A 9001  12.818   8.475   7.432 -0.3353  0.0298 -0.0631
  563loPI   C4A 9002  12.883   8.329   6.957  0.0176  0.1472  0.0294
  563loPI   C5A 9003  12.564   8.398   6.590 -0.1184 -0.0164  0.2779
  563loPI   C6A 9004  12.276   8.768   6.414  0.3935  0.1260 -0.1597
  563loPI   C1B 9005  12.101   8.167   8.278  0.2471  0.0814 -0.0615
  563loPI   C2B 9006  11.831   8.019   7.866 -0.0867 -0.2447  0.1912
  563loPI   C3B 9007  11.733   8.267   7.615  0.0066 -0.0570  0.2268
  563loPI   C4B 9008  11.480   8.632   7.565  0.0387 -0.1310  0.1236
  564loPI    C1 9009   5.393   1.774   9.448  0.1949  0.0822  0.1187
  564loPI    C2 9010   5.516   1.419   9.586  0.0841 -0.0141 -0.0283
  564loPI    C3 9011   5.369   1.692   9.839 -0.0032 -0.1433  0.0616
  564loPI   PO4 9012   5.554   1.718   9.186  0.2760 -0.0327 -0.0154
  564loPI   GL1 9013   5.531   1.512   8.846  0.0402  0.2355  0.2278
  564loPI   GL2 9014   5.657   1.218   8.735 -0.0698  0.1177  0.4418
  564loPI   C1A 9015   5.176   1.318   8.742 -0.2155 -0.0887 -0.2418
  564loPI   C2A 9016   4.958   1.584   8.396 -0.1876 -0.2439 -0.0469
  564loPI   C3A 9017   5.092   1.797   7.997  0.0399  0.0317 -0.1419
  564loPI   C4A 9018   5.020   2.051   7.604 -0.0698  0.3458  0.1914
  564loPI   C5A 9019   5.273   2.038   7.203 -0.0352  0.2674  0.3126
  564loPI   C6A 9020   5.472   2.081   6.813 -0.1636  0.1683  0.0052
  564loPI   C1B 9021   5.495   1.338   8.304  0.2373  0.0320  0.0060
  564loPI   C2B 9022   5.587   1.397   7.881 -0.0589  0.0882  0.1324
  564loPI   C3B 9023   5.508   1.239   7.477 -0.0964  0.4365 -0.1850
  564loPI   C4B 9024   5.538   1.094   7.026  0.0678 -0.1236  0.0173
  565loPI    C1 9025  16.899   4.393   9.615 -0.1982 -0.2559  0.1782
  565loPI    C2 9026  17.274   4.263   9.661 -0.0778 -0.0275 -0.1262
  565loPI    C3 9027  17.061   4.374   9.980  0.1890  0.0470  0.0293
  565loPI   PO4 9028  16.840   4.268   9.482  0.0108 -0.1705  0.0952
  565loPI   GL1 9029  16.731   4.275   9.043 -0.1861 -0.0997 -0.2579
  565loPI   GL2 9030  16.431   4.186   9.165 -0.0989 -0.1136 -0.3630
  565loPI   C1A 9031  16.721   4.103   8.566 -0.3699 -0.3426 -0.0032
  565loPI   C2A 9032  16.706   4.196   8.111  0.1168 -0.0547  0.2836
  565loPI   C3A 9033  16.766   4.356   7.706 -0.0833  0.0794  0.0993
  565loPI   C4A 9034  16.994   4.601   7.403 -0.0416 -0.2362  0.4408
  565loPI   C5A 9035  16.780   4.623   6.987  0.1348  0.1161  0.2920
  565loPI   C6A 9036  16.598   4.591   6.581 -0.4590  0.1150  0.2050
  565loPI   C1B 9037  16.119   4.043   8.821 -0.3908 -0.2644 -0.2077
  565loPI   C2B 9038  15.831   4.071   8.543  0.0248 -0.1232 -0.0655
  565loPI   C3B 9039  15.772   3.805   8.079  0.0264  0.1262  0.1803
  565loPI   C4B 9040  15.499   3.674   7.699  0.0846 -0.2694  0.2926
  566loPI    C1 9041  14.233   8.023   9.830 -0.1119 -0.1937  0.0835
  566loPI    C2 9042  14.325   7.648   9.726  0.2339 -0.0907  0.0019
  566loPI    C3 9043  14.548   7.841   9.996 -0.0588 -0.0081  0.1896
  566loPI   PO4 9044  14.209   8.149   9.568  0.0230 -0.1661 -0.3707
  566loPI   GL1 9045  13.998   8.198   9.172 -0.2416 -0.1506 -0.1805
  566loPI   GL2 9046  14.041   7.848   9.118  0.3504 -0.4734  0.0086
  566loPI   C1A 9047  13.749   8.349   8.841  0.3560  0.1949 -0.2845
  566loPI   C2A 9048  13.801   8.184   8.370  0.1715  0.0945 -0.0896
  566loPI   C3A 9049  13.873   8.094   7.921 -0.0167 -0.1384  0.0612
  566loPI   C4A 9050  14.125   8.186   7.583  0.1708 -0.2223 -0.2130
  566loPI   C5A 9051  14.264   8.538   7.342  0.0058 -0.0937 -0.0975
  566loPI   C6A 9052  13.979   8.947   7.271  0.1713 -0.1038  0.1058
  566loPI   C1B 9053  14.069   8.060   8.736 -0.3236  0.2887 -0.1155
  566loPI   C2B 9054  14.144   7.784   8.474 -0.0871 -0.0196 -0.1412
  566loPI   C3B 9055  14.054   7.548   8.127  0.0590  0.1464  0.1244
  566loPI   C4B 9056  13.831   7.532   7.751  0.1726 -0.1896 -0.3088
  567loPI    C1 9057  10.918  11.498   9.640 -0.1311 -0.0431 -0.0512
  567loPI    C2 9058  10.705  11.733   9.883 -0.0291  0.0156 -0.0177
  567loPI    C3 9059  11.073  11.842   9.772  0.0157 -0.1239 -0.0092
  567loPI   PO4 9060  10.762  11.490   9.395  0.0816  0.2138 -0.3982
  567loPI   GL1 9061  10.730  11.663   9.049 -0.1638 -0.2617 -0.1544
  567loPI   GL2 9062  11.001  11.446   8.950 -0.1416 -0.1793 -0.2756
  567loPI   C1A 9063  10.649  11.639   8.634  0.4251 -0.1970 -0.2442
  567loPI   C2A 9064  10.722  11.826   8.380 -0.0537  0.0674 -0.0373
  567loPI   C3A 9065  10.789  11.914   7.846 -0.1290  0.1318  0.2031
  567loPI   C4A 9066  10.566  12.116   7.427  0.2312 -0.4477  0.0875
  567loPI   C5A 9067  10.629  12.121   7.090 -0.1787 -0.2570  0.0569
  567loPI   C6A 9068  10.399  12.010   6.754 -0.1629  0.3190 -0.2729
  567loPI   C1B 9069  11.132  11.431   8.629 -0.4677 -0.1917  0.2745
  567loPI   C2B 9070  11.116  11.552   8.110 -0.2699  0.0280 -0.0789
  567loPI   C3B 9071  11.154  11.601   7.670  0.0427 -0.1549 -0.3109
  567loPI   C4B 9072  10.878  11.712   7.374  0.2157  0.2039 -0.0444
  568loPI    C1 9073   9.892  18.398   9.412 -0.2377  0.0269  0.4003
  568loPI    C2 9074  10.060  18.071   9.568 -0.0790  0.0529  0.2855
  568loPI    C3 9075   9.756  18.248   9.757 -0.0886 -0.0924  0.4082
  568loPI   PO4 9076   9.874  18.348   9.179 -0.2670 -0.1504 -0.2183
  568loPI   GL1 9077  10.129  18.334   8.827 -0.2739  0.1551 -0.1229
  568loPI   GL2 9078  10.347  18.535   8.908  0.0901 -0.2146  0.0121
  568loPI   C1A 9079  10.238  18.212   8.389  0.0783 -0.6369 -0.2718
  568loPI   C2A 9080  10.185  18.402   7.830  0.0858 -0.2142  0.2655
  568loPI   C3A 9081  10.184  18.557   7.332 -0.0348 -0.1280 -0.1256
  568loPI   C4A 9082  10.374  18.669   6.879  0.1036  0.0695 -0.1391
  568loPI   C5A 9083  10.786  18.811   6.669 -0.1110  0.0631 -0.1697
  568loPI   C6A 9084  11.060  19.012   6.743  0.0173 -0.0343 -0.0391
  568loPI   C1B 9085  10.465  18.808   8.538 -0.2682  0.1203 -0.4070
  568loPI   C2B 9086  10.364  18.797   8.104 -0.1008  0.0132 -0.1336
  568loPI   C3B 9087  10.325  18.924   7.633  0.0541  0.3088  0.1799
  568loPI   C4B 9088  10.314  19.068   7.233  0.1364  0.3050 -0.4092
  569loPI    C1 9089  16.023  18.895   9.880 -0.1864  0.1557  0.0064
  569loPI    C2 9090  16.355  18.833  10.093 -0.1464  0.1333 -0.0620
  569loPI    C3 9091  16.002  18.868  10.278 -0.1048  0.1686  0.0117
  569loPI   PO4 9092  16.057  19.163   9.616 -0.0426 -0.2428 -0.0673
  569loPI   GL1 9093  15.776  19.091   9.232 -0.2269 -0.1644 -0.1807
  569loPI   GL2 9094  15.869  19.416   9.050 -0.2056 -0.3956  0.1648
  569loPI   C1A 9095  16.052  19.049   8.858 -0.0588  0.0807 -0.0762
  569loPI   C2A 9096  16.128  19.266   8.410  0.2054  0.2352  0.3316
  569loPI   C3A 9097  16.069  19.365   7.907  0.1026 -0.2997 -0.0934
  569loPI   C4A 9098  16.143  19.359   7.435  0.1322  0.2775  0.0166
  569loPI   C5A 9099  16.284  19.395   7.042  0.1269  0.2372 -0.2802
  569loPI   C6A 9100  16.427  19.631   6.732 -0.0395 -0.2782 -0.1944
  569loPI   C1B 9101  16.218  19.471   8.828 -0.1110 -0.4946  0.1357
  569loPI   C2B 9102  16.287  19.735   8.510 -0.2300 -0.1909  0.1707
  569loPI   C3B 9103  16.313  19.763   8.011 -0.0219 -0.0006 -0.0787
  569loPI   C4B 9104  16.351  19.815   7.666  0.2198 -0.1873 -0.0698
  570loPI    C1 9105  11.148   0.655   9.417 -0.0092  0.0441 -0.0035
  570loPI    C2 9106  10.920   0.762   9.106  0.2803  0.3874 -0.1054
  570loPI    C3 9107  11.007   1.028   9.391  0.3262  0.1801  0.0774
  570loPI   PO4 9108  11.345   0.496   9.146 -0.0296  0.2590 -0.0726
  570loPI   GL1 9109  11.552   0.292   8.893 -0.1960 -0.1235  0.0909
  570loPI   GL2 9110  11.379  -0.133   8.792  0.0494  0.6300 -0.1399
  570loPI   C1A 9111  11.617   0.420   8.444 -0.1197 -0.1841  0.0074
  570loPI   C2A 9112  11.526   0.661   8.137  0.1583 -0.0453 -0.0243
  570loPI   C3A 9113  11.393   0.595   7.715  0.0076 -0.2426  0.3219
  570loPI   C4A 9114  11.450   0.432   7.210 -0.2546  0.2721 -0.0198
  570loPI   C5A 9115  11.531   0.294   6.790  0.0273  0.3223 -0.0529
  570loPI   C6A 9116  11.713  -0.160   6.689  0.0477 -0.0066 -0.2994
  570loPI   C1B 9117  11.471  -0.099   8.334  0.1757 -0.2482  0.1232
  570loPI   C2B 9118  11.446   0.133   8.043 -0.0045  0.0075  0.2637
  570loPI   C3B 9119  11.320   0.121   7.609  0.1071  0.1945  0.3214
  570loPI   C4B 9120  11.383  -0.089   7.183  0.0594 -0.1255  0.2356
  571loPI    C1 9121   2.650  15.195   9.493 -0.0037  0.1386  0.1703
  571loPI    C2 9122   2.332  14.985   9.370  0.1362  0.0546 -0.0538
  571loPI    C3 9123   2.474  14.934   9.741  0.1687 -0.2482 -0.1059
  571loPI   PO4 9124   2.823  15.206   9.221 -0.2152  0.2687 -0.0587
  571loPI   GL1 9125   2.876  15.209   8.757 -0.0865 -0.3006  0.0715
  571loPI   GL2 9126   2.585  15.154   8.524 -0.0185  0.0191  0.2296
  571loPI   C1A 9127   2.974  14.929   8.378  0.0812  0.1842  0.0487
  571loPI   C2A 9128   3.026  15.154   7.922 -0.4562 -0.0267  0.0096
  571loPI   C3A 9129   3.310  15.051   7.729 -0.2166 -0.0009 -0.1493
  571loPI   C4A 9130   3.393  15.219   7.371  0.2466 -0.1235 -0.2260
  571loPI   C5A 9131   3.228  15.478   6.980  0.3022  0.3300  0.1668
  571loPI   C6A 9132   2.992  15.440   6.580 -0.2025  0.0847  0.0121
  571loPI   C1B 9133   2.654  15.497   8.300  0.0164  0.0538 -0.1534
  571loPI   C2B 9134   2.560  15.417   7.862  0.1433  0.1368  0.0971
  571loPI   C3B 9135   2.778  15.229   7.466 -0.3887 -0.2147  0.1578
  571loPI   C4B 9136   2.790  15.105   7.032 -0.0487 -0.1722  0.0869
  572loPI    C1 9137  15.056  12.537   9.580  0.0184 -0.1144  0.3771
  572loPI    C2 9138  14.756  12.707   9.783 -0.0610  0.1043  0.0834
  572loPI    C3 9139  15.123  12.866   9.796 -0.0602  0.1030  0.0775
  572loPI   PO4 9140  14.889  12.354   9.367  0.1193  0.0451 -0.5380
  572loPI   GL1 9141  15.043  12.199   9.134 -0.2510  0.0088  0.3964
  572loPI   GL2 9142  15.297  11.970   9.168  0.0973  0.0727 -0.3078
  572loPI   C1A 9143  15.041  12.200   8.692 -0.2752 -0.0869  0.0742
  572loPI   C2A 9144  15.366  12.311   8.379 -0.1880 -0.0464 -0.0011
  572loPI   C3A 9145  15.449  12.140   7.950  0.0649  0.2615 -0.1967
  572loPI   C4A 9146  15.446  12.089   7.534 -0.0439 -0.0747 -0.1343
  572loPI   C5A 9147  15.336  11.814   7.199 -0.0416  0.0937 -0.0595
  572loPI   C6A 9148  15.612  11.436   7.006 -0.2538 -0.0853 -0.1897
  572loPI   C1B 9149  15.392  11.810   8.692  0.0644  0.2252 -0.0923
  572loPI   C2B 9150  15.215  11.747   8.290  0.0008 -0.4539 -0.2319
  572loPI   C3B 9151  14.920  12.036   8.034  0.0886 -0.2118  0.1048
  572loPI   C4B 9152  14.811  12.142   7.636 -0.1271  0.1021  0.5866
  573loPI    C1 9153  11.464   3.074   9.577  0.1710  0.0276  0.0072
  573loPI    C2 9154  11.272   3.409   9.473  0.4031  0.1166 -0.1416
  573loPI    C3 9155  11.277   3.291   9.856 -0.3125 -0.1204 -0.1908
  573loPI   PO4 9156  11.692   3.110   9.424 -0.1524 -0.0886 -0.3378
  573loPI   GL1 9157  11.561   3.363   9.078 -0.0951 -0.0713 -0.1132
  573loPI   GL2 9158  11.925   3.226   9.023 -0.2270  0.0532  0.3807
  573loPI   C1A 9159  11.538   3.606   8.677 -0.1783  0.3186  0.0868
  573loPI   C2A 9160  11.289   3.882   8.310  0.0380  0.0334 -0.0437
  573loPI   C3A 9161  11.249   3.989   7.856  0.1211 -0.0746 -0.0541
  573loPI   C4A 9162  11.353   3.940   7.489 -0.2750  0.2128  0.1142
  573loPI   C5A 9163  11.559   3.801   7.126 -0.0518  0.1032  0.2305
  573loPI   C6A 9164  11.683   3.824   6.592  0.1102 -0.0685  0.0993
  573loPI   C1B 9165  11.798   3.026   8.714 -0.1122 -0.1410  0.0121
  573loPI   C2B 9166  11.674   3.049   8.322  0.2565 -0.1599  0.3018
  573loPI   C3B 9167  11.787   3.102   7.913  0.0459  0.0143 -0.0001
  573loPI   C4B 9168  11.830   2.891   7.565  0.1749  0.1252 -0.3045
  574loPI    C1 9169   6.597  13.762   9.847 -0.0915  0.0442  0.0896
  574loPI    C2 9170   6.770  13.896  10.182  0.0481 -0.0575  0.0589
  574loPI    C3 9171   6.427  14.058  10.055 -0.0256 -0.0443  0.2715
  574loPI   PO4 9172   6.768  13.826   9.623 -0.0725  0.3438 -0.0752
  574loPI   GL1 9173   6.565  13.791   9.195  0.2343 -0.4111 -0.2109
  574loPI   GL2 9174   6.928  13.747   9.071  0.0290  0.2383 -0.2220
  574loPI   C1A 9175   6.508  13.389   8.899  0.0557 -0.0345  0.2682
  574loPI   C2A 9176   6.533  13.288   8.527 -0.0685 -0.1819 -0.1451
  574loPI   C3A 9177   6.486  13.413   8.004  0.1588 -0.2891 -0.3247
  574loPI   C4A 9178   6.539  13.403   7.620 -0.0115 -0.1408  0.3383
  574loPI   C5A 9179   6.281  13.400   7.132 -0.0674 -0.0859  0.1958
  574loPI   C6A 9180   5.791  13.278   7.091  0.0273  0.4332  0.1377
  574loPI   C1B 9181   6.650  13.842   8.688  0.1053  0.1091 -0.0990
  574loPI   C2B 9182   6.606  13.840   8.253 -0.2171 -0.3074 -0.0678
  574loPI   C3B 9183   6.669  13.848   7.800  0.3123  0.0245 -0.2072
  574loPI   C4B 9184   6.715  13.796   7.348 -0.2095 -0.1753 -0.1384
  575loPI    C1 9185  17.617   9.564   9.857  0.0560 -0.1190  0.1234
  575loPI    C2 9186  17.340   9.556  10.145  0.1012  0.1538  0.1774
  575loPI    C3 9187  17.692   9.734  10.212  0.2775 -0.1578  0.0966
  575loPI   PO4 9188  17.509   9.631   9.613 -0.1570  0.1799  0.0684
  575loPI   GL1 9189  17.306   9.502   9.168  0.1565 -0.5733  0.1048
  575loPI   GL2 9190  17.614   9.412   9.169  0.4197 -0.2705  0.2001
  575loPI   C1A 9191  17.140   9.514   8.727 -0.0450  0.1141  0.0351
  575loPI   C2A 9192  17.160   9.374   8.307  0.1247 -0.2390 -0.0561
  575loPI   C3A 9193  17.080   9.355   7.804  0.0642  0.0910 -0.0923
  575loPI   C4A 9194  17.093   9.263   7.451  0.2128 -0.1355  0.0238
  575loPI   C5A 9195  16.831   9.469   7.113 -0.0343 -0.0959  0.1204
  575loPI   C6A 9196  16.669   9.221   6.889 -0.1465  0.2606 -0.1188
  575loPI   C1B 9197  17.641   9.509   8.760  0.4610 -0.1194 -0.0005
  575loPI   C2B 9198  17.650   9.359   8.304  0.0890 -0.1184 -0.1338
  575loPI   C3B 9199  17.539   9.372   7.927  0.1012  0.4285 -0.0994
  575loPI   C4B 9200  17.518   9.493   7.542 -0.0676  0.0253 -0.2292
  576loPI    C1 9201   1.364  12.356   9.068 -0.1444 -0.1377 -0.0224
  576loPI    C2 9202   1.421  12.291   8.677  0.2211  0.0110  0.0018
  576loPI    C3 9203   1.672  12.132   8.945  0.1418  0.1475  0.1591
  576loPI   PO4 9204   1.197  12.317   9.119  0.2811  0.2340  0.3681
  576loPI   GL1 9205   0.882  12.298   8.854 -0.3115 -0.0603 -0.0394
  576loPI   GL2 9206   0.800  12.475   8.581  0.0082  0.1429 -0.0569
  576loPI   C1A 9207   0.935  12.023   8.528 -0.0185  0.2534 -0.2023
  576loPI   C2A 9208   0.901  11.923   8.049 -0.1813  0.0716  0.0370
  576loPI   C3A 9209   1.317  12.034   7.794  0.0357  0.1391 -0.0488
  576loPI   C4A 9210   1.379  12.131   7.337  0.0819 -0.0089  0.0347
  576loPI   C5A 9211   1.582  12.101   6.931  0.1658  0.4812  0.0337
  576loPI   C6A 9212   1.737  12.137   6.549 -0.1807 -0.3213  0.5283
  576loPI   C1B 9213   1.227  12.495   8.275 -0.2598  0.0915  0.1294
  576loPI   C2B 9214   1.436  12.586   7.888 -0.2168  0.0445 -0.0014
  576loPI   C3B 9215   1.626  12.708   7.511  0.2245  0.2649 -0.0473
  576loPI   C4B 9216   1.576  12.590   7.153  0.0335 -0.1873  0.0480
  577loPI    C1 9217   3.844   7.619   9.371 -0.0384 -0.0855 -0.1119
  577loPI    C2 9218   4.084   7.421   9.623 -0.0695  0.1448  0.1024
  577loPI    C3 9219   3.969   7.795   9.708 -0.1017  0.2169 -0.2434
  577loPI   PO4 9220   3.863   7.505   9.108 -0.0977 -0.3003  0.1247
  577loPI   GL1 9221   3.936   7.167   8.752  0.1320 -0.3898 -0.2050
  577loPI   GL2 9222   4.036   7.371   8.576  0.1797 -0.0292  0.2105
  577loPI   C1A 9223   4.191   6.930   8.355  0.0588  0.2086  0.0299
  577loPI   C2A 9224   4.285   6.823   7.939 -0.2420  0.0590  0.1726
  577loPI   C3A 9225   4.238   6.757   7.525 -0.0781 -0.1253 -0.5424
  577loPI   C4A 9226   4.042   6.779   7.193 -0.0376  0.1686  0.1565
  577loPI   C5A 9227   3.663   6.969   6.886 -0.2151 -0.0314 -0.1396
  577loPI   C6A 9228   3.516   6.835   6.448 -0.0393  0.1945 -0.0482
  577loPI   C1B 9229   3.928   7.690   8.201  0.3394 -0.0508 -0.1627
  577loPI   C2B 9230   3.787   7.750   7.697 -0.0578  0.0844 -0.0256
  577loPI   C3B 9231   3.717   7.638   7.273 -0.0145  0.0374  0.2412
  577loPI   C4B 9232   3.690   7.850   6.949 -0.0347 -0.1092 -0.4246
  578loPI    C1 9233  19.371  18.415   9.435  0.0733  0.1682 -0.1583
  578loPI    C2 9234  19.113  18.617   9.664 -0.1063 -0.1847 -0.0402
  578loPI    C3 9235  19.380  18.371   9.832  0.0307 -0.1396 -0.1884
  578loPI   PO4 9236  19.302  18.495   9.194 -0.0843 -0.0979 -0.3359
  578loPI   GL1 9237  19.419  18.395   8.798  0.4636 -0.0184 -0.0102
  578loPI   GL2 9238  19.731  18.223   8.729 -0.3719  0.1702 -0.2087
  578loPI   C1A 9239  19.402  18.358   8.321  0.1788  0.0314  0.0759
  578loPI   C2A 9240  19.675  18.546   7.881 -0.0080  0.2073  0.1745
  578loPI   C3A 9241  19.657  18.417   7.374  0.0644  0.0817  0.0726
  578loPI   C4A 9242  19.387  18.398   7.097  0.0892  0.2904  0.1131
  578loPI   C5A 9243  19.242  18.165   6.762 -0.1363  0.0033 -0.0174
  578loPI   C6A 9244  19.263  17.767   6.531 -0.1767 -0.2317 -0.2494
  578loPI   C1B 9245  19.882  18.031   8.330  0.2210  0.2116  0.2256
  578loPI   C2B 9246  20.060  18.099   7.928 -0.0069 -0.0927 -0.3451
  578loPI   C3B 9247  19.985  18.060   7.472  0.1790 -0.1365  0.1119
  578loPI   C4B 9248  20.023  17.925   7.090 -0.0384  0.0032  0.1476
  579loPI    C1 9249   3.821  18.622   9.086  0.0893  0.0595 -0.0125
  579loPI    C2 9250   3.986  18.778   8.757  0.2488 -0.1488 -0.0336
  579loPI    C3 9251   4.096  18.911   9.117 -0.0898  0.2375 -0.0656
  579loPI   PO4 9252   3.566  18.566   8.934  0.0843  0.0721 -0.3866
  579loPI   GL1 9253   3.502  18.644   8.496  0.1356  0.2373  0.1535
  579loPI   GL2 9254   3.573  18.983   8.561  0.2562  0.3297 -0.0491
  579loPI   C1A 9255   3.255  18.485   8.054  0.2345  0.0486  0.1648
  579loPI   C2A 9256   2.850  18.709   7.737  0.3288  0.1357  0.1988
  579loPI   C3A 9257   2.448  18.828   7.499  0.0810  0.1723 -0.0105
  579loPI   C4A 9258   1.984  18.770   7.515 -0.0677 -0.1360 -0.0820
  579loPI   C5A 9259   1.731  18.653   7.785  0.0811  0.1906 -0.2217
  579loPI   C6A 9260   1.422  18.415   7.876  0.1676 -0.1640  0.0566
  579loPI   C1B 9261   3.397  18.976   8.181  0.0556  0.2951 -0.0194
  579loPI   C2B 9262   3.282  18.954   7.821  0.0050  0.2492  0.2378
  579loPI   C3B 9263   3.099  18.991   7.401  0.1313  0.2002  0.2598
  579loPI   C4B 9264   3.106  18.663   7.116 -0.1412  0.0537  0.3412
  580loPI    C1 9265   5.437   3.894   9.669  0.1695  0.1537  0.3318
  580loPI    C2 9266   5.355   4.243   9.846 -0.1047  0.1065  0.3028
  580loPI    C3 9267   5.174   3.909   9.970  0.1269 -0.0205  0.3047
  580loPI   PO4 9268   5.652   4.011   9.478  0.0338 -0.0136 -0.1530
  580loPI   GL1 9269   5.683   4.277   9.035 -0.3099 -0.0195 -0.0854
  580loPI   GL2 9270   5.346   4.306   8.893  0.3674  0.0429 -0.0259
  580loPI   C1A 9271   6.048   4.230   8.595  0.0824  0.2963  0.2793
  580loPI   C2A 9272   6.136   4.208   8.073  0.0267  0.0531  0.3940
  580loPI   C3A 9273   6.174   4.243   7.586 -0.2045  0.0039  0.1110
  580loPI   C4A 9274   6.149   4.348   7.148  0.1149 -0.3011 -0.2051
  580loPI   C5A 9275   5.914   4.287   6.784 -0.0063  0.1179  0.2707
  580loPI   C6A 9276   5.626   4.516   6.636  0.0039  0.2017  0.0448
  580loPI   C1B 9277   5.494   4.175   8.589  0.0418 -0.1140 -0.0906
  580loPI   C2B 9278   5.701   3.973   8.188  0.0284 -0.1508  0.2410
  580loPI   C3B 9279   5.515   3.806   7.799 -0.0815  0.1759  0.1636
  580loPI   C4B 9280   5.666   3.605   7.425 -0.1400 -0.0868 -0.0982
  581loPI    C1 9281  12.379  19.585   9.313  0.1815  0.2043  0.1252
  581loPI    C2 9282  12.075  19.818   9.428 -0.1402 -0.1679  0.0535
  581loPI    C3 9283  12.253  19.577   9.692  0.1299  0.0827  0.1059
  581loPI   PO4 9284  12.293  19.545   9.055 -0.2657 -0.0491  0.3230
  581loPI   GL1 9285  12.549  19.512   8.755 -0.0407 -0.0532 -0.1897
  581loPI   GL2 9286  12.580  19.227   8.702 -0.1405  0.1630 -0.0662
  581loPI   C1A 9287  12.737  19.421   8.290 -0.2311  0.4343  0.2299
  581loPI   C2A 9288  12.761  19.117   7.881 -0.3706 -0.0235  0.0146
  581loPI   C3A 9289  12.947  19.128   7.438 -0.0928 -0.1383  0.1946
  581loPI   C4A 9290  13.207  18.986   7.072 -0.0376 -0.1390 -0.3245
  581loPI   C5A 9291  13.379  19.015   6.658 -0.0543  0.0479 -0.0428
  581loPI   C6A 9292  13.364  18.728   6.307  0.1603  0.1454  0.0943
  581loPI   C1B 9293  12.471  18.922   8.263 -0.1977 -0.3311  0.3080
  581loPI   C2B 9294  12.201  19.073   7.901  0.2996  0.1501 -0.0116
  581loPI   C3B 9295  12.109  19.387   7.688 -0.0759  0.1766 -0.0374
  581loPI   C4B 9296  12.380  19.583   7.290  0.0048 -0.0307 -0.0671
  582loPI    C1 9297  11.190   5.925   9.623 -0.1287 -0.1025  0.1564
  582loPI    C2 9298  10.839   6.110   9.667 -0.1279 -0.0669  0.0172
  582loPI    C3 9299  11.177   6.296   9.771 -0.1344 -0.0248 -0.0365
  582loPI   PO4 9300  11.209   5.759   9.395  0.5007  0.1998  0.0734
  582loPI   GL1 9301  11.146   5.776   8.955 -0.1122 -0.0827 -0.2515
  582loPI   GL2 9302  11.510   5.609   8.939 -0.1273 -0.1311  0.2821
  582loPI   C1A 9303  10.997   5.734   8.451 -0.1704 -0.0001 -0.1250
  582loPI   C2A 9304  10.945   5.688   8.099 -0.0679  0.2278  0.5532
  582loPI   C3A 9305  10.990   5.708   7.710  0.0467 -0.4061 -0.1452
  582loPI   C4A 9306  10.914   5.773   7.399  0.3443 -0.1453  0.3390
  582loPI   C5A 9307  10.781   5.992   7.097  0.0075  0.1642 -0.0506
  582loPI   C6A 9308  10.374   6.106   6.812  0.3889  0.2661  0.0866
  582loPI   C1B 9309  11.532   5.709   8.540  0.1261 -0.5128  0.0344
  582loPI   C2B 9310  11.782   5.621   8.159  0.1551 -0.0628 -0.0330
  582loPI   C3B 9311  11.983   5.796   7.750  0.2015  0.0129  0.3067
  582loPI   C4B 9312  12.219   5.749   7.495  0.1283  0.1786 -0.1103
  583loPI    C1 9313   2.017   2.262   9.622  0.0810  0.1752  0.4365
  583loPI    C2 9314   2.304   2.291   9.899  0.2292  0.0704  0.2955
  583loPI    C3 9315   1.990   2.051   9.960  0.3788 -0.1343  0.2734
  583loPI   PO4 9316   2.167   2.154   9.358 -0.0329  0.0936  0.1017
  583loPI   GL1 9317   2.229   2.032   8.880  0.1112 -0.2966 -0.0145
  583loPI   GL2 9318   1.901   2.352   8.883 -0.0902  0.1131 -0.1353
  583loPI   C1A 9319   2.337   2.159   8.474 -0.4100  0.0417 -0.0438
  583loPI   C2A 9320   2.339   2.110   7.963  0.0387 -0.4895 -0.1044
  583loPI   C3A 9321   2.282   2.060   7.548 -0.1892 -0.0500 -0.0575
  583loPI   C4A 9322   1.987   1.950   7.381  0.0326  0.1013  0.1392
  583loPI   C5A 9323   1.787   1.743   7.087 -0.0426 -0.1624 -0.0107
  583loPI   C6A 9324   1.491   1.760   6.771 -0.1185  0.1249  0.0800
  583loPI   C1B 9325   1.996   2.462   8.502 -0.0821  0.2948  0.1056
  583loPI   C2B 9326   1.898   2.393   8.075 -0.0794 -0.2973  0.0402
  583loPI   C3B 9327   1.733   2.222   7.674  0.0048  0.2520 -0.1444
  583loPI   C4B 9328   1.594   2.413   7.324  0.1168  0.2794 -0.2934
  584loPI    C1 9329  14.188   2.067   9.909  0.3535 -0.3130 -0.0787
  584loPI    C2 9330  13.845   1.869   9.961  0.2839 -0.1933 -0.0775
  584loPI    C3 9331  14.086   1.937  10.273  0.0665  0.1604  0.0190
  584loPI   PO4 9332  14.226   2.070   9.641 -0.2115 -0.1339 -0.0468
  584loPI   GL1 9333  14.313   2.013   9.210 -0.1015  0.1590 -0.2303
  584loPI   GL2 9334  14.482   2.335   9.255  0.2423  0.2255 -0.1759
  584loPI   C1A 9335  14.047   2.225   8.953 -0.3028  0.0764 -0.1395
  584loPI   C2A 9336  13.596   2.223   8.818 -0.5136  0.1926 -0.0423
  584loPI   C3A 9337  13.235   2.319   8.512 -0.1439  0.1787 -0.3115
  584loPI   C4A 9338  13.022   2.093   8.081  0.1114  0.0817 -0.0307
  584loPI   C5A 9339  12.837   1.616   8.075  0.0265 -0.2474 -0.4368
  584loPI   C6A 9340  12.746   1.246   8.287 -0.1893 -0.1282 -0.3236
  584loPI   C1B 9341  14.495   2.309   8.830 -0.1492  0.3010  0.0781
  584loPI   C2B 9342  14.421   2.280   8.419 -0.2602  0.2393 -0.3062
  584loPI   C3B 9343  14.425   2.243   8.061 -0.1923  0.3425  0.3250
  584loPI   C4B 9344  14.680   2.269   7.601 -0.3133  0.2967  0.0670
  585loPI    C1 9345   2.976   5.162   9.091  0.1605 -0.0674  0.1311
  585loPI    C2 9346   2.633   5.020   8.943  0.2120  0.0256 -0.0817
  585loPI    C3 9347   2.762   4.897   9.301 -0.1514  0.1525  0.0982
  585loPI   PO4 9348   3.107   5.191   8.923 -0.3532  0.1108  0.1207
  585loPI   GL1 9349   3.381   5.087   8.545  0.0637 -0.0673 -0.1371
  585loPI   GL2 9350   3.372   4.825   8.272 -0.0817 -0.2705 -0.0903
  585loPI   C1A 9351   2.995   5.130   8.217 -0.0961 -0.0884 -0.2832
  585loPI   C2A 9352   2.893   5.001   7.873 -0.0363  0.0465 -0.1731
  585loPI   C3A 9353   2.607   4.800   7.569  0.1494  0.1104 -0.1702
  585loPI   C4A 9354   2.466   4.587   7.207  0.2497 -0.0738 -0.0491
  585loPI   C5A 9355   2.487   4.324   6.929 -0.0159 -0.1161 -0.1236
  585loPI   C6A 9356   2.517   3.813   6.840 -0.1027 -0.0588 -0.1483
  585loPI   C1B 9357   3.382   4.886   7.737 -0.1448  0.2258 -0.0830
  585loPI   C2B 9358   3.354   5.104   7.372 -0.1284  0.0816  0.2751
  585loPI   C3B 9359   3.454   5.044   7.000  0.0219  0.2913  0.2519
  585loPI   C4B 9360   3.210   5.020   6.644 -0.1514  0.0007 -0.2293
  586loPI    C1 9361  10.182  16.547   9.557  0.0606  0.0653  0.1963
  586loPI    C2 9362  10.498  16.421   9.767  0.0301 -0.0008  0.2030
  586loPI    C3 9363  10.273  16.723   9.904  0.1463  0.1104  0.1513
  586loPI   PO4 9364  10.374  16.612   9.260  0.0794 -0.1104 -0.0950
  586loPI   GL1 9365  10.631  16.480   8.997  0.2290  0.1215 -0.2531
  586loPI   GL2 9366  10.552  16.221   8.760  0.2620  0.4181 -0.1073
  586loPI   C1A 9367  10.533  16.793   8.625 -0.0115  0.2084 -0.0948
  586loPI   C2A 9368  10.404  16.903   8.175  0.0875  0.2024 -0.1699
  586loPI   C3A 9369  10.331  16.927   7.728 -0.1169 -0.2820 -0.0702
  586loPI   C4A 9370  10.267  17.080   7.286  0.1243  0.0234  0.0753
  586loPI   C5A 9371  10.453  17.292   6.937 -0.4181  0.0476 -0.2693
  586loPI   C6A 9372  10.429  17.665   6.628  0.0339  0.1788 -0.3612
  586loPI   C1B 9373  10.679  16.029   8.304  0.1172  0.0295 -0.0068
  586loPI   C2B 9374  10.769  16.126   7.840  0.0699  0.0839 -0.1823
  586loPI   C3B 9375  10.774  16.256   7.478 -0.1119 -0.5813  0.0831
  586loPI   C4B 9376  10.938  16.168   7.093 -0.1511  0.0875  0.1069
  587loPI    C1 9377   4.319  13.272   9.216 -0.1726  0.1111 -0.2353
  587loPI    C2 9378   4.119  13.583   9.369 -0.2495 -0.0445 -0.0149
  587loPI    C3 9379   4.053  13.214   9.509  0.0156 -0.1299 -0.1085
  587loPI   PO4 9380   4.543  13.397   9.183  0.0558 -0.1491 -0.1546
  587loPI   GL1 9381   4.676  13.532   8.887 -0.0583  0.1966 -0.3143
  587loPI   GL2 9382   4.697  13.831   8.857 -0.4596 -0.0181  0.1077
  587loPI   C1A 9383   4.901  13.385   8.437  0.0904  0.2966 -0.3493
  587loPI   C2A 9384   4.868  13.029   8.052  0.1156 -0.1007 -0.3773
  587loPI   C3A 9385   4.898  12.875   7.598 -0.1222  0.1775  0.0320
  587loPI   C4A 9386   4.920  12.633   7.224 -0.3384 -0.0973 -0.0458
  587loPI   C5A 9387   4.839  12.176   7.012 -0.1232  0.2200 -0.1116
  587loPI   C6A 9388   4.981  11.793   7.146 -0.1619 -0.1014 -0.3902
  587loPI   C1B 9389   4.695  13.858   8.455  0.0940 -0.0391 -0.0355
  587loPI   C2B 9390   4.570  13.887   8.041  0.0558  0.2765 -0.2717
  587loPI   C3B 9391   4.629  13.806   7.692  0.1491 -0.0676 -0.0319
  587loPI   C4B 9392   4.802  13.669   7.334  0.1273  0.3344  0.1727
  588loPI    C1 9393   9.923  13.026   9.615 -0.0622 -0.1210  0.2267
  588loPI    C2 9394  10.180  13.285   9.779 -0.0094  0.0134 -0.0611
  588loPI    C3 9395   9.949  13.057  10.013  0.3372 -0.0777  0.2015
  588loPI   PO4 9396   9.882  13.111   9.416 -0.0907  0.0299 -0.0223
  588loPI   GL1 9397   9.793  12.991   8.988 -0.0978 -0.0107 -0.3362
  588loPI   GL2 9398   9.563  12.953   8.860  0.0981 -0.1026 -0.3025
  588loPI   C1A 9399   9.992  13.053   8.685  0.2178 -0.3008  0.0708
  588loPI   C2A 9400   9.907  13.178   8.328 -0.0300  0.0301 -0.2041
  588loPI   C3A 9401   9.760  13.173   7.838 -0.1655 -0.0420  0.2471
  588loPI   C4A 9402   9.803  13.446   7.467  0.3872  0.0931 -0.3020
  588loPI   C5A 9403   9.612  13.539   7.094  0.0303  0.0358  0.4804
  588loPI   C6A 9404   9.760  13.471   6.785 -0.2008  0.0557  0.1490
  588loPI   C1B 9405   9.534  12.787   8.564  0.1485  0.1741  0.0912
  588loPI   C2B 9406   9.490  12.736   8.196  0.2165 -0.2512  0.0584
  588loPI   C3B 9407   9.721  12.671   7.818  0.1364  0.0612 -0.0221
  588loPI   C4B 9408   9.762  12.700   7.367  0.2609 -0.2305 -0.0000
  589loPI    C1 9409  13.898   9.592   9.308  0.1180 -0.2104 -0.3483
  589loPI    C2 9410  13.789   9.637   8.926 -0.0999  0.2009 -0.2435
  589loPI    C3 9411  13.518   9.529   9.200  0.0537 -0.0839 -0.2000
  589loPI   PO4 9412  14.161   9.706   9.265  0.2257 -0.0473  0.1516
  589loPI   GL1 9413  14.406   9.390   9.199  0.1625  0.0671 -0.0861
  589loPI   GL2 9414  14.211   9.170   9.343  0.1096  0.0634  0.1301
  589loPI   C1A 9415  14.533   9.437   8.714  0.0254  0.1418  0.3675
  589loPI   C2A 9416  14.530   9.481   8.256 -0.2852 -0.0006 -0.3341
  589loPI   C3A 9417  14.525   9.485   7.891 -0.3284  0.2057 -0.0323
  589loPI   C4A 9418  14.323   9.622   7.592  0.1300  0.1719 -0.0152
  589loPI   C5A 9419  14.277   9.336   7.240 -0.4103  0.1073 -0.2183
  589loPI   C6A 9420  14.529   9.019   7.193 -0.2337  0.2280  0.0337
  589loPI   C1B 9421  14.264   9.033   8.847 -0.1723  0.0718  0.1369
  589loPI   C2B 9422  14.224   9.077   8.324 -0.1316 -0.0208  0.4497
  589loPI   C3B 9423  14.200   9.154   7.848 -0.3348  0.2368  0.1505
  589loPI   C4B 9424  13.936   9.292   7.585  0.2291 -0.3834 -0.3349
  590loPI    C1 9425   2.221   1.656   9.191 -0.1352 -0.1561 -0.0042
  590loPI    C2 9426   2.197   1.380   9.480  0.1820  0.0125  0.1894
  590loPI    C3 9427   2.553   1.474   9.322  0.0286  0.0276 -0.1572
  590loPI   PO4 9428   2.147   1.577   9.003  0.3240 -0.2082  0.3224
  590loPI   GL1 9429   2.072   1.517   8.640 -0.0226 -0.2152  0.1215
  590loPI   GL2 9430   1.995   1.205   8.642  0.1392  0.1090 -0.0905
  590loPI   C1A 9431   2.206   1.636   8.206  0.0273  0.2263 -0.2159
  590loPI   C2A 9432   2.267   1.610   7.828 -0.1377 -0.1824  0.3171
  590loPI   C3A 9433   2.304   1.574   7.443  0.4541 -0.1878 -0.1879
  590loPI   C4A 9434   2.367   1.791   7.094  0.0964 -0.1443 -0.0425
  590loPI   C5A 9435   2.234   1.779   6.702 -0.1842 -0.0251 -0.0965
  590loPI   C6A 9436   2.476   1.725   6.258  0.3734  0.0402 -0.1991
  590loPI   C1B 9437   2.081   1.093   8.251  0.1173  0.1337  0.0605
  590loPI   C2B 9438   2.113   1.183   7.749 -0.1194 -0.1245  0.2769
  590loPI   C3B 9439   2.004   1.250   7.250 -0.1930  0.0241 -0.0455
  590loPI   C4B 9440   1.973   1.356   6.824 -0.2402 -0.1436  0.0276
  591loPI    C1 9441   1.707  12.899   9.058 -0.5416 -0.0971  0.0720
  591loPI    C2 9442   1.498  12.735   9.357 -0.1156 -0.1230  0.3651
  591loPI    C3 9443   1.819  12.959   9.437 -0.0221 -0.0901 -0.0752
  591loPI   PO4 9444   1.754  12.678   8.855 -0.1329 -0.0109  0.0117
  591loPI   GL1 9445   2.072  12.285   8.655  0.3324  0.0013  0.1868
  591loPI   GL2 9446   2.370  12.109   8.523 -0.1351 -0.1175 -0.2532
  591loPI   C1A 9447   1.714  12.386   8.293 -0.3946  0.2859  0.0474
  591loPI   C2A 9448   1.792  12.197   7.833 -0.2014 -0.0032 -0.0050
  591loPI   C3A 9449   1.908  12.328   7.427  0.1809 -0.2141  0.1428
  591loPI   C4A 9450   2.054  12.343   6.978  0.0359 -0.0054 -0.3751
  591loPI   C5A 9451   2.236  12.259   6.593 -0.1539 -0.2113  0.2118
  591loPI   C6A 9452   2.636  12.132   6.514 -0.2715 -0.0592  0.1824
  591loPI   C1B 9453   2.647  12.297   8.369 -0.2915  0.0603 -0.0887
  591loPI   C2B 9454   2.575  12.249   7.929  0.1966 -0.0430  0.1758
  591loPI   C3B 9455   2.469  12.383   7.497 -0.1145  0.0260 -0.2252
  591loPI   C4B 9456   2.616  12.756   7.266 -0.1338  0.1556  0.0680
  592loPI    C1 9457   0.405  19.120   9.590  0.2862 -0.0646  0.0401
  592loPI    C2 9458   0.618  18.957   9.887  0.1918 -0.0183  0.1340
  592loPI    C3 9459   0.309  19.196   9.971  0.0180 -0.1930  0.0004
  592loPI   PO4 9460   0.493  19.163   9.396  0.3436 -0.0624  0.0237
  592loPI   GL1 9461   0.508  19.207   8.953  0.2215 -0.0347 -0.2128
  592loPI   GL2 9462   0.214  19.357   8.891  0.1156 -0.0139 -0.0090
  592loPI   C1A 9463   0.684  19.149   8.593  0.2603  0.0762 -0.0990
  592loPI   C2A 9464   0.951  19.058   8.253  0.1607 -0.2018 -0.1071
  592loPI   C3A 9465   1.181  19.407   8.049  0.0552  0.2648  0.0917
  592loPI   C4A 9466   1.115  19.540   7.680 -0.3972 -0.1837 -0.1797
  592loPI   C5A 9467   0.789  19.420   7.440  0.1013 -0.0768 -0.2365
  592loPI   C6A 9468   0.824  19.139   7.015 -0.3964  0.0661 -0.0255
  592loPI   C1B 9469   0.249  19.444   8.453  0.0806 -0.2596 -0.1370
  592loPI   C2B 9470   0.417  19.290   8.215  0.0175 -0.2491  0.1531
  592loPI   C3B 9471   0.610  19.168   7.862  0.1556  0.0674  0.3253
  592loPI   C4B 9472   0.610  18.896   7.436 -0.3429 -0.1321 -0.1761
  593loPI    C1 9473  14.015   6.355   9.567 -0.3003 -0.0544  0.0951
  593loPI    C2 9474  13.930   6.091   9.855  0.1859  0.2211  0.5065
  593loPI    C3 9475  13.718   6.429   9.824 -0.1222  0.0130  0.2838
  593loPI   PO4 9476  14.058   6.286   9.348 -0.2316 -0.1203 -0.4250
  593loPI   GL1 9477  14.059   6.022   8.985  0.0306 -0.0695  0.1493
  593loPI   GL2 9478  14.466   6.127   8.963  0.0985 -0.0410  0.3383
  593loPI   C1A 9479  14.060   6.284   8.608 -0.3293 -0.2966  0.3568
  593loPI   C2A 9480  13.987   6.501   8.187 -0.1233  0.1993  0.0200
  593loPI   C3A 9481  14.193   6.652   7.922 -0.0447 -0.0357  0.1219
  593loPI   C4A 9482  14.361   6.742   7.469 -0.1859  0.3174  0.1618
  593loPI   C5A 9483  14.458   6.822   7.098  0.3021 -0.2023 -0.1730
  593loPI   C6A 9484  14.687   6.983   6.740 -0.2171  0.1907  0.1667
  593loPI   C1B 9485  14.389   5.930   8.525 -0.1464  0.1815  0.2825
  593loPI   C2B 9486  14.145   5.914   8.293 -0.2683 -0.0730 -0.0697
  593loPI   C3B 9487  13.793   5.890   8.407  0.1178 -0.3196 -0.1449
  593loPI   C4B 9488  13.479   5.559   8.451 -0.2146 -0.3210  0.0784
  594loPI    C1 9489  11.600  12.047   9.267 -0.3607 -0.0061 -0.1336
  594loPI    C2 9490  11.549  12.331   9.544 -0.2057 -0.0995 -0.0076
  594loPI    C3 9491  11.515  11.945   9.644  0.3031 -0.1524 -0.0106
  594loPI   PO4 9492  11.804  12.128   9.153 -0.0257 -0.0377 -0.1598
  594loPI   GL1 9493  12.004  11.990   8.724  0.3854 -0.0327 -0.5931
  594loPI   GL2 9494  12.221  12.194   8.609  0.3100 -0.1600 -0.4140
  594loPI   C1A 9495  11.767  12.122   8.353  0.0787  0.1599  0.0257
  594loPI   C2A 9496  11.914  12.054   8.012  0.3214  0.1518  0.3461
  594loPI   C3A 9497  11.973  12.214   7.620 -0.1112 -0.2337  0.0615
  594loPI   C4A 9498  12.103  12.504   7.193  0.2422  0.2933 -0.1367
  594loPI   C5A 9499  12.363  12.694   7.045  0.3469 -0.0224 -0.1732
  594loPI   C6A 9500  12.578  13.112   6.975  0.2338 -0.1346  0.3609
  594loPI   C1B 9501  12.481  12.062   8.298  0.0804 -0.0289 -0.1277
  594loPI   C2B 9502  12.489  12.275   7.855 -0.0521 -0.2175 -0.1588
  594loPI   C3B 9503  12.513  12.539   7.479 -0.1268  0.1782 -0.0163
  594loPI   C4B 9504  12.490  12.984   7.479 -0.0981 -0.0299 -0.1083
  595loPI    C1 9505  10.432  16.097   9.243  0.0701 -0.1737  0.0258
  595loPI    C2 9506  10.217  15.984   9.561 -0.0728  0.1221  0.0379
  595loPI    C3 9507  10.616  15.947   9.565 -0.0799  0.0548  0.2210
  595loPI   PO4 9508  10.350  15.971   9.081  0.1887 -0.3041 -0.3642
  595loPI   GL1 9509  10.058  15.916   8.799 -0.0325  0.0171  0.0636
  595loPI   GL2 9510  10.131  15.587   8.869  0.1222 -0.1910 -0.1174
  595loPI   C1A 9511  10.233  15.760   8.418 -0.4839 -0.1286 -0.0943
  595loPI   C2A 9512  10.209  15.874   8.138 -0.0040 -0.1255 -0.0502
  595loPI   C3A 9513  10.284  15.963   7.819 -0.1027  0.4243 -0.1061
  595loPI   C4A 9514  10.282  15.862   7.479 -0.0708  0.3111  0.1435
  595loPI   C5A 9515  10.425  16.005   7.008  0.0421  0.0104 -0.1315
  595loPI   C6A 9516  10.671  15.949   6.629 -0.3437  0.0633 -0.1006
  595loPI   C1B 9517   9.795  15.545   8.529  0.1677 -0.0703 -0.2164
  595loPI   C2B 9518   9.734  15.570   8.157 -0.2418 -0.4011  0.5197
  595loPI   C3B 9519   9.657  15.549   7.712 -0.0065 -0.2496  0.1021
  595loPI   C4B 9520   9.886  15.544   7.258 -0.1161  0.0191 -0.0389
  596loPI    C1 9521   8.943   6.049   9.511  0.0100 -0.1908  0.2835
  596loPI    C2 9522   9.266   6.122   9.736 -0.0492  0.2250  0.2420
  596loPI    C3 9523   9.089   5.763   9.749  0.6439 -0.1446 -0.0296
  596loPI   PO4 9524   8.928   6.102   9.233  0.0495  0.0664 -0.0226
  596loPI   GL1 9525   8.996   5.804   8.888 -0.1740 -0.0521  0.0990
  596loPI   GL2 9526   9.185   5.976   8.727  0.3852  0.3804  0.0511
  596loPI   C1A 9527   8.899   5.639   8.484 -0.2791  0.1901 -0.2614
  596loPI   C2A 9528   9.086   5.434   8.102  0.1712  0.1976 -0.4618
  596loPI   C3A 9529   8.828   5.142   7.963  0.1709 -0.3388 -0.2264
  596loPI   C4A 9530   8.888   4.963   7.512  0.0185  0.0043  0.0912
  596loPI   C5A 9531   9.183   4.803   7.287 -0.2900 -0.3250  0.1542
  596loPI   C6A 9532   9.630   4.976   7.213 -0.1146 -0.0061  0.1838
  596loPI   C1B 9533   9.532   5.766   8.402 -0.1677  0.1303  0.0781
  596loPI   C2B 9534   9.588   5.458   8.035  0.4959 -0.0559  0.0272
  596loPI   C3B 9535   9.400   5.142   7.684  0.0448  0.2147  0.0229
  596loPI   C4B 9536   9.630   4.759   7.710 -0.2371 -0.3474 -0.0385
  597loPI    C1 9537   9.672  11.747   9.491 -0.2262 -0.0397  0.1097
  597loPI    C2 9538   9.975  11.692   9.746 -0.1204  0.1495  0.0275
  597loPI    C3 9539   9.789  12.045   9.731 -0.1112  0.1468 -0.1726
  597loPI   PO4 9540   9.741  11.591   9.228 -0.0754  0.0704 -0.0622
  597loPI   GL1 9541   9.612  11.802   8.815  0.0137  0.2251 -0.3097
  597loPI   GL2 9542   9.565  12.164   8.852  0.1276 -0.0355  0.3825
  597loPI   C1A 9543   9.775  11.902   8.407  0.1306  0.1232  0.2543
  597loPI   C2A 9544   9.851  11.758   7.995  0.0251  0.3195  0.1417
  597loPI   C3A 9545   9.817  11.764   7.570 -0.1219  0.0545 -0.2425
  597loPI   C4A 9546   9.912  11.624   7.149 -0.3090  0.3180 -0.0287
  597loPI   C5A 9547   9.660  11.430   6.812  0.2612  0.0456 -0.4116
  597loPI   C6A 9548   9.366  11.208   6.399  0.1775 -0.2293  0.0618
  597loPI   C1B 9549   9.431  12.211   8.373  0.1312 -0.3630  0.0574
  597loPI   C2B 9550   9.441  12.298   7.920 -0.2782  0.1804 -0.0632
  597loPI   C3B 9551   9.577  12.208   7.547  0.0591 -0.0894 -0.0158
  597loPI   C4B 9552   9.475  11.966   7.301 -0.1613 -0.1148  0.0602
  598loPI    C1 9553   7.568  16.000   9.395 -0.1538  0.2762 -0.1968
  598loPI    C2 9554   7.520  16.164   9.756  0.0573  0.1128 -0.0919
  598loPI    C3 9555   7.273  15.874   9.634  0.0255  0.1235 -0.0533
  598loPI   PO4 9556   7.634  16.226   9.212  0.1047 -0.0110 -0.3401
  598loPI   GL1 9557   7.781  16.319   8.729  0.0516  0.0017  0.1399
  598loPI   GL2 9558   7.727  16.599   8.454 -0.0392  0.2790 -0.1603
  598loPI   C1A 9559   7.797  16.147   8.331 -0.2496 -0.0840 -0.0349
  598loPI   C2A 9560   8.070  15.997   8.145 -0.0766  0.3785 -0.2570
  598loPI   C3A 9561   8.143  15.686   8.025  0.1971 -0.0087 -0.4486
  598loPI   C4A 9562   8.354  15.380   7.800 -0.2584  0.0101 -0.1311
  598loPI   C5A 9563   8.491  15.105   7.331  0.0865  0.1571  0.1524
  598loPI   C6A 9564   8.270  15.189   6.976  0.0189 -0.1981  0.0913
  598loPI   C1B 9565   7.994  16.504   8.050 -0.2375  0.1087 -0.1839
  598loPI   C2B 9566   7.940  16.780   7.666  0.2993  0.1778  0.4929
  598loPI   C3B 9567   8.155  16.931   7.322  0.1500 -0.2607  0.2045
  598loPI   C4B 9568   8.116  17.015   6.947 -0.0006  0.0690 -0.0633
  599loPI    C1 9569   0.470  11.610   9.319 -0.0055  0.2329  0.4683
  599loPI    C2 9570   0.800  11.455   9.484 -0.1074 -0.4444  0.0735
  599loPI    C3 9571   0.439  11.359   9.628 -0.1586 -0.2126  0.1034
  599loPI   PO4 9572   0.484  11.596   9.065  0.0386  0.3650 -0.0428
  599loPI   GL1 9573   0.641  11.518   8.632 -0.1820 -0.0621  0.1171
  599loPI   GL2 9574   0.269  11.347   8.716  0.0728 -0.1876 -0.1365
  599loPI   C1A 9575   0.529  11.587   8.140 -0.0372  0.2860 -0.0751
  599loPI   C2A 9576   0.590  11.620   7.676  0.3112 -0.2383  0.1555
  599loPI   C3A 9577   0.538  11.675   7.264 -0.2364 -0.1209 -0.3309
  599loPI   C4A 9578   0.282  11.508   6.932  0.1566  0.0917  0.1187
  599loPI   C5A 9579  -0.055  11.490   6.647 -0.0942  0.1629 -0.0506
  599loPI   C6A 9580  -0.158  11.330   6.231  0.0190  0.3330 -0.0226
  599loPI   C1B 9581   0.084  11.136   8.381  0.3266 -0.3179 -0.2084
  599loPI   C2B 9582   0.016  11.201   7.928 -0.1886 -0.2058 -0.1296
  599loPI   C3B 9583   0.114  11.420   7.503 -0.0818 -0.0315  0.0630
  599loPI   C4B 9584  -0.206  11.528   7.157  0.1658 -0.0995 -0.0109
  600loPI    C1 9585   1.428   6.610   9.439  0.0347  0.0159 -0.0875
  600loPI    C2 9586   1.466   6.820   9.777  0.4624 -0.0603 -0.0833
  600loPI    C3 9587   1.335   6.443   9.790  0.2061  0.0280 -0.0357
  600loPI   PO4 9588   1.277   6.770   9.166  0.0850  0.0206 -0.3903
  600loPI   GL1 9589   1.225   6.953   8.724 -0.2731 -0.5005 -0.3496
  600loPI   GL2 9590   1.228   6.651   8.638  0.1506 -0.0853  0.0513
  600loPI   C1A 9591   1.004   7.214   8.454 -0.1137  0.2387  0.1028
  600loPI   C2A 9592   0.897   7.300   7.986  0.4796 -0.1254  0.0160
  600loPI   C3A 9593   0.867   7.124   7.647  0.1880  0.0270 -0.1522
  600loPI   C4A 9594   0.615   7.194   7.217  0.0716 -0.2136 -0.0744
  600loPI   C5A 9595   0.591   7.651   7.065  0.0505 -0.1376  0.0628
  600loPI   C6A 9596   0.980   7.869   7.118  0.3639 -0.1398  0.2397
  600loPI   C1B 9597   1.255   6.536   8.222 -0.0159 -0.1679 -0.1691
  600loPI   C2B 9598   1.349   6.401   7.870 -0.0900 -0.3566 -0.0219
  600loPI   C3B 9599   1.568   6.536   7.512  0.0125 -0.1154 -0.4313
  600loPI   C4B 9600   1.693   6.401   7.090  0.1308  0.3054  0.1927
  601loPI    C1 9601  16.114   7.753  10.094  0.0236  0.0627 -0.0993
  601loPI    C2 9602  16.494   7.675  10.189  0.0065 -0.0780 -0.1453
  601loPI    C3 9603  16.200   7.562  10.435 -0.0057  0.0317 -0.1093
  601loPI   PO4 9604  16.176   7.999   9.925 -0.0408  0.0494  0.1560
  601loPI   GL1 9605  16.299   8.098   9.562 -0.2822  0.3893  0.2259
  601loPI   GL2 9606  16.300   8.353   9.374 -0.0328  0.1242 -0.1260
  601loPI   C1A 9607  16.253   7.867   9.174 -0.1448 -0.0212  0.1361
  601loPI   C2A 9608  16.185   7.769   8.676 -0.2514  0.2261  0.2189
  601loPI   C3A 9609  16.115   7.769   8.212 -0.4902 -0.0390  0.2941
  601loPI   C4A 9610  16.276   8.035   7.962 -0.2448  0.0685 -0.0498
  601loPI   C5A 9611  16.279   8.189   7.585 -0.0593 -0.3821 -0.0248
  601loPI   C6A 9612  16.192   8.124   7.113 -0.0157  0.0296  0.0400
  601loPI   C1B 9613  16.513   8.315   9.061 -0.2082 -0.0011 -0.4707
  601loPI   C2B 9614  16.602   8.004   8.789 -0.1300  0.0626 -0.0241
  601loPI   C3B 9615  16.718   7.601   8.606  0.2039  0.1741  0.1871
  601loPI   C4B 9616  16.716   7.725   8.185 -0.0278  0.1275 -0.0443
  602loPI    C1 9617  10.638   9.433   9.048 -0.1087 -0.2350 -0.1250
  602loPI    C2 9618  10.488   9.406   9.418 -0.4505 -0.1783 -0.2551
  602loPI    C3 9619  10.427   9.111   9.155 -0.0842 -0.2853 -0.2267
  602loPI   PO4 9620  10.922   9.446   9.067 -0.0667 -0.1156  0.2153
  602loPI   GL1 9621  11.111   9.587   8.698 -0.2044 -0.0253  0.0430
  602loPI   GL2 9622  10.753   9.719   8.628  0.0121  0.0130 -0.1945
  602loPI   C1A 9623  11.118   9.938   8.252 -0.2312  0.3893 -0.1773
  602loPI   C2A 9624  11.071   9.998   7.993  0.1447 -0.0793 -0.0214
  602loPI   C3A 9625  11.191   9.932   7.497 -0.0767  0.0894 -0.3984
  602loPI   C4A 9626  11.293   9.984   7.114 -0.2215  0.1673 -0.0158
  602loPI   C5A 9627  11.390   9.815   6.627 -0.0947  0.1016  0.1027
  602loPI   C6A 9628  11.722   9.668   6.320  0.0853 -0.2001  0.0044
  602loPI   C1B 9629  10.642  10.076   8.362  0.2931 -0.1864  0.0334
  602loPI   C2B 9630  10.633  10.186   7.915 -0.0125 -0.1568  0.1702
  602loPI   C3B 9631  10.518  10.184   7.460  0.1780 -0.0790 -0.1268
  602loPI   C4B 9632  10.789  10.043   7.159  0.2105  0.1427 -0.0047
  603loPI    C1 9633  15.601  12.834   9.651 -0.2329 -0.0187 -0.1220
  603loPI    C2 9634  15.512  12.460   9.763 -0.2011  0.0622  0.1841
  603loPI    C3 9635  15.808  12.658   9.944 -0.1345  0.1930 -0.0626
  603loPI   PO4 9636  15.422  12.841   9.366  0.1224 -0.4342 -0.1885
  603loPI   GL1 9637  15.147  12.654   9.018 -0.1872 -0.1583  0.1599
  603loPI   GL2 9638  15.383  12.585   8.785 -0.0454  0.3506 -0.1875
  603loPI   C1A 9639  14.914  12.624   8.565 -0.0934 -0.2396  0.0852
  603loPI   C2A 9640  14.958  12.517   8.120 -0.0007 -0.1442  0.0604
  603loPI   C3A 9641  15.173  12.493   7.683  0.2098 -0.0398  0.0151
  603loPI   C4A 9642  15.182  12.455   7.271 -0.0191  0.0272  0.2297
  603loPI   C5A 9643  14.966  12.444   6.925 -0.2263 -0.4097 -0.3579
  603loPI   C6A 9644  14.727  12.265   6.547  0.4338  0.0643 -0.2399
  603loPI   C1B 9645  15.495  12.846   8.400 -0.1405  0.1013  0.1511
  603loPI   C2B 9646  15.455  13.070   7.938  0.0467  0.0712 -0.3280
  603loPI   C3B 9647  15.376  12.937   7.508  0.0493  0.1501  0.1784
  603loPI   C4B 9648  15.665  12.688   7.200  0.0592 -0.1791 -0.0608
  604loPI    C1 9649  16.880  15.420   9.787 -0.0415  0.1483  0.0115
  604loPI    C2 9650  16.974  15.783   9.926  0.0586  0.0995  0.0722
  604loPI    C3 9651  16.610  15.632   9.992  0.1302  0.0441  0.3530
  604loPI   PO4 9652  16.999  15.427   9.578  0.3154  0.4680  0.3504
  604loPI   GL1 9653  17.246  15.448   9.220  0.2232 -0.1959  0.3129
  604loPI   GL2 9654  17.453  15.623   9.218 -0.2488  0.0092 -0.1462
  604loPI   C1A 9655  17.156  15.160   8.846 -0.0915 -0.2423  0.1192
  604loPI   C2A 9656  17.048  15.308   8.400 -0.3433  0.1444  0.1304
  604loPI   C3A 9657  17.058  15.229   7.958 -0.0359 -0.2266 -0.0365
  604loPI   C4A 9658  16.837  15.265   7.552  0.1278 -0.1673 -0.0029
  604loPI   C5A 9659  16.757  15.033   7.131 -0.3071  0.1082  0.3078
  604loPI   C6A 9660  16.422  14.978   6.782 -0.2440  0.3322 -0.0837
  604loPI   C1B 9661  17.458  15.643   8.780 -0.0113  0.3235 -0.3419
  604loPI   C2B 9662  17.396  15.651   8.465 -0.1327 -0.1071  0.0062
  604loPI   C3B 9663  17.272  15.674   8.168  0.4157 -0.0398  0.2387
  604loPI   C4B 9664  17.153  15.747   7.792  0.0160 -0.3713  0.0783
  605loPI    C1 9665   4.925   0.469   9.312 -0.1645 -0.0477 -0.2521
  605loPI    C2 9666   5.024   0.856   9.281  0.2466 -0.1239  0.0219
  605loPI    C3 9667   4.837   0.722   9.608 -0.1301 -0.1152 -0.1838
  605loPI   PO4 9668   5.158   0.366   9.078 -0.0694  0.1232  0.0185
  605loPI   GL1 9669   5.069   0.031   8.806 -0.0590  0.2151  0.0761
  605loPI   GL2 9670   4.886  -0.179   8.492  0.1413 -0.1367 -0.2055
  605loPI   C1A 9671   5.235   0.340   8.464 -0.1246  0.2891 -0.1218
  605loPI   C2A 9672   5.199   0.499   8.030  0.0913 -0.0110  0.0356
  605loPI   C3A 9673   5.196   0.273   7.651 -0.1903 -0.0558 -0.0383
  605loPI   C4A 9674   5.126   0.285   7.316  0.0638 -0.1613 -0.1699
  605loPI   C5A 9675   5.176   0.300   6.895 -0.1367  0.1265 -0.0208
  605loPI   C6A 9676   5.557   0.317   6.660 -0.3075 -0.1598 -0.1798
  605loPI   C1B 9677   4.984  -0.022   8.073  0.1898  0.0413 -0.0352
  605loPI   C2B 9678   4.776  -0.194   7.747  0.0610 -0.2761 -0.3264
  605loPI   C3B 9679   4.503  -0.287   7.308 -0.2838 -0.1317 -0.1723
  605loPI   C4B 9680   4.464  -0.420   6.797 -0.0683 -0.0735 -0.5121
  606loPI    C1 9681  15.151   7.879   9.863 -0.1573 -0.1432  0.0026
  606loPI    C2 9682  15.304   7.686  10.178  0.0458 -0.1127 -0.0758
  606loPI    C3 9683  15.134   8.044  10.227  0.0874 -0.1027 -0.0027
  606loPI   PO4 9684  15.222   7.860   9.617  0.5902  0.2116 -0.1052
  606loPI   GL1 9685  15.352   8.064   9.179  0.0547 -0.2438 -0.2548
  606loPI   GL2 9686  15.032   8.209   9.206 -0.1571  0.0253 -0.2734
  606loPI   C1A 9687  15.429   8.235   8.800 -0.4036  0.5265  0.2849
  606loPI   C2A 9688  15.485   8.379   8.331 -0.1146 -0.1282 -0.0140
  606loPI   C3A 9689  15.422   8.488   7.922  0.2383 -0.2856  0.2059
  606loPI   C4A 9690  15.380   8.446   7.527  0.1500  0.0641  0.1396
  606loPI   C5A 9691  15.338   8.510   7.072 -0.0449 -0.1748  0.0611
  606loPI   C6A 9692  15.070   8.489   6.820  0.1690  0.1880  0.2574
  606loPI   C1B 9693  14.919   8.338   8.858  0.0020  0.0425  0.2369
  606loPI   C2B 9694  14.976   8.469   8.523 -0.2000  0.1347 -0.0981
  606loPI   C3B 9695  14.913   8.550   7.982 -0.4655 -0.0555  0.1462
  606loPI   C4B 9696  14.914   8.689   7.522 -0.0343  0.3101 -0.0926
  607loPI    C1 9697   8.902  11.331   9.506 -0.4480 -0.0097  0.1174
  607loPI    C2 9698   9.209  11.588   9.513 -0.2647 -0.2036 -0.3744
  607loPI    C3 9699   9.106  11.390   9.845  0.0113  0.0140 -0.1545
  607loPI   PO4 9700   8.761  11.420   9.248  0.4295  0.1786  0.0169
  607loPI   GL1 9701   8.448  11.474   8.944  0.1450 -0.3372  0.0931
  607loPI   GL2 9702   8.713  11.625   8.814  0.1278 -0.3316 -0.0336
  607loPI   C1A 9703   8.212  11.267   8.652  0.0186 -0.1526 -0.2897
  607loPI   C2A 9704   8.006  11.479   8.332  0.2720 -0.4765  0.4603
  607loPI   C3A 9705   7.772  11.518   7.877 -0.0769 -0.1394 -0.1168
  607loPI   C4A 9706   7.795  11.567   7.426 -0.1394  0.2351 -0.1225
  607loPI   C5A 9707   7.732  11.485   7.019  0.1077  0.4466  0.1544
  607loPI   C6A 9708   7.375  11.566   6.896  0.0575 -0.1184  0.2873
  607loPI   C1B 9709   8.517  11.594   8.350 -0.2522  0.1007 -0.0399
  607loPI   C2B 9710   8.421  11.444   7.978 -0.1462 -0.1573 -0.2289
  607loPI   C3B 9711   8.265  11.590   7.548 -0.2435 -0.0651  0.1289
  607loPI   C4B 9712   8.223  11.734   7.058  0.0401  0.0449 -0.0239
  608loPI    C1 9713   1.232   5.393   9.036 -0.0820  0.1151 -0.0158
  608loPI    C2 9714   1.059   5.742   9.127  0.2161  0.2276  0.1321
  608loPI    C3 9715   1.452   5.728   9.051  0.1749 -0.0496 -0.0399
  608loPI   PO4 9716   1.139   5.318   8.881  0.0246 -0.2543 -0.3400
  608loPI   GL1 9717   1.157   5.130   8.490 -0.1101 -0.2317 -0.0130
  608loPI   GL2 9718   1.011   4.853   8.356 -0.1892  0.3007 -0.2841
  608loPI   C1A 9719   1.311   5.080   8.014 -0.2557 -0.2181 -0.1612
  608loPI   C2A 9720   1.294   5.009   7.595  0.1657  0.1753  0.3056
  608loPI   C3A 9721   1.535   5.024   7.311  0.0142  0.0650  0.2049
  608loPI   C4A 9722   1.419   5.125   6.953 -0.3375 -0.1634  0.3482
  608loPI   C5A 9723   1.171   5.094   6.515 -0.1237 -0.1270 -0.3077
  608loPI   C6A 9724   1.172   5.208   6.089 -0.0861 -0.1164  0.0196
  608loPI   C1B 9725   1.008   4.595   8.110  0.2164  0.3568  0.2787
  608loPI   C2B 9726   1.023   4.610   7.588  0.1782  0.0173  0.0402
  608loPI   C3B 9727   1.095   4.571   7.213  0.4071 -0.1164  0.0996
  608loPI   C4B 9728   1.355   4.663   6.957  0.1671  0.1273  0.1720
  609loPI    C1 9729  16.958   1.221  10.114 -0.1450  0.1131  0.3545
  609loPI    C2 9730  17.332   1.080  10.101 -0.2713 -0.2068 -0.0242
  609loPI    C3 9731  17.196   1.256  10.433  0.3354  0.2672 -0.0088
  609loPI   PO4 9732  16.943   1.424   9.888 -0.2081 -0.1920  0.0607
  609loPI   GL1 9733  16.697   1.576   9.471 -0.0558 -0.0360 -0.0621
  609loPI   GL2 9734  16.560   1.898   9.303  0.0446 -0.0380 -0.0070
  609loPI   C1A 9735  16.740   1.435   9.044 -0.2630 -0.2135  0.0087
  609loPI   C2A 9736  16.693   1.459   8.630 -0.2618 -0.1219 -0.0231
  609loPI   C3A 9737  16.704   1.283   8.218 -0.4439  0.1990 -0.1449
  609loPI   C4A 9738  16.718   0.853   8.113  0.0051  0.1665 -0.2278
  609loPI   C5A 9739  16.937   0.506   8.015  0.1394 -0.2021 -0.3625
  609loPI   C6A 9740  17.286   0.264   7.791  0.2532  0.0010 -0.0059
  609loPI   C1B 9741  16.714   2.019   8.868 -0.1072  0.0325 -0.1110
  609loPI   C2B 9742  16.727   1.978   8.543  0.1126 -0.2887  0.4374
  609loPI   C3B 9743  16.633   1.774   8.106 -0.1212  0.0900  0.0607
  609loPI   C4B 9744  16.332   1.612   7.677 -0.0133  0.2064  0.1923
  610loPI    C1 9745  19.880   5.645   9.308 -0.1391 -0.3308  0.0494
  610loPI    C2 9746  20.129   5.707   9.615 -0.1102  0.0106 -0.0389
  610loPI    C3 9747  19.906   5.375   9.602 -0.1206 -0.0029  0.3560
  610loPI   PO4 9748  20.084   5.652   9.072  0.0876  0.1083  0.3695
  610loPI   GL1 9749  20.051   5.932   8.623  0.1305  0.2746 -0.3337
  610loPI   GL2 9750  20.265   6.065   8.447  0.0397  0.1779  0.0957
  610loPI   C1A 9751  19.803   5.901   8.373 -0.0183  0.2421  0.1253
  610loPI   C2A 9752  19.569   5.986   8.047  0.1773  0.0691  0.1501
  610loPI   C3A 9753  19.552   5.934   7.690  0.3126  0.3958  0.2432
  610loPI   C4A 9754  19.573   5.833   7.329 -0.1755 -0.0765 -0.1590
  610loPI   C5A 9755  19.544   5.465   6.998 -0.0298 -0.1295 -0.1205
  610loPI   C6A 9756  19.222   5.422   6.768 -0.2897  0.0760 -0.0982
  610loPI   C1B 9757  20.290   6.003   8.037  0.2417 -0.2447 -0.0108
  610loPI   C2B 9758  20.238   6.137   7.623 -0.1406 -0.2951 -0.1220
  610loPI   C3B 9759  19.997   5.999   7.145  0.0595  0.2558 -0.0112
  610loPI   C4B 9760  19.720   5.872   6.824  0.0029 -0.4915  0.0126
  611loPI    C1 9761   9.576  10.198   9.369  0.0038 -0.1521 -0.1393
  611loPI    C2 9762   9.895   9.965   9.433  0.1522  0.1152  0.1205
  611loPI    C3 9763   9.593   9.968   9.696 -0.0166 -0.0530 -0.0679
  611loPI   PO4 9764   9.565  10.190   9.146 -0.1129 -0.2559  0.0263
  611loPI   GL1 9765   9.384  10.104   8.773 -0.6235  0.1784 -0.1073
  611loPI   GL2 9766   9.343  10.383   8.603  0.3559  0.2294  0.2295
  611loPI   C1A 9767   9.603  10.049   8.392  0.0220  0.0476  0.2367
  611loPI   C2A 9768   9.585  10.130   7.960 -0.2054 -0.0216  0.0140
  611loPI   C3A 9769   9.624  10.433   7.649  0.2468 -0.2049 -0.2634
  611loPI   C4A 9770   9.571  10.533   7.216 -0.0727  0.1596  0.0645
  611loPI   C5A 9771   9.438  10.401   6.806  0.1480  0.0767  0.2244
  611loPI   C6A 9772   9.146  10.268   6.393  0.2731 -0.0904 -0.0421
  611loPI   C1B 9773   9.406  10.544   8.177  0.0808 -0.0825  0.1880
  611loPI   C2B 9774   9.590  10.883   7.870 -0.0387 -0.1249 -0.0351
  611loPI   C3B 9775   9.776  10.993   7.566  0.2563 -0.0132 -0.5244
  611loPI   C4B 9776   9.672  11.152   7.214 -0.0622 -0.0587  0.5157
  612loPI    C1 9777   6.429   0.566   9.022  0.0333  0.2494  0.0022
  612loPI    C2 9778   6.345   0.505   9.408  0.2261 -0.1203 -0.0094
  612loPI    C3 9779   6.052   0.593   9.151  0.0537 -0.1710  0.1674
  612loPI   PO4 9780   6.592   0.360   8.948 -0.1065 -0.0374  0.2106
  612loPI   GL1 9781   6.629   0.319   8.567 -0.1723 -0.0021 -0.0192
  612loPI   GL2 9782   6.414   0.538   8.366  0.2093 -0.0452  0.0974
  612loPI   C1A 9783   6.941   0.265   8.265  0.0861  0.1673 -0.0447
  612loPI   C2A 9784   6.994   0.258   7.836 -0.0884  0.2674  0.0419
  612loPI   C3A 9785   7.042   0.140   7.492 -0.0412  0.1554 -0.0022
  612loPI   C4A 9786   7.304  -0.048   7.162  0.0204 -0.0933 -0.1141
  612loPI   C5A 9787   7.167  -0.141   6.698 -0.3930 -0.0097 -0.4084
  612loPI   C6A 9788   6.811  -0.392   6.475  0.1294 -0.1654  0.1089
  612loPI   C1B 9789   6.271   0.714   8.116 -0.0576 -0.0350  0.4176
  612loPI   C2B 9790   6.359   1.052   7.827 -0.2762  0.1188 -0.1436
  612loPI   C3B 9791   6.429   1.047   7.407 -0.0891 -0.0986  0.0665
  612loPI   C4B 9792   6.797   1.223   7.298 -0.2199 -0.2100 -0.3418
  613loPI    C1 9793  19.394   9.101   9.670 -0.2475 -0.1067 -0.0120
  613loPI    C2 9794  19.241   9.451   9.787 -0.0428  0.0645 -0.2462
  613loPI    C3 9795  19.516   9.268  10.012 -0.1996  0.0195 -0.0896
  613loPI   PO4 9796  19.474   9.177   9.354  0.0756 -0.2156 -0.0452
  613loPI   GL1 9797  19.160   9.241   9.017  0.2728 -0.1683  0.0586
  613loPI   GL2 9798  19.221   9.551   8.812  0.1729  0.1485 -0.0846
  613loPI   C1A 9799  18.957   9.168   8.614  0.2781 -0.0543  0.0842
  613loPI   C2A 9800  18.902   9.247   8.142 -0.1254  0.0915 -0.0064
  613loPI   C3A 9801  18.829   9.478   7.689  0.0594 -0.3274 -0.2522
  613loPI   C4A 9802  18.643   9.573   7.302  0.1793 -0.2548 -0.2697
  613loPI   C5A 9803  18.399   9.287   6.957 -0.0598 -0.1791  0.2623
  613loPI   C6A 9804  18.606   8.942   6.778 -0.3974  0.4700 -0.0947
  613loPI   C1B 9805  19.341   9.465   8.376 -0.2191  0.3224  0.3135
  613loPI   C2B 9806  19.295   9.423   7.898 -0.1448  0.3946 -0.0051
  613loPI   C3B 9807  19.215   9.502   7.404  0.0462  0.0837  0.0565
  613loPI   C4B 9808  19.101   9.704   6.991  0.0910 -0.1529  0.1049
  614loPI    C1 9809  16.663   8.155   9.928 -0.0765  0.0827  0.0253
  614loPI    C2 9810  16.681   8.342  10.281 -0.4103  0.0711  0.0517
  614loPI    C3 9811  16.395   8.438  10.018  0.0636  0.3534 -0.3792
  614loPI   PO4 9812  16.940   8.218   9.744  0.0781  0.3476 -0.1148
  614loPI   GL1 9813  16.905   8.192   9.402  0.2659  0.2518 -0.2251
  614loPI   GL2 9814  17.308   8.297   9.283 -0.1809  0.2025 -0.2110
  614loPI   C1A 9815  16.743   7.857   9.232 -0.4024 -0.3832 -0.0111
  614loPI   C2A 9816  16.492   7.424   8.962  0.1829  0.2648  0.0316
  614loPI   C3A 9817  16.326   7.291   8.637  0.2312 -0.0101 -0.1133
  614loPI   C4A 9818  16.364   7.339   8.182 -0.3343 -0.1568  0.1127
  614loPI   C5A 9819  16.522   7.571   7.736 -0.0437  0.2229  0.0521
  614loPI   C6A 9820  16.556   7.790   7.430 -0.0025 -0.1162  0.3353
  614loPI   C1B 9821  17.142   8.126   8.871 -0.1230 -0.0767 -0.1613
  614loPI   C2B 9822  17.038   7.961   8.494 -0.2021 -0.0670  0.2740
  614loPI   C3B 9823  17.061   8.057   8.105  0.1199  0.1039  0.1711
  614loPI   C4B 9824  16.807   8.003   7.790  0.0663 -0.2072 -0.1080
  615loPI    C1 9825   7.778  10.695   9.278 -0.1147 -0.1717 -0.0645
  615loPI    C2 9826   7.800  10.804   9.663  0.1427 -0.2192 -0.0637
  615loPI    C3 9827   7.693  10.431   9.566 -0.4680 -0.0571 -0.0586
  615loPI   PO4 9828   8.068  10.855   9.172  0.2288  0.2660 -0.1952
  615loPI   GL1 9829   7.971  10.850   8.752 -0.2106  0.2336  0.0004
  615loPI   GL2 9830   7.944  10.627   8.784 -0.0490 -0.1329 -0.1652
  615loPI   C1A 9831   7.942  10.966   8.300 -0.1535  0.0642 -0.0864
  615loPI   C2A 9832   8.034  11.049   7.995 -0.1868 -0.0932  0.1266
  615loPI   C3A 9833   7.985  11.074   7.574 -0.1673  0.0572 -0.0725
  615loPI   C4A 9834   8.184  11.186   7.165 -0.1669  0.0183 -0.0602
  615loPI   C5A 9835   8.139  11.387   6.729 -0.1715  0.3181  0.1352
  615loPI   C6A 9836   7.735  11.527   6.502 -0.0501  0.3607  0.1142
  615loPI   C1B 9837   8.060  10.460   8.463  0.0124 -0.1126 -0.0441
  615loPI   C2B 9838   8.110  10.501   8.168 -0.0575  0.1787  0.0486
  615loPI   C3B 9839   8.218  10.562   7.687 -0.0132  0.1317 -0.0471
  615loPI   C4B 9840   8.177  10.652   7.222  0.0922 -0.2926 -0.1891
  616loPI    C1 9841   5.344   6.457   9.319  0.1285  0.0154  0.0094
  616loPI    C2 9842   5.566   6.381   9.643  0.1415  0.0753  0.0146
  616loPI    C3 9843   5.248   6.623   9.671  0.1396  0.0765 -0.0163
  616loPI   PO4 9844   5.502   6.533   9.120  0.1720 -0.0780  0.2747
  616loPI   GL1 9845   5.503   6.430   8.698  0.1791  0.1986  0.2005
  616loPI   GL2 9846   5.718   6.195   8.788 -0.1426 -0.0378 -0.0674
  616loPI   C1A 9847   5.781   6.770   8.574 -0.5158 -0.1814  0.5350
  616loPI   C2A 9848   6.119   6.693   8.338 -0.0317  0.0283  0.1262
  616loPI   C3A 9849   6.125   6.480   7.928  0.0374  0.0386 -0.2258
  616loPI   C4A 9850   6.307   6.381   7.466 -0.0407  0.0568 -0.0345
  616loPI   C5A 9851   6.413   6.524   7.091  0.0724 -0.2203 -0.0096
  616loPI   C6A 9852   6.323   6.820   6.820 -0.1907  0.3113 -0.2242
  616loPI   C1B 9853   5.330   6.102   8.396  0.0247 -0.0007  0.3174
  616loPI   C2B 9854   5.260   5.955   7.975 -0.2019 -0.1074 -0.1707
  616loPI   C3B 9855   5.431   5.872   7.543  0.0725  0.1196 -0.1151
  616loPI   C4B 9856   5.568   5.659   7.116  0.1626 -0.0723 -0.2363
  617loPI    C1 9857   8.184   9.921   9.661 -0.0132 -0.1961  0.1444
  617loPI    C2 9858   8.536  10.094   9.743 -0.0540 -0.0079 -0.0674
  617loPI    C3 9859   8.213  10.186   9.960  0.0070 -0.1144  0.0705
  617loPI   PO4 9860   8.107   9.997   9.410  0.0137 -0.3050  0.3029
  617loPI   GL1 9861   8.157   9.804   8.925 -0.2460 -0.1221  0.0877
  617loPI   GL2 9862   7.820   9.641   8.978  0.0488 -0.3948 -0.2589
  617loPI   C1A 9863   8.187   9.789   8.410 -0.2314 -0.4061  0.2053
  617loPI   C2A 9864   8.259   9.931   8.072 -0.0822  0.2031 -0.1336
  617loPI   C3A 9865   8.283   9.956   7.620 -0.0843  0.0058 -0.1422
  617loPI   C4A 9866   8.372   9.926   7.234 -0.0246 -0.0235  0.1364
  617loPI   C5A 9867   8.182   9.867   6.826 -0.1555  0.0340 -0.0113
  617loPI   C6A 9868   8.393   9.806   6.545 -0.2361  0.2663  0.3058
  617loPI   C1B 9869   7.835   9.412   8.695 -0.0404  0.1798  0.1598
  617loPI   C2B 9870   7.801   9.362   8.246 -0.1772  0.0012  0.0372
  617loPI   C3B 9871   7.883   9.611   7.789 -0.2828 -0.0561  0.1598
  617loPI   C4B 9872   7.889   9.625   7.398 -0.3337 -0.0898  0.2676
  618loPI    C1 9873  11.873  10.299   9.223  0.0455 -0.4461 -0.3545
  618loPI    C2 9874  11.717  10.036   9.481 -0.0301 -0.1332 -0.0732
  618loPI    C3 9875  12.089  10.172   9.535 -0.0468 -0.0654 -0.1285
  618loPI   PO4 9876  11.822  10.314   9.012  0.0844 -0.0905 -0.1354
  618loPI   GL1 9877  11.825  10.599   8.690  0.1263 -0.0789  0.0351
  618loPI   GL2 9878  12.103  10.640   8.754  0.1541 -0.1143 -0.0350
  618loPI   C1A 9879  11.858  10.727   8.251  0.3292  0.1041  0.0360
  618loPI   C2A 9880  11.789  10.773   7.897  0.1776 -0.1913 -0.1345
  618loPI   C3A 9881  11.972  10.866   7.454  0.1255  0.1554 -0.3807
  618loPI   C4A 9882  11.947  10.852   7.036 -0.1052 -0.0937 -0.0087
  618loPI   C5A 9883  12.188  10.725   6.612 -0.1590 -0.0639 -0.3793
  618loPI   C6A 9884  12.064  10.525   6.261  0.1892 -0.1653  0.0747
  618loPI   C1B 9885  12.265  10.848   8.450 -0.2434  0.3801  0.0821
  618loPI   C2B 9886  12.362  10.900   8.040  0.0538  0.0889 -0.2792
  618loPI   C3B 9887  12.462  10.980   7.591 -0.0541  0.2247  0.2015
  618loPI   C4B 9888  12.404  11.004   7.127 -0.0917  0.2167  0.1512
  619loPI    C1 9889   2.864   0.060   9.556  0.0558 -0.0577  0.2222
  619loPI    C2 9890   3.071   0.182   9.236 -0.1428 -0.1278  0.0643
  619loPI    C3 9891   3.178  -0.152   9.428 -0.0021 -0.0670  0.0935
  619loPI   PO4 9892   2.754   0.329   9.577 -0.0370 -0.1137 -0.2929
  619loPI   GL1 9893   2.561   0.406   9.270 -0.0712  0.1848 -0.0718
  619loPI   GL2 9894   2.704   0.637   9.157  0.0770  0.0543 -0.5544
  619loPI   C1A 9895   2.180   0.259   9.226 -0.0840  0.1365 -0.2460
  619loPI   C2A 9896   1.857   0.189   8.780 -0.2389 -0.0581 -0.0269
  619loPI   C3A 9897   1.832   0.120   8.340  0.1447  0.0045  0.2512
  619loPI   C4A 9898   1.766   0.118   7.946  0.0197 -0.2434  0.1323
  619loPI   C5A 9899   1.889   0.287   7.630  0.1436  0.1459  0.1119
  619loPI   C6A 9900   1.941   0.139   7.241 -0.3299  0.3205 -0.0708
  619loPI   C1B 9901   2.523   0.476   8.709  0.0136 -0.0133  0.0105
  619loPI   C2B 9902   2.500   0.247   8.322  0.0643 -0.2342  0.1648
  619loPI   C3B 9903   2.326   0.236   7.842 -0.0149  0.1107  0.0553
  619loPI   C4B 9904   2.375   0.340   7.414 -0.0958  0.2574 -0.1458
  620loPI    C1 9905  18.374   3.137   9.789 -0.0233  0.1281  0.1923
  620loPI    C2 9906  18.679   2.914   9.659 -0.1282  0.1405 -0.0818
  620loPI    C3 9907  18.747   3.219   9.908  0.1120  0.2769 -0.3087
  620loPI   PO4 9908  18.259   3.253   9.595 -0.0581 -0.0051 -0.3339
  620loPI   GL1 9909  18.224   3.154   9.117 -0.0127 -0.0023 -0.1164
  620loPI   GL2 9910  18.446   2.892   9.146  0.1128  0.0073  0.2990
  620loPI   C1A 9911  18.081   3.196   8.754 -0.2441 -0.0357  0.0458
  620loPI   C2A 9912  17.904   3.036   8.267  0.1285  0.4099 -0.0367
  620loPI   C3A 9913  17.731   3.017   7.851 -0.0468 -0.1454  0.1990
  620loPI   C4A 9914  17.662   3.132   7.386  0.2404 -0.1224  0.0439
  620loPI   C5A 9915  17.343   3.411   7.159 -0.0123 -0.1510 -0.2072
  620loPI   C6A 9916  17.122   3.723   6.952 -0.1119  0.3857  0.1139
  620loPI   C1B 9917  18.348   2.783   8.756 -0.2972  0.1390  0.0115
  620loPI   C2B 9918  18.390   2.881   8.291 -0.0131  0.0377  0.0482
  620loPI   C3B 9919  18.227   2.934   7.896 -0.1805 -0.0869  0.0135
  620loPI   C4B 9920  18.396   2.928   7.413  0.0570 -0.0144  0.0982
  621loPI    C1 9921  10.568  14.391   9.489 -0.2309  0.0454  0.1549
  621loPI    C2 9922  10.756  14.089   9.306 -0.4524 -0.0432  0.0693
  621loPI    C3 9923  10.895  14.230   9.654 -0.0736  0.0732 -0.1232
  621loPI   PO4 9924  10.442  14.583   9.250 -0.1967  0.3780  0.2483
  621loPI   GL1 9925  10.372  14.854   8.893  0.3977 -0.2087 -0.0017
  621loPI   GL2 9926  10.407  15.204   9.007 -0.1310 -0.1013 -0.2690
  621loPI   C1A 9927  10.316  14.867   8.433 -0.4470 -0.1046 -0.1489
  621loPI   C2A 9928  10.569  15.055   8.097  0.0503  0.0302  0.0155
  621loPI   C3A 9929  10.555  15.105   7.640  0.2002  0.0467 -0.0382
  621loPI   C4A 9930  10.290  15.124   7.198  0.1398 -0.2630 -0.3956
  621loPI   C5A 9931  10.168  15.349   6.824 -0.1140 -0.0094  0.0988
  621loPI   C6A 9932   9.893  15.181   6.496 -0.2785  0.0366  0.0446
  621loPI   C1B 9933  10.093  15.189   8.678 -0.1717 -0.2454 -0.2606
  621loPI   C2B 9934  10.174  15.310   8.262  0.0672  0.2218 -0.2683
  621loPI   C3B 9935  10.111  15.479   7.872 -0.0376  0.1682  0.1665
  621loPI   C4B 9936  10.133  15.328   7.638  0.2653  0.0742  0.0181
  622loPI    C1 9937   7.803   4.611   9.413 -0.0965 -0.0557 -0.0534
  622loPI    C2 9938   7.936   4.774   9.753 -0.0916  0.3669 -0.2514
  622loPI    C3 9939   7.563   4.847   9.630 -0.1244  0.1387 -0.2917
  622loPI   PO4 9940   7.987   4.637   9.285  0.0090 -0.2395  0.0577
  622loPI   GL1 9941   8.014   4.332   8.976  0.1509  0.1454  0.2558
  622loPI   GL2 9942   7.925   4.084   8.899 -0.2181  0.3411  0.1125
  622loPI   C1A 9943   8.354   4.493   8.752  0.3867  0.1261 -0.1853
  622loPI   C2A 9944   8.266   4.750   8.315  0.4478  0.1132 -0.3412
  622loPI   C3A 9945   8.355   5.033   8.083  0.2407 -0.0741  0.1613
  622loPI   C4A 9946   8.342   5.295   7.731  0.0704 -0.0105 -0.0211
  622loPI   C5A 9947   8.378   5.216   7.230  0.4364 -0.0881 -0.5084
  622loPI   C6A 9948   8.234   5.389   6.898 -0.0026 -0.1395  0.1634
  622loPI   C1B 9949   8.001   4.228   8.393 -0.0500 -0.1045  0.2148
  622loPI   C2B 9950   8.029   4.389   8.040 -0.1526 -0.5168 -0.4652
  622loPI   C3B 9951   7.907   4.299   7.517  0.6325  0.1294 -0.0280
  622loPI   C4B 9952   7.714   4.346   7.025 -0.2332  0.1730  0.3210
  623loPI    C1 9953   8.214  17.355   8.897 -0.0800  0.0914 -0.1122
  623loPI    C2 9954   8.423  17.696   8.913 -0.0077  0.0382  0.1087
  623loPI    C3 9955   8.248  17.553   9.243  0.0977 -0.2226  0.0535
  623loPI   PO4 9956   8.038  17.474   8.687  0.3470  0.0461 -0.0494
  623loPI   GL1 9957   8.371  17.546   8.407  0.0703  0.1258 -0.1315
  623loPI   GL2 9958   8.122  17.372   8.210  0.2831  0.3898 -0.0074
  623loPI   C1A 9959   8.502  17.608   7.972  0.1981  0.0733 -0.3785
  623loPI   C2A 9960   8.590  17.650   7.494  0.0025 -0.0152 -0.0576
  623loPI   C3A 9961   8.492  17.430   7.056  0.0760  0.0226  0.1342
  623loPI   C4A 9962   8.605  17.199   6.754 -0.2001 -0.0982 -0.3008
  623loPI   C5A 9963   8.619  17.006   6.388 -0.2589  0.0868  0.1167
  623loPI   C6A 9964   8.727  16.669   6.156 -0.0108  0.3594 -0.0753
  623loPI   C1B 9965   8.210  17.166   7.814 -0.0955 -0.2698 -0.0269
  623loPI   C2B 9966   8.604  17.179   7.588  0.3381  0.0074 -0.0670
  623loPI   C3B 9967   8.832  16.924   7.164  0.0526 -0.2946  0.1166
  623loPI   C4B 9968   9.090  17.001   6.811 -0.2040 -0.3288  0.0146
  624loPI    C1 9969   6.201   5.965   9.215  0.0843 -0.0022 -0.1287
  624loPI    C2 9970   5.939   6.240   9.339 -0.1571 -0.1598 -0.2795
  624loPI    C3 9971   6.324   6.337   9.294 -0.1822  0.0683 -0.0334
  624loPI   PO4 9972   6.010   5.877   9.053  0.0473 -0.0248  0.1241
  624loPI   GL1 9973   6.004   5.865   8.578  0.0575  0.1381  0.2350
  624loPI   GL2 9974   6.160   5.709   8.585  0.2896  0.3107 -0.1999
  624loPI   C1A 9975   5.997   6.013   8.182 -0.0959  0.1188 -0.2336
  624loPI   C2A 9976   5.725   6.190   7.882  0.0793 -0.2240 -0.0593
  624loPI   C3A 9977   5.785   6.290   7.460  0.0773  0.0260 -0.1818
  624loPI   C4A 9978   5.466   6.152   7.104  0.0701  0.1087 -0.0465
  624loPI   C5A 9979   5.200   6.107   6.792  0.1806  0.0768  0.0154
  624loPI   C6A 9980   5.087   5.908   6.411 -0.1786 -0.1494  0.1215
  624loPI   C1B 9981   6.092   5.449   8.281 -0.1365  0.2497  0.1653
  624loPI   C2B 9982   6.213   5.430   7.902 -0.0571  0.2170  0.0476
  624loPI   C3B 9983   6.211   5.182   7.436  0.0712 -0.1012 -0.1943
  624loPI   C4B 9984   6.217   4.857   7.113  0.2027  0.2110  0.2287
  625loPI    C1 9985  17.848  16.275   9.921 -0.2159 -0.1502 -0.0246
  625loPI    C2 9986  18.026  15.919   9.957 -0.0174 -0.0442  0.0610
  625loPI    C3 9987  17.884  16.104  10.281  0.1804  0.1055  0.0643
  625loPI   PO4 9988  18.019  16.490   9.715 -0.0937  0.2397 -0.2075
  625loPI   GL1 9989  18.149  16.314   9.295  0.1462 -0.0039 -0.2854
  625loPI   GL2 9990  17.819  16.349   9.289  0.2148 -0.1767 -0.1178
  625loPI   C1A 9991  18.524  16.380   9.014  0.0974  0.0378 -0.0081
  625loPI   C2A 9992  18.625  16.282   8.546 -0.2910 -0.1092  0.0597
  625loPI   C3A 9993  18.491  16.393   8.037 -0.0266  0.2082  0.1789
  625loPI   C4A 9994  18.437  16.186   7.644 -0.2082 -0.1641 -0.0965
  625loPI   C5A 9995  18.418  16.224   7.157  0.2359  0.2173 -0.2068
  625loPI   C6A 9996  18.100  16.204   6.807  0.0032  0.0119  0.1543
  625loPI   C1B 9997  17.865  16.571   8.986 -0.0929 -0.0562 -0.1095
  625loPI   C2B 9998  17.818  16.671   8.541 -0.0073 -0.0537  0.2792
  625loPI   C3B 9999  17.754  16.703   8.107  0.1391  0.1271 -0.0720
  625loPI   C4B10000  17.571  16.554   7.641 -0.0437  0.1984 -0.2244
  626loPI    C110001   5.346   2.271   9.523  0.0091 -0.0233 -0.1311
  626loPI    C210002   5.135   2.158   9.843 -0.0984  0.0172 -0.1872
  626loPI    C310003   5.532   2.191   9.867 -0.1195  0.1630 -0.0164
  626loPI   PO410004   5.283   2.240   9.183 -0.1306  0.0762 -0.0341
  626loPI   GL110005   5.142   2.180   8.654 -0.0153 -0.1164 -0.1588
  626loPI   GL210006   5.087   1.889   8.770  0.0173 -0.4422 -0.0051
  626loPI   C1A10007   4.925   2.191   8.237  0.0075 -0.3823  0.0448
  626loPI   C2A10008   4.689   2.435   7.885  0.2999 -0.0459 -0.0206
  626loPI   C3A10009   4.895   2.539   7.460  0.1227  0.0581  0.1285
  626loPI   C4A10010   5.026   2.431   7.004 -0.0068  0.0702  0.0791
  626loPI   C5A10011   5.089   2.598   6.637 -0.0282  0.0736 -0.0236
  626loPI   C6A10012   5.229   2.667   6.304 -0.0709  0.0870  0.1332
  626loPI   C1B10013   5.439   1.869   8.342 -0.3506 -0.0922  0.1778
  626loPI   C2B10014   5.672   1.844   7.975  0.2024  0.1244  0.1147
  626loPI   C3B10015   5.578   1.735   7.527 -0.0690 -0.1065  0.0007
  626loPI   C4B10016   5.531   1.596   7.092  0.0042 -0.2396 -0.3464
  627loPI    C110017  14.884  16.623   9.330  0.1990  0.0929 -0.0460
  627loPI    C210018  15.167  16.905   9.312  0.0254  0.2886  0.2160
  627loPI    C310019  15.052  16.759   9.667  0.1359 -0.1396  0.0822
  627loPI   PO410020  14.685  16.769   9.125 -0.1581 -0.4687  0.1202
  627loPI   GL110021  14.415  17.029   9.032  0.1479 -0.3077  0.1753
  627loPI   GL210022  14.251  17.169   8.915 -0.1235 -0.2524  0.2830
  627loPI   C1A10023  14.632  17.113   8.600  0.3013 -0.0781 -0.0948
  627loPI   C2A10024  14.625  17.197   8.271  0.0447  0.5366 -0.2446
  627loPI   C3A10025  14.764  17.226   7.836 -0.2743 -0.0755  0.1837
  627loPI   C4A10026  14.785  17.118   7.373 -0.1025 -0.0760  0.1135
  627loPI   C5A10027  15.054  16.999   7.139 -0.2127  0.2336 -0.2055
  627loPI   C6A10028  15.131  17.010   6.634 -0.0159  0.1143  0.0438
  627loPI   C1B10029  14.128  17.237   8.524 -0.1554 -0.1688 -0.0320
  627loPI   C2B10030  13.955  17.222   8.190  0.0462  0.2656  0.1335
  627loPI   C3B10031  14.140  17.173   7.761 -0.0170 -0.1768 -0.0283
  627loPI   C4B10032  14.096  17.257   7.240 -0.1293  0.0758 -0.3426
  628loPI    C110033   1.440   0.808   9.358 -0.0923  0.2818  0.1726
  628loPI    C210034   1.390   0.987   9.004 -0.0035 -0.0879 -0.0312
  628loPI    C310035   1.071   0.874   9.217 -0.0595  0.2773  0.0844
  628loPI   PO410036   1.735   0.778   9.324 -0.2905 -0.1748  0.0186
  628loPI   GL110037   2.116   0.615   8.924 -0.0403  0.2468  0.1237
  628loPI   GL210038   1.773   0.717   8.846  0.1822  0.4180  0.0701
  628loPI   C1A10039   2.049   0.573   8.454  0.0102 -0.1020 -0.0281
  628loPI   C2A10040   1.972   0.652   8.017 -0.2359 -0.0503 -0.4212
  628loPI   C3A10041   2.015   0.725   7.555 -0.3851 -0.1645  0.1442
  628loPI   C4A10042   2.163   0.811   7.061  0.2727 -0.0151  0.0492
  628loPI   C5A10043   2.292   0.513   6.989  0.1226 -0.0328  0.3411
  628loPI   C6A10044   2.679   0.429   6.927  0.0428  0.3267 -0.1439
  628loPI   C1B10045   1.464   0.526   8.511 -0.1838 -0.1534  0.1437
  628loPI   C2B10046   1.478   0.567   8.037 -0.1139  0.0589  0.0019
  628loPI   C3B10047   1.489   0.687   7.678  0.2350  0.1612 -0.0417
  628loPI   C4B10048   1.598   0.952   7.452 -0.1751  0.0420 -0.1132
  629loPI    C110049   9.336   8.207   9.430  0.0038 -0.1288 -0.3072
  629loPI    C210050   9.598   8.325   9.152 -0.0893  0.0826 -0.3076
  629loPI    C310051   9.633   8.457   9.528  0.0260 -0.1889 -0.2200
  629loPI   PO410052   9.100   8.319   9.288  0.2529 -0.2656 -0.1536
  629loPI   GL110053   9.173   8.199   8.889  0.1743  0.3021  0.1752
  629loPI   GL210054   9.007   7.928   8.942  0.2408 -0.0292 -0.2243
  629loPI   C1A10055   9.126   8.189   8.482 -0.0165  0.1378  0.0319
  629loPI   C2A10056   9.120   8.074   8.036  0.0837  0.0418  0.0695
  629loPI   C3A10057   9.145   8.053   7.692 -0.1854  0.0231 -0.1898
  629loPI   C4A10058   9.142   8.375   7.336 -0.0807 -0.1705  0.0218
  629loPI   C5A10059   9.445   8.399   6.979 -0.1818 -0.2738  0.0811
  629loPI   C6A10060   9.490   8.419   6.603 -0.1367  0.1331  0.2344
  629loPI   C1B10061   8.868   7.744   8.600 -0.0453 -0.0043 -0.0734
  629loPI   C2B10062   8.823   7.645   8.217 -0.0270 -0.1067 -0.2544
  629loPI   C3B10063   8.798   7.584   7.733 -0.0760 -0.1589 -0.0279
  629loPI   C4B10064   8.812   7.538   7.327  0.2497 -0.0051  0.1161
  630loPI    C110065   2.416   9.498   9.368  0.0820 -0.1789  0.1074
  630loPI    C210066   2.595   9.662   9.685 -0.0832  0.1699  0.0253
  630loPI    C310067   2.196   9.639   9.670 -0.0653 -0.1961  0.0096
  630loPI   PO410068   2.530   9.607   9.157  0.1358 -0.0569  0.0245
  630loPI   GL110069   2.249   9.583   8.847  0.1390 -0.0567 -0.2794
  630loPI   GL210070   2.280   9.900   8.630 -0.1805  0.0131  0.2707
  630loPI   C1A10071   1.889   9.595   8.534  0.1992 -0.1210  0.0787
  630loPI   C2A10072   1.822   9.515   8.076 -0.1411  0.0822  0.1172
  630loPI   C3A10073   1.650   9.917   7.636 -0.1193  0.0009  0.2545
  630loPI   C4A10074   1.561   9.918   7.230  0.2515 -0.2117  0.1331
  630loPI   C5A10075   1.747   9.530   6.980  0.0229  0.0271 -0.1833
  630loPI   C6A10076   1.771   9.333   6.668  0.2150  0.0281 -0.3131
  630loPI   C1B10077   2.318   9.802   8.237  0.0035 -0.1149  0.0055
  630loPI   C2B10078   2.237   9.771   7.863  0.1886 -0.0931  0.2655
  630loPI   C3B10079   2.093   9.779   7.415 -0.0700  0.1501  0.2481
  630loPI   C4B10080   2.026   9.925   7.004  0.0412 -0.3358 -0.0189
  631loPI    C110081   2.461  18.299   9.316  0.1286  0.1547  0.2465
  631loPI    C210082   2.140  18.370   9.544 -0.0591  0.1088  0.0012
  631loPI    C310083   2.286  17.999   9.515  0.1049  0.1538  0.2241
  631loPI   PO410084   2.406  18.413   9.119 -0.3034 -0.0185 -0.0059
  631loPI   GL110085   2.389  18.788   8.816  0.0260 -0.0009 -0.0685
  631loPI   GL210086   2.625  18.564   8.644 -0.2152  0.2868  0.0664
  631loPI   C1A10087   2.119  19.069   8.602  0.0335  0.2861 -0.0475
  631loPI   C2A10088   2.173  19.197   8.237 -0.0107  0.2596 -0.2925
  631loPI   C3A10089   2.177  19.240   7.677 -0.2655  0.1250 -0.2395
  631loPI   C4A10090   2.110  19.150   7.231  0.0203  0.3164 -0.0450
  631loPI   C5A10091   1.942  18.834   6.864 -0.4239  0.0168  0.0856
  631loPI   C6A10092   2.074  18.469   6.632  0.2474  0.1821 -0.0956
  631loPI   C1B10093   2.227  18.342   8.468 -0.1036 -0.2263  0.3145
  631loPI   C2B10094   2.067  18.347   7.989  0.2190 -0.2210 -0.2945
  631loPI   C3B10095   2.273  18.317   7.641 -0.2517 -0.2056 -0.2843
  631loPI   C4B10096   2.627  18.351   7.343 -0.0498 -0.0626 -0.0659
  632loPI    C110097   2.469   8.994   9.277  0.0533 -0.1783  0.1243
  632loPI    C210098   2.283   9.082   9.620  0.1923  0.2082  0.1062
  632loPI    C310099   2.683   9.075   9.605  0.1864  0.0433 -0.0146
  632loPI   PO410100   2.404   9.070   9.104 -0.0917  0.0434  0.1578
  632loPI   GL110101   2.396   9.003   8.606  0.1767  0.1390 -0.0476
  632loPI   GL210102   2.688   8.975   8.461 -0.0032 -0.1158  0.2069
  632loPI   C1A10103   2.068   9.128   8.286  0.3466 -0.1428 -0.0522
  632loPI   C2A10104   1.858   8.940   7.927  0.3365 -0.0704  0.2273
  632loPI   C3A10105   1.877   8.842   7.442 -0.0964 -0.1714  0.1298
  632loPI   C4A10106   1.716   9.061   7.077  0.0066  0.2499  0.2207
  632loPI   C5A10107   1.852   8.799   6.724 -0.1405 -0.1124 -0.1366
  632loPI   C6A10108   2.176   8.495   6.556 -0.1898  0.1156  0.1485
  632loPI   C1B10109   2.830   8.961   8.062  0.0107  0.2329 -0.0823
  632loPI   C2B10110   2.818   8.726   7.598  0.1019 -0.2828 -0.0921
  632loPI   C3B10111   2.908   8.586   7.118 -0.1634 -0.1336 -0.1054
  632loPI   C4B10112   3.072   8.802   6.825  0.3698 -0.0855 -0.1157
  633loPI    C110113  10.949   6.223   9.202  0.1769 -0.1012 -0.1050
  633loPI    C210114  10.675   6.410   8.979  0.0450 -0.2422 -0.0630
  633loPI    C310115  10.735   6.524   9.357 -0.3609 -0.5765  0.1097
  633loPI   PO410116  11.124   6.235   9.134 -0.0554 -0.0388  0.0651
  633loPI   GL110117  11.195   6.229   8.748  0.0980 -0.2573  0.1734
  633loPI   GL210118  11.358   6.572   8.590  0.1506  0.0933  0.3271
  633loPI   C1A10119  11.305   6.086   8.328 -0.2336 -0.0147  0.1827
  633loPI   C2A10120  11.347   5.956   7.968  0.2631  0.0866 -0.3632
  633loPI   C3A10121  11.481   5.866   7.651 -0.1964  0.0762 -0.1285
  633loPI   C4A10122  11.766   6.167   7.445  0.0522 -0.1063  0.1065
  633loPI   C5A10123  12.150   6.039   7.146 -0.0045 -0.2953  0.6055
  633loPI   C6A10124  12.487   5.758   6.946  0.0515 -0.1657 -0.1534
  633loPI   C1B10125  11.183   6.760   8.235 -0.2477 -0.0779  0.1245
  633loPI   C2B10126  11.015   6.799   7.926 -0.3191  0.1324 -0.1582
  633loPI   C3B10127  10.994   6.829   7.571  0.0250  0.1103  0.0689
  633loPI   C4B10128  10.890   6.506   7.213  0.0686  0.0922  0.0390
  634loPI    C110129   7.771  11.310   9.726  0.0956 -0.2175 -0.4019
  634loPI    C210130   8.142  11.159   9.740  0.0858 -0.2180 -0.0744
  634loPI    C310131   7.900  11.127  10.057 -0.0903  0.0495 -0.1773
  634loPI   PO410132   7.606  11.200   9.511 -0.1605  0.0286  0.0615
  634loPI   GL110133   7.376  11.209   9.092 -0.0026 -0.1515  0.0210
  634loPI   GL210134   7.727  11.148   9.006  0.0403  0.1777 -0.2692
  634loPI   C1A10135   7.166  10.966   8.809 -0.1122  0.1679  0.1166
  634loPI   C2A10136   7.115  10.989   8.402 -0.0944 -0.0794  0.1412
  634loPI   C3A10137   7.049  10.912   7.982  0.0260  0.1510 -0.1673
  634loPI   C4A10138   7.285  10.615   7.680 -0.0205 -0.1373  0.1127
  634loPI   C5A10139   7.300  10.560   7.205 -0.2551  0.4324  0.1822
  634loPI   C6A10140   7.179  10.394   6.781  0.2244 -0.2131  0.0683
  634loPI   C1B10141   7.569  11.134   8.548 -0.1092 -0.0461 -0.4138
  634loPI   C2B10142   7.489  11.094   8.110  0.0052 -0.0036 -0.2423
  634loPI   C3B10143   7.439  11.080   7.685  0.2815 -0.2137  0.0176
  634loPI   C4B10144   7.390  11.151   7.184 -0.1730  0.1948 -0.0946
  635loPI    C110145  18.980   1.502   9.259 -0.2328  0.1599  0.0887
  635loPI    C210146  19.056   1.735   8.943 -0.1931 -0.1366 -0.1249
  635loPI    C310147  19.340   1.673   9.219 -0.1834  0.0146 -0.1001
  635loPI   PO410148  18.930   1.244   9.183  0.2299  0.0362 -0.2576
  635loPI   GL110149  19.111   1.220   8.690  0.0897  0.2694  0.0631
  635loPI   GL210150  19.505   1.408   8.654  0.0126  0.1781 -0.4900
  635loPI   C1A10151  18.991   1.031   8.329 -0.0600  0.0835  0.2209
  635loPI   C2A10152  18.665   0.804   8.282  0.2880  0.1374 -0.1380
  635loPI   C3A10153  18.371   0.757   8.215  0.2202  0.0055 -0.1073
  635loPI   C4A10154  18.042   0.633   7.930 -0.1322 -0.1168 -0.0772
  635loPI   C5A10155  18.143   0.417   7.585 -0.0680 -0.0768 -0.2984
  635loPI   C6A10156  18.228   0.375   7.178 -0.1911  0.0080 -0.2306
  635loPI   C1B10157  19.435   1.346   8.248 -0.2497 -0.1111  0.0737
  635loPI   C2B10158  19.279   1.287   7.870  0.0418  0.2016 -0.1091
  635loPI   C3B10159  19.086   1.178   7.561 -0.2805  0.1219  0.4513
  635loPI   C4B10160  19.094   1.360   7.173 -0.0462  0.1562  0.1567
  636loPI    C110161   9.032   0.242   9.003 -0.2091  0.0446 -0.1872
  636loPI    C210162   9.090   0.637   9.015  0.0012  0.0150 -0.1906
  636loPI    C310163   8.946   0.447   9.335  0.1862  0.0518 -0.0842
  636loPI   PO410164   9.259   0.165   8.934  0.2637 -0.0111  0.0265
  636loPI   GL110165   9.462   0.124   8.494 -0.0651 -0.1674 -0.1225
  636loPI   GL210166   9.679   0.396   8.695 -0.1454  0.0618  0.2541
  636loPI   C1A10167   9.279   0.018   8.101  0.1022 -0.1330 -0.0420
  636loPI   C2A10168   9.375   0.032   7.773  0.4033 -0.1776 -0.0224
  636loPI   C3A10169   9.271   0.112   7.319 -0.1976  0.2624 -0.1068
  636loPI   C4A10170   9.401  -0.147   6.989  0.2158  0.1574  0.1775
  636loPI   C5A10171   9.166  -0.511   6.653  0.0261 -0.0103 -0.2530
  636loPI   C6A10172   8.832  -0.782   6.527  0.0963  0.2145 -0.0023
  636loPI   C1B10173   9.963   0.137   8.522 -0.2835  0.1838  0.0135
  636loPI   C2B10174  10.200   0.078   8.074 -0.2756  0.0672  0.0819
  636loPI   C3B10175  10.365   0.018   7.622 -0.2014  0.2749  0.0079
  636loPI   C4B10176  10.458   0.173   7.303  0.0113 -0.3224 -0.1479
  637loPI    C110177   0.425   3.279   9.069 -0.0309 -0.1152 -0.1245
  637loPI    C210178   0.688   2.983   9.015  0.1391 -0.0001  0.0634
  637loPI    C310179   0.685   3.188   9.359  0.1513  0.3420 -0.1363
  637loPI   PO410180   0.239   3.238   8.941 -0.3016 -0.2048  0.2301
  637loPI   GL110181   0.031   3.229   8.740  0.1030  0.0201  0.3671
  637loPI   GL210182  -0.244   3.292   8.690  0.0180  0.0875  0.2634
  637loPI   C1A10183   0.058   3.096   8.300  0.1585  0.2932 -0.1906
  637loPI   C2A10184   0.066   2.954   7.851 -0.0388 -0.2194 -0.0315
  637loPI   C3A10185   0.111   3.351   7.644  0.1581  0.2419 -0.3898
  637loPI   C4A10186   0.012   3.454   7.259  0.3447 -0.1290  0.0070
  637loPI   C5A10187   0.158   3.609   6.885 -0.2238 -0.3358 -0.1062
  637loPI   C6A10188   0.176   3.824   6.462 -0.1350 -0.0652 -0.2864
  637loPI   C1B10189  -0.376   2.962   8.184 -0.1596 -0.0303 -0.1777
  637loPI   C2B10190  -0.616   2.659   7.851  0.0220 -0.2598  0.1185
  637loPI   C3B10191  -0.674   2.242   7.834  0.0675  0.0122  0.1840
  637loPI   C4B10192  -0.671   1.811   7.960 -0.0494  0.4894 -0.1201
  638loPI    C110193   7.575   1.699   9.141  0.1353  0.1757  0.1436
  638loPI    C210194   7.479   1.657   9.527  0.1773  0.1872  0.1553
  638loPI    C310195   7.303   1.426   9.252  0.1776  0.1505  0.1858
  638loPI   PO410196   7.501   1.936   9.080 -0.0473  0.0206  0.3922
  638loPI   GL110197   7.552   2.267   8.737  0.0722  0.1258 -0.1514
  638loPI   GL210198   7.290   1.992   8.661 -0.0565 -0.1280 -0.2451
  638loPI   C1A10199   7.576   2.425   8.426 -0.0385 -0.1199  0.1706
  638loPI   C2A10200   7.510   2.449   7.968 -0.0097  0.2764 -0.0429
  638loPI   C3A10201   7.436   2.371   7.503  0.0323  0.1131 -0.2010
  638loPI   C4A10202   7.476   2.311   6.968  0.2217 -0.0678 -0.2775
  638loPI   C5A10203   7.150   2.485   6.673 -0.0648  0.0041 -0.0396
  638loPI   C6A10204   6.761   2.464   6.505 -0.2870 -0.0302 -0.3434
  638loPI   C1B10205   7.260   2.091   8.186 -0.2149  0.0555 -0.1600
  638loPI   C2B10206   6.998   2.083   7.965 -0.0498  0.0548 -0.0205
  638loPI   C3B10207   6.609   2.138   7.675 -0.1364 -0.0822  0.1953
  638loPI   C4B10208   6.627   2.529   7.399 -0.0955  0.0767 -0.1580
  639loPI    C110209   7.428   3.398   9.790 -0.2486  0.2841  0.1469
  639loPI    C210210   7.183   3.218  10.050  0.0879 -0.0195  0.2617
  639loPI    C310211   7.444   3.492  10.179  0.0521  0.0460  0.1958
  639loPI   PO410212   7.264   3.348   9.558  0.2903  0.0694 -0.3565
  639loPI   GL110213   7.412   3.259   9.057  0.2079 -0.1178  0.1729
  639loPI   GL210214   7.034   3.081   8.825  0.0219  0.1628  0.1584
  639loPI   C1A10215   7.381   3.331   8.581  0.0351 -0.0278 -0.1757
  639loPI   C2A10216   7.316   3.327   8.060  0.1848 -0.1002 -0.2484
  639loPI   C3A10217   7.390   3.398   7.656 -0.2966 -0.0083  0.1540
  639loPI   C4A10218   7.419   3.566   7.222 -0.1180  0.2831 -0.2321
  639loPI   C5A10219   7.614   3.522   6.842 -0.1802 -0.0009 -0.1228
  639loPI   C6A10220   7.974   3.560   6.602  0.1405 -0.0714  0.2922
  639loPI   C1B10221   6.925   3.001   8.397  0.2042  0.0305 -0.0438
  639loPI   C2B10222   6.930   3.079   7.931 -0.1277  0.1620 -0.3347
  639loPI   C3B10223   6.789   3.242   7.531  0.0391 -0.1630 -0.0264
  639loPI   C4B10224   6.944   3.195   7.055 -0.0477  0.1081 -0.2276
  640loPI    C110225  19.083  13.874   9.771 -0.0528  0.0404 -0.0698
  640loPI    C210226  18.867  14.176   9.920 -0.1615 -0.1052  0.0716
  640loPI    C310227  19.261  14.160   9.987 -0.1815 -0.0779  0.1976
  640loPI   PO410228  18.938  13.856   9.471  0.0460 -0.0410  0.2920
  640loPI   GL110229  19.078  13.704   9.063 -0.1469 -0.1652  0.1146
  640loPI   GL210230  19.295  13.504   8.794 -0.0482 -0.2962 -0.1080
  640loPI   C1A10231  18.955  13.872   8.719  0.2009 -0.0815  0.1392
  640loPI   C2A10232  18.970  13.955   8.228  0.2832 -0.0751  0.0214
  640loPI   C3A10233  18.884  14.104   7.781  0.2032  0.2153 -0.1323
  640loPI   C4A10234  18.728  14.238   7.419 -0.0678 -0.1158  0.0872
  640loPI   C5A10235  18.395  14.146   7.221  0.0036  0.0403 -0.1508
  640loPI   C6A10236  18.084  13.770   7.126  0.0752 -0.2717 -0.1992
  640loPI   C1B10237  19.270  13.495   8.337 -0.1332  0.1998 -0.1701
  640loPI   C2B10238  19.155  13.537   7.971  0.3220 -0.0146 -0.1205
  640loPI   C3B10239  18.866  13.466   7.645 -0.3094 -0.0432 -0.2343
  640loPI   C4B10240  18.738  13.746   7.301  0.0293 -0.0188 -0.1501
  641loPI    C110241   2.617   8.295   8.991  0.0197 -0.1101 -0.1436
  641loPI    C210242   2.547   8.072   9.315 -0.1138 -0.0531 -0.1324
  641loPI    C310243   2.463   8.463   9.320  0.1099 -0.0031 -0.1554
  641loPI   PO410244   2.620   8.144   8.797 -0.1429  0.0750  0.2666
  641loPI   GL110245   2.430   7.912   8.508  0.1168  0.0752  0.0635
  641loPI   GL210246   2.714   7.816   8.417  0.3839  0.1288  0.0922
  641loPI   C1A10247   2.333   8.080   8.187  0.0343  0.2709  0.0624
  641loPI   C2A10248   2.265   8.094   7.854  0.1889  0.2139  0.0755
  641loPI   C3A10249   2.094   8.236   7.431  0.1804 -0.2302  0.2204
  641loPI   C4A10250   1.953   8.370   7.072 -0.3346  0.0551 -0.3246
  641loPI   C5A10251   1.670   8.311   6.626  0.0462  0.0911  0.0307
  641loPI   C6A10252   1.622   8.419   6.201  0.1340  0.0805  0.0143
  641loPI   C1B10253   2.783   7.961   8.001 -0.2588 -0.0519 -0.1944
  641loPI   C2B10254   2.922   7.815   7.630  0.1625  0.0862 -0.1484
  641loPI   C3B10255   2.887   7.838   7.228  0.3593  0.1443 -0.0645
  641loPI   C4B10256   2.713   7.785   6.802 -0.1194  0.0391 -0.1689
  642loPI    C110257  14.720  11.460   9.721 -0.2620 -0.1113  0.0303
  642loPI    C210258  14.959  11.190   9.893 -0.1728  0.0768  0.2057
  642loPI    C310259  14.669  11.366  10.106 -0.2116  0.1407  0.1007
  642loPI   PO410260  14.579  11.307   9.447 -0.2110 -0.0882  0.0979
  642loPI   GL110261  14.643  11.006   9.072 -0.0003  0.0558  0.0103
  642loPI   GL210262  14.873  10.811   9.021 -0.2389 -0.0750 -0.1356
  642loPI   C1A10263  14.417  10.914   8.676  0.0969 -0.0051  0.4496
  642loPI   C2A10264  13.933  11.091   8.610  0.1018  0.3741  0.3267
  642loPI   C3A10265  13.994  11.257   8.185  0.1757 -0.0493  0.2571
  642loPI   C4A10266  14.230  11.225   7.793 -0.1341  0.0331 -0.1189
  642loPI   C5A10267  14.444  11.243   7.366  0.0812  0.1814  0.1589
  642loPI   C6A10268  14.768  10.999   7.580  0.1312 -0.1084 -0.1875
  642loPI   C1B10269  14.865  10.693   8.579  0.1163 -0.0997 -0.0659
  642loPI   C2B10270  14.826  10.903   8.121  0.1619  0.0324  0.1266
  642loPI   C3B10271  14.882  11.424   8.025  0.2728  0.0035  0.2519
  642loPI   C4B10272  15.162  11.639   7.719 -0.3339 -0.0617 -0.1326
  643loPI    C110273   3.233   8.737   9.058 -0.2944 -0.2776 -0.0257
  643loPI    C210274   2.959   8.955   9.252 -0.2266 -0.0430 -0.1889
  643loPI    C310275   2.983   8.561   9.316 -0.1833  0.0324  0.3023
  643loPI   PO410276   3.184   8.889   8.780  0.0208  0.1046 -0.3191
  643loPI   GL110277   3.063   8.641   8.367  0.0371  0.2440 -0.0348
  643loPI   GL210278   3.038   8.264   8.305  0.2381  0.0492 -0.2218
  643loPI   C1A10279   3.422   8.794   8.147 -0.5833 -0.2603 -0.1322
  643loPI   C2A10280   3.641   8.854   7.672 -0.1861  0.0214 -0.0260
  643loPI   C3A10281   3.563   9.271   7.366  0.1384 -0.0329  0.1272
  643loPI   C4A10282   3.528   9.712   7.218  0.3464  0.2079 -0.0646
  643loPI   C5A10283   3.295   9.906   6.889  0.0794  0.0292  0.1322
  643loPI   C6A10284   2.919   9.735   6.784  0.0664 -0.1147 -0.0511
  643loPI   C1B10285   3.101   8.453   7.875 -0.2774  0.2983 -0.4321
  643loPI   C2B10286   3.253   8.575   7.465  0.1964 -0.0046 -0.0673
  643loPI   C3B10287   3.419   8.755   7.230 -0.2904  0.1021  0.0811
  643loPI   C4B10288   3.570   8.938   6.879 -0.0004 -0.1750  0.0379
  644loPI    C110289  16.073  10.471  10.054  0.1245  0.0396 -0.0510
  644loPI    C210290  16.194  10.768  10.292  0.1918  0.0839 -0.1399
  644loPI    C310291  16.141  10.401  10.442 -0.0371  0.1729  0.0021
  644loPI   PO410292  16.163  10.576   9.829  0.1819  0.0903 -0.0374
  644loPI   GL110293  16.168  10.421   9.460  0.0384 -0.0973 -0.0829
  644loPI   GL210294  15.827  10.319   9.363  0.0262 -0.0906 -0.2691
  644loPI   C1A10295  16.183  10.659   9.047 -0.2118 -0.2032 -0.2792
  644loPI   C2A10296  16.209  10.666   8.585  0.0977  0.1070 -0.4893
  644loPI   C3A10297  16.167  10.717   8.040 -0.0503  0.0809  0.1498
  644loPI   C4A10298  16.230  10.662   7.600 -0.1683 -0.0930 -0.2420
  644loPI   C5A10299  16.126  10.524   7.224  0.1225 -0.0789  0.0858
  644loPI   C6A10300  16.183  10.285   6.924  0.1515 -0.4652  0.0354
  644loPI   C1B10301  15.562  10.223   9.039 -0.1464 -0.0217 -0.0463
  644loPI   C2B10302  15.524  10.214   8.562 -0.4260 -0.0450 -0.2671
  644loPI   C3B10303  15.530  10.152   8.085 -0.0859 -0.0632 -0.2901
  644loPI   C4B10304  15.439  10.307   7.719  0.2070  0.0850  0.3444
  645loPI    C110305   9.234   4.917   9.051  0.1028  0.1604  0.0438
  645loPI    C210306   9.007   4.763   9.342 -0.0173  0.1648 -0.0468
  645loPI    C310307   8.896   5.101   9.159  0.0199  0.1221 -0.1483
  645loPI   PO410308   9.412   4.952   9.038  0.2804 -0.0286 -0.2151
  645loPI   GL110309   9.657   5.131   8.730  0.2426 -0.2065 -0.1463
  645loPI   GL210310  10.009   5.223   8.799 -0.2719  0.2699  0.2484
  645loPI   C1A10311   9.677   4.999   8.250  0.0956  0.0234 -0.2588
  645loPI   C2A10312   9.996   5.159   7.887 -0.1831 -0.0302  0.0891
  645loPI   C3A10313   9.958   5.146   7.511 -0.1701  0.2090  0.0924
  645loPI   C4A10314  10.033   4.709   7.402  0.3408 -0.0217 -0.1183
  645loPI   C5A10315  10.233   4.522   7.073  0.1672 -0.0995 -0.0796
  645loPI   C6A10316  10.609   4.296   6.857 -0.0214 -0.3310 -0.1497
  645loPI   C1B10317  10.241   5.288   8.438 -0.0231 -0.0565 -0.0599
  645loPI   C2B10318  10.425   5.431   8.012  0.0653  0.1210  0.1089
  645loPI   C3B10319  10.434   5.535   7.574 -0.2278  0.0093  0.0076
  645loPI   C4B10320  10.374   5.643   7.144 -0.0836 -0.0345 -0.1140
  646loPI    C110321   5.629   3.748   9.094 -0.0541  0.2237  0.1217
  646loPI    C210322   5.443   3.520   9.364  0.0309  0.0932  0.0711
  646loPI    C310323   5.843   3.529   9.351  0.0276  0.0005 -0.1310
  646loPI   PO410324   5.480   3.662   8.888  0.3329 -0.1657  0.1722
  646loPI   GL110325   5.468   3.365   8.573  0.0434  0.1872 -0.0287
  646loPI   GL210326   5.187   3.638   8.467 -0.0336 -0.2206  0.4215
  646loPI   C1A10327   5.649   3.432   8.173  0.0092  0.1382  0.0455
  646loPI   C2A10328   5.652   3.233   7.752  0.3174 -0.0679  0.1026
  646loPI   C3A10329   5.681   3.115   7.277  0.0234 -0.0661 -0.0644
  646loPI   C4A10330   5.440   3.240   6.942  0.4947  0.2504 -0.1176
  646loPI   C5A10331   5.173   3.540   6.736  0.0183 -0.2095 -0.3695
  646loPI   C6A10332   4.860   3.811   6.976  0.2260  0.2217  0.1983
  646loPI   C1B10333   4.754   3.658   8.127 -0.1940  0.0234  0.1890
  646loPI   C2B10334   4.631   3.563   7.769 -0.0888 -0.0090  0.2601
  646loPI   C3B10335   4.552   3.623   7.339 -0.0834 -0.2126  0.2563
  646loPI   C4B10336   4.343   3.875   6.983  0.1327  0.1383 -0.4065
  647loPI    C110337   6.170   0.074   8.972 -0.0886  0.2469  0.0255
  647loPI    C210338   6.035   0.123   9.345  0.0444  0.0355  0.1036
  647loPI    C310339   6.375  -0.077   9.281  0.0582  0.1298 -0.1269
  647loPI   PO410340   5.978  -0.050   8.778 -0.0175  0.4872  0.0388
  647loPI   GL110341   5.663   0.036   8.391  0.1037 -0.0230 -0.1030
  647loPI   GL210342   5.815  -0.248   8.234  0.1868 -0.1809 -0.2204
  647loPI   C1A10343   6.009   0.226   8.189  0.0603 -0.1473 -0.2211
  647loPI   C2A10344   6.165   0.310   7.696 -0.0175  0.0571  0.0445
  647loPI   C3A10345   6.337   0.522   7.233 -0.0368 -0.0998 -0.1921
  647loPI   C4A10346   6.543   0.779   6.959 -0.0300 -0.1386  0.2061
  647loPI   C5A10347   6.799   1.069   6.733  0.2955  0.1243  0.3303
  647loPI   C6A10348   6.546   1.459   6.442 -0.1197  0.0673  0.1899
  647loPI   C1B10349   5.770  -0.229   7.822  0.0942 -0.1455  0.1964
  647loPI   C2B10350   5.629  -0.284   7.436 -0.0107 -0.0918 -0.3520
  647loPI   C3B10351   5.507  -0.123   7.072 -0.1800  0.0185  0.1548
  647loPI   C4B10352   5.282  -0.147   6.637  0.2505 -0.0885  0.2558
  648loPI    C110353   8.557  16.331   9.576 -0.0676  0.1382 -0.3549
  648loPI    C210354   8.670  16.697   9.691 -0.1138  0.0080  0.1268
  648loPI    C310355   8.897  16.381   9.781 -0.1486 -0.1004 -0.1575
  648loPI   PO410356   8.533  16.311   9.305  0.1693 -0.1175  0.1796
  648loPI   GL110357   8.581  16.385   8.857 -0.0572 -0.1752 -0.0513
  648loPI   GL210358   8.288  16.315   8.805 -0.0427  0.0896 -0.1026
  648loPI   C1A10359   8.694  16.596   8.457 -0.0100  0.2473 -0.2866
  648loPI   C2A10360   8.814  16.383   8.083 -0.2354  0.2724 -0.3350
  648loPI   C3A10361   8.920  16.280   7.633 -0.0491 -0.0704 -0.1392
  648loPI   C4A10362   8.985  16.395   7.350  0.2550 -0.4380  0.0671
  648loPI   C5A10363   8.969  16.411   6.940  0.1374 -0.2969 -0.1032
  648loPI   C6A10364   9.167  16.560   6.545  0.1279 -0.0270  0.2182
  648loPI   C1B10365   8.367  16.287   8.309 -0.0215  0.2916 -0.3278
  648loPI   C2B10366   8.334  16.258   7.801 -0.0852  0.3305 -0.3230
  648loPI   C3B10367   8.340  16.047   7.291 -0.4704 -0.0800 -0.1926
  648loPI   C4B10368   8.576  16.016   6.950  0.1508  0.1539 -0.2297
  649loPI    C110369   9.551   2.619   9.712  0.0044  0.1022 -0.0115
  649loPI    C210370   9.843   2.722   9.966 -0.1830  0.2010  0.1675
  649loPI    C310371   9.477   2.639  10.105 -0.2070 -0.0565 -0.0413
  649loPI   PO410372   9.698   2.654   9.467  0.1206 -0.0291  0.1631
  649loPI   GL110373   9.698   2.482   9.084 -0.3561 -0.1629  0.0819
  649loPI   GL210374   9.386   2.690   8.920 -0.0384  0.2024 -0.1088
  649loPI   C1A10375   9.982   2.431   8.784 -0.1378  0.1672  0.1716
  649loPI   C2A10376  10.005   2.309   8.415 -0.2003  0.3200 -0.0313
  649loPI   C3A10377  10.054   2.366   8.017 -0.0285 -0.2249  0.3415
  649loPI   C4A10378   9.907   2.347   7.621  0.1833  0.1175 -0.0234
  649loPI   C5A10379   9.872   2.067   7.246  0.0294  0.0477  0.4399
  649loPI   C6A10380   9.881   1.932   6.812  0.2839  0.0615  0.2223
  649loPI   C1B10381   9.368   2.620   8.567 -0.0542 -0.0776  0.0858
  649loPI   C2B10382   9.514   2.448   8.103  0.2917  0.1295  0.1185
  649loPI   C3B10383   9.413   2.505   7.653 -0.1323 -0.3860 -0.2594
  649loPI   C4B10384   9.574   2.497   7.265 -0.1678  0.0168  0.1799
  650loPI    C110385   2.983  14.374   9.135 -0.0966 -0.2793  0.0141
  650loPI    C210386   3.253  14.081   9.165  0.1974 -0.0393 -0.2221
  650loPI    C310387   3.311  14.426   9.358 -0.1184 -0.1105  0.0084
  650loPI   PO410388   2.959  14.427   8.898 -0.0341 -0.0565  0.2036
  650loPI   GL110389   3.131  14.477   8.500 -0.1439  0.1113 -0.1748
  650loPI   GL210390   3.377  14.309   8.450 -0.0857 -0.1439  0.0433
  650loPI   C1A10391   2.926  14.221   8.174 -0.1664  0.0107 -0.3801
  650loPI   C2A10392   2.919  14.249   7.633  0.2039 -0.0090 -0.0651
  650loPI   C3A10393   3.058  14.240   7.189  0.1807 -0.3368  0.1111
  650loPI   C4A10394   3.264  14.308   6.826 -0.0060 -0.1150  0.4138
  650loPI   C5A10395   3.336  14.651   6.572 -0.2640  0.2081 -0.0387
  650loPI   C6A10396   3.108  14.696   6.143 -0.0498  0.0793  0.1962
  650loPI   C1B10397   3.380  14.084   8.050 -0.0808  0.0282 -0.0934
  650loPI   C2B10398   3.423  14.215   7.616  0.0035 -0.3505  0.2204
  650loPI   C3B10399   3.473  14.556   7.335  0.0440 -0.1467  0.0520
  650loPI   C4B10400   3.216  14.863   7.016  0.1400  0.1998  0.3078
  651loPI    C110401   3.732   4.392   9.245 -0.0831  0.0557  0.0758
  651loPI    C210402   3.535   4.054   9.327 -0.2771  0.0254 -0.4803
  651loPI    C310403   3.927   4.043   9.250 -0.1938 -0.0089 -0.0731
  651loPI   PO410404   3.735   4.500   8.997 -0.0643  0.0362  0.2444
  651loPI   GL110405   3.822   4.659   8.704 -0.1715  0.1247  0.1587
  651loPI   GL210406   4.184   4.514   8.686  0.1497 -0.2162  0.0113
  651loPI   C1A10407   3.861   4.685   8.345 -0.2621 -0.2854  0.1950
  651loPI   C2A10408   3.823   4.813   7.873 -0.0010  0.0303  0.1027
  651loPI   C3A10409   3.901   4.699   7.501  0.0464 -0.0353  0.3165
  651loPI   C4A10410   3.875   4.591   6.924  0.1496  0.4525 -0.0616
  651loPI   C5A10411   3.641   4.377   6.552  0.1050 -0.0915  0.0620
  651loPI   C6A10412   3.229   4.557   6.432 -0.1849  0.1263 -0.2901
  651loPI   C1B10413   4.066   4.253   8.269  0.1836  0.0220  0.2229
  651loPI   C2B10414   4.063   4.133   7.746 -0.0343  0.0262  0.0583
  651loPI   C3B10415   3.960   4.204   7.313  0.2454  0.3142 -0.2574
  651loPI   C4B10416   3.898   4.071   6.870 -0.1272 -0.0634  0.2371
  652loPI    C110417  11.898  11.601   9.333 -0.0596  0.0680 -0.0441
  652loPI    C210418  11.927  11.565   9.731  0.2907 -0.1143 -0.0821
  652loPI    C310419  12.012  11.914   9.555 -0.2276  0.0782  0.0299
  652loPI   PO410420  11.652  11.556   9.277 -0.0153 -0.1332  0.1953
  652loPI   GL110421  11.522  11.631   8.901 -0.1125  0.1306 -0.0044
  652loPI   GL210422  11.494  11.834   8.814  0.2666  0.0727 -0.1186
  652loPI   C1A10423  11.596  11.527   8.423 -0.0486 -0.0054 -0.0835
  652loPI   C2A10424  11.601  11.649   7.932 -0.0289  0.0488 -0.1680
  652loPI   C3A10425  11.566  11.917   7.565  0.1293  0.0908  0.1763
  652loPI   C4A10426  11.484  12.054   7.161 -0.3760 -0.2731 -0.0567
  652loPI   C5A10427  11.190  11.900   6.952 -0.1303 -0.0452 -0.0892
  652loPI   C6A10428  10.855  11.698   6.765 -0.2411  0.2187 -0.1282
  652loPI   C1B10429  11.247  11.910   8.441  0.3113  0.1932 -0.0070
  652loPI   C2B10430  11.263  12.012   8.065  0.0820 -0.3258  0.0545
  652loPI   C3B10431  11.122  12.168   7.605  0.0296  0.2483 -0.1674
  652loPI   C4B10432  11.021  12.336   7.273 -0.0032 -0.0619 -0.0584
  653loPI    C110433  14.840   7.396   9.969  0.1202 -0.0845  0.1007
  653loPI    C210434  14.486   7.396  10.155  0.1701  0.3008  0.2051
  653loPI    C310435  14.806   7.551  10.336  0.4147 -0.1191  0.1445
  653loPI   PO410436  14.812   7.447   9.688 -0.1014 -0.0689  0.1413
  653loPI   GL110437  15.006   7.327   9.247  0.1014  0.2245 -0.0010
  653loPI   GL210438  14.983   7.698   9.196  0.1906 -0.0373  0.1428
  653loPI   C1A10439  14.995   7.300   8.849 -0.0968 -0.1185 -0.0063
  653loPI   C2A10440  14.856   7.128   8.480  0.1900 -0.2888  0.0902
  653loPI   C3A10441  14.965   7.159   7.997 -0.2497 -0.0374 -0.3219
  653loPI   C4A10442  14.848   7.244   7.644  0.1928 -0.2745  0.3300
  653loPI   C5A10443  14.652   7.299   7.316 -0.0472 -0.3286 -0.2189
  653loPI   C6A10444  14.817   7.528   7.019 -0.0382 -0.1010  0.0007
  653loPI   C1B10445  15.060   7.880   8.741  0.0240 -0.0428  0.2946
  653loPI   C2B10446  15.113   8.033   8.351 -0.0502 -0.2162 -0.0026
  653loPI   C3B10447  15.226   7.992   7.943  0.2146 -0.0841  0.2380
  653loPI   C4B10448  15.273   7.989   7.500  0.1975 -0.0359  0.5037
  654loPI    C110449   8.118  15.805   8.728  0.0997  0.2958 -0.2063
  654loPI    C210450   7.772  15.753   8.923  0.1767 -0.1830 -0.1860
  654loPI    C310451   8.065  15.970   9.089 -0.0192  0.0141 -0.0925
  654loPI   PO410452   8.289  15.559   8.701 -0.2135  0.3217  0.0144
  654loPI   GL110453   8.129  15.175   8.575  0.0949 -0.3163  0.0327
  654loPI   GL210454   7.802  15.360   8.655  0.1206 -0.2375  0.1487
  654loPI   C1A10455   7.948  15.215   8.185  0.4142 -0.2048  0.0226
  654loPI   C2A10456   7.904  15.126   7.726 -0.1536  0.0206  0.2566
  654loPI   C3A10457   7.829  15.187   7.275  0.3018  0.3638 -0.1810
  654loPI   C4A10458   7.490  15.281   6.879 -0.1525  0.1343 -0.4978
  654loPI   C5A10459   7.495  15.685   6.731 -0.0861  0.0052  0.1205
  654loPI   C6A10460   7.738  16.039   6.639 -0.0965 -0.1807 -0.5275
  654loPI   C1B10461   7.608  15.651   8.280  0.0260 -0.1681  0.0843
  654loPI   C2B10462   7.676  15.586   7.830  0.1355 -0.0596 -0.2141
  654loPI   C3B10463   8.021  15.601   7.554 -0.0083 -0.2232 -0.0052
  654loPI   C4B10464   8.407  15.546   7.312  0.2323 -0.2788  0.1730
  655loPI    C110465  19.786   6.555   9.436 -0.1388 -0.2109 -0.0977
  655loPI    C210466  19.456   6.552   9.662  0.1332 -0.1243  0.3118
  655loPI    C310467  19.794   6.713   9.804  0.2868  0.0224 -0.2005
  655loPI   PO410468  19.697   6.690   9.192 -0.1134 -0.1735 -0.0230
  655loPI   GL110469  19.500   6.837   8.903 -0.1248  0.1985  0.1102
  655loPI   GL210470  19.366   6.548   8.847 -0.1539  0.1894 -0.1168
  655loPI   C1A10471  19.330   6.955   8.544 -0.0261 -0.0231  0.1709
  655loPI   C2A10472  19.180   6.829   8.278  0.0205  0.0496 -0.2157
  655loPI   C3A10473  18.866   6.921   7.945 -0.2462 -0.1159  0.2242
  655loPI   C4A10474  18.373   7.036   7.665  0.1923  0.1917  0.2161
  655loPI   C5A10475  18.049   7.110   7.433 -0.2151 -0.3114  0.2887
  655loPI   C6A10476  17.642   6.946   7.260 -0.0335  0.2217 -0.3179
  655loPI   C1B10477  19.350   6.386   8.407 -0.2212 -0.2130  0.0643
  655loPI   C2B10478  19.361   6.455   8.011  0.2430 -0.2630  0.2223
  655loPI   C3B10479  19.243   6.325   7.595  0.2213  0.2588 -0.3706
  655loPI   C4B10480  19.545   6.291   7.182  0.5008 -0.1057  0.1382
  656loPI    C110481  10.607  13.339   9.471  0.2581  0.0669 -0.2429
  656loPI    C210482  10.749  13.391   9.841  0.3948  0.1079 -0.3007
  656loPI    C310483  10.660  13.023   9.711  0.2621  0.1026 -0.1967
  656loPI   PO410484  10.672  13.598   9.314 -0.0038 -0.0935  0.0560
  656loPI   GL110485  10.928  13.738   8.975  0.3250  0.2196 -0.1756
  656loPI   GL210486  11.145  13.630   9.086 -0.3094  0.1903  0.0797
  656loPI   C1A10487  10.896  13.634   8.513 -0.0308  0.3060  0.0492
  656loPI   C2A10488  10.804  13.340   8.122  0.2789 -0.2649  0.1807
  656loPI   C3A10489  10.768  13.357   7.771 -0.2652 -0.1628 -0.0180
  656loPI   C4A10490  10.858  13.320   7.302 -0.0182  0.0465 -0.2860
  656loPI   C5A10491  10.534  13.181   6.962 -0.0827 -0.1444  0.2143
  656loPI   C6A10492  10.158  13.158   6.682 -0.1122  0.0882 -0.0098
  656loPI   C1B10493  11.431  13.822   8.758 -0.1680 -0.0448  0.3972
  656loPI   C2B10494  11.719  14.125   8.500  0.0543 -0.0463 -0.1586
  656loPI   C3B10495  12.007  14.039   8.211  0.0121  0.0593 -0.0469
  656loPI   C4B10496  12.170  13.909   7.832  0.0160 -0.1214  0.4060
  657loPI    C110497  13.313   6.909   9.457 -0.4419  0.0205 -0.0014
  657loPI    C210498  13.226   6.627   9.727 -0.4699 -0.1186 -0.1539
  657loPI    C310499  13.182   7.014   9.820 -0.4172 -0.1629  0.0616
  657loPI   PO410500  13.063   6.719   9.197 -0.1298  0.1380 -0.1177
  657loPI   GL110501  12.802   6.833   8.874 -0.2333  0.2126  0.0483
  657loPI   GL210502  12.583   6.950   8.767  0.2443  0.0149 -0.0269
  657loPI   C1A10503  13.032   7.095   8.550  0.0001 -0.4992 -0.1210
  657loPI   C2A10504  13.088   7.579   8.296 -0.1942  0.0781  0.2063
  657loPI   C3A10505  13.070   7.440   7.851 -0.0907  0.0945 -0.4448
  657loPI   C4A10506  13.138   7.553   7.384  0.1418  0.1204  0.0325
  657loPI   C5A10507  12.881   7.681   7.190 -0.0595 -0.0846  0.0596
  657loPI   C6A10508  12.572   8.010   7.274 -0.0792 -0.0896  0.0583
  657loPI   C1B10509  12.611   6.817   8.388  0.3209  0.3359  0.0704
  657loPI   C2B10510  12.795   6.949   8.053  0.2168 -0.0209  0.1915
  657loPI   C3B10511  12.889   7.006   7.577 -0.0405  0.2014 -0.0218
  657loPI   C4B10512  12.866   7.149   7.207  0.3368 -0.1495 -0.1929
  658loPI    C110513   1.381  15.061   9.449  0.0136 -0.2262 -0.0377
  658loPI    C210514   1.411  15.329   9.744 -0.3244 -0.1114 -0.1022
  658loPI    C310515   1.722  15.094   9.654 -0.0553  0.1905  0.0192
  658loPI   PO410516   1.310  15.211   9.291 -0.0042 -0.0303 -0.2712
  658loPI   GL110517   1.327  15.329   8.924 -0.2649 -0.0493 -0.0309
  658loPI   GL210518   0.987  15.346   8.982  0.0809 -0.0120  0.1709
  658loPI   C1A10519   1.511  15.092   8.602  0.3156 -0.1889 -0.2885
  658loPI   C2A10520   1.630  15.038   8.130  0.1544  0.0471  0.0314
  658loPI   C3A10521   1.674  14.851   7.704  0.0850 -0.0560  0.2977
  658loPI   C4A10522   1.686  14.676   7.252  0.0887  0.0291 -0.1511
  658loPI   C5A10523   1.517  14.519   6.879  0.1555  0.1326  0.0290
  658loPI   C6A10524   1.118  14.324   6.731  0.2935 -0.0448  0.0390
  658loPI   C1B10525   0.823  15.417   8.616 -0.0273  0.1217 -0.1066
  658loPI   C2B10526   0.759  15.266   8.214 -0.2472 -0.0923  0.1922
  658loPI   C3B10527   0.809  15.224   7.655  0.1023 -0.0055 -0.2260
  658loPI   C4B10528   0.893  15.182   7.230 -0.1462  0.2628  0.3727
  659loPI    C110529   8.766   1.371   9.403  0.1844  0.2987  0.1075
  659loPI    C210530   8.519   1.498   9.690  0.0347 -0.0662  0.1457
  659loPI    C310531   8.370   1.346   9.351  0.2103  0.3260 -0.1146
  659loPI   PO410532   8.894   1.413   9.198  0.0064 -0.2724 -0.1412
  659loPI   GL110533   9.191   1.165   8.958 -0.1096  0.0214  0.2415
  659loPI   GL210534   8.940   1.148   8.725  0.0008  0.3230  0.0384
  659loPI   C1A10535   9.372   0.911   8.686 -0.1239  0.0254 -0.4753
  659loPI   C2A10536   9.526   0.699   8.298  0.1235  0.0244 -0.2191
  659loPI   C3A10537   9.732   0.354   8.129 -0.1924  0.2115  0.0806
  659loPI   C4A10538   9.874   0.325   7.771  0.1758  0.0140  0.4651
  659loPI   C5A10539   9.889   0.284   7.306 -0.2466 -0.2194 -0.1167
  659loPI   C6A10540   9.691   0.260   6.864  0.4300  0.3405 -0.1353
  659loPI   C1B10541   9.096   1.173   8.377 -0.0195 -0.1558 -0.1478
  659loPI   C2B10542   9.024   1.164   7.993  0.0361  0.1716 -0.0252
  659loPI   C3B10543   8.997   1.368   7.633 -0.1800  0.0617  0.3858
  659loPI   C4B10544   9.219   1.564   7.301  0.2442  0.0816 -0.2361
  660loPI    C110545   0.309   8.738   9.537  0.0984 -0.0305 -0.1653
  660loPI    C210546   0.525   9.053   9.657  0.0918 -0.0462 -0.1119
  660loPI    C310547   0.471   8.742   9.903 -0.1324  0.0300 -0.0619
  660loPI   PO410548   0.365   8.769   9.198 -0.0574  0.4222 -0.1740
  660loPI   GL110549   0.138   8.904   8.715  0.0484 -0.4562 -0.0180
  660loPI   GL210550  -0.060   8.665   8.648  0.1932  0.1568  0.2132
  660loPI   C1A10551  -0.115   9.198   8.387  0.0881 -0.0671 -0.0607
  660loPI   C2A10552  -0.170   9.231   8.110 -0.4678  0.2117  0.1098
  660loPI   C3A10553  -0.241   9.116   7.693 -0.1201 -0.3688 -0.1899
  660loPI   C4A10554  -0.227   9.090   7.311 -0.0099 -0.1790  0.1132
  660loPI   C5A10555  -0.024   9.082   6.952 -0.1989  0.1314 -0.0998
  660loPI   C6A10556  -0.054   9.185   6.545 -0.2010  0.0873 -0.0617
  660loPI   C1B10557  -0.224   8.309   8.347 -0.2844 -0.1229  0.1863
  660loPI   C2B10558  -0.536   8.234   7.947  0.2050 -0.0260  0.0298
  660loPI   C3B10559  -0.773   8.318   7.649  0.1498 -0.2244 -0.0361
  660loPI   C4B10560  -1.104   8.368   7.348 -0.0496  0.0096 -0.4446
  661loPI    C110561  18.108  18.869   9.456 -0.1786 -0.1159 -0.2186
  661loPI    C210562  17.958  19.045   9.130 -0.4056  0.0515 -0.0278
  661loPI    C310563  17.723  18.978   9.446 -0.1629 -0.0156  0.1412
  661loPI   PO410564  18.442  18.991   9.367 -0.0831  0.1121 -0.2906
  661loPI   GL110565  18.546  19.035   8.990  0.1608  0.0507 -0.1471
  661loPI   GL210566  18.264  19.036   8.723  0.0888  0.0058  0.0687
  661loPI   C1A10567  18.630  18.693   8.631 -0.0714  0.2139  0.0137
  661loPI   C2A10568  18.678  18.639   8.066 -0.0773  0.0397 -0.1852
  661loPI   C3A10569  18.579  18.726   7.637  0.0876 -0.1140 -0.3137
  661loPI   C4A10570  18.190  18.865   7.396 -0.0004 -0.1636 -0.1950
  661loPI   C5A10571  17.708  18.775   7.227  0.3553 -0.0783  0.2391
  661loPI   C6A10572  17.496  19.204   7.220  0.1209 -0.0316 -0.1054
  661loPI   C1B10573  17.858  19.185   8.605 -0.0733 -0.3309  0.4085
  661loPI   C2B10574  17.549  18.995   8.231 -0.0926  0.1774 -0.0355
  661loPI   C3B10575  17.348  19.106   7.795  0.2903  0.2602  0.2593
  661loPI   C4B10576  17.074  19.241   7.535 -0.0369 -0.1505 -0.2440
  662loPI    C110577  16.431  13.124   9.563 -0.2570  0.1337  0.1220
  662loPI    C210578  16.255  12.793   9.702  0.0278 -0.0477  0.0577
  662loPI    C310579  16.431  13.047   9.956 -0.1669  0.0424  0.1044
  662loPI   PO410580  16.324  13.182   9.411  0.2606  0.2050 -0.1721
  662loPI   GL110581  16.179  13.408   9.133 -0.2317  0.1234 -0.3046
  662loPI   GL210582  16.491  13.576   9.099  0.1592 -0.1859  0.0546
  662loPI   C1A10583  16.030  13.279   8.779 -0.1496  0.1089 -0.1978
  662loPI   C2A10584  15.903  12.712   8.664 -0.0908 -0.3981 -0.1468
  662loPI   C3A10585  15.860  12.448   8.298 -0.1112  0.1252 -0.2759
  662loPI   C4A10586  15.785  12.559   7.970  0.0872  0.1719  0.0241
  662loPI   C5A10587  15.941  12.834   7.735 -0.1335  0.0223 -0.0772
  662loPI   C6A10588  15.813  13.116   7.413 -0.1449  0.3504 -0.1570
  662loPI   C1B10589  16.436  13.562   8.649 -0.2696  0.0436 -0.1391
  662loPI   C2B10590  16.242  13.487   8.284  0.3191  0.0386  0.3267
  662loPI   C3B10591  16.044  13.505   7.903 -0.0689  0.0687  0.2118
  662loPI   C4B10592  16.037  13.604   7.482 -0.0864 -0.0003  0.0708
  663loPI    C110593  11.722   5.039   9.213 -0.0219  0.0882  0.0953
  663loPI    C210594  12.000   4.855   9.433  0.2628  0.1932 -0.1690
  663loPI    C310595  11.814   4.657   9.139 -0.1174  0.0529  0.1568
  663loPI   PO410596  11.845   5.225   9.210 -0.1804 -0.0703 -0.2464
  663loPI   GL110597  12.135   5.427   8.956  0.1960  0.1422  0.0724
  663loPI   GL210598  12.000   5.673   8.812  0.1442 -0.0947 -0.1942
  663loPI   C1A10599  12.319   5.131   8.687 -0.0831 -0.1302  0.1385
  663loPI   C2A10600  12.479   5.059   8.182 -0.1099 -0.3964 -0.3342
  663loPI   C3A10601  12.392   4.785   7.787  0.1065 -0.1073 -0.0999
  663loPI   C4A10602  12.241   4.881   7.358 -0.1595 -0.0487  0.0058
  663loPI   C5A10603  12.154   4.975   6.933  0.1932  0.0073 -0.2068
  663loPI   C6A10604  12.195   4.898   6.537  0.2606  0.4219  0.1268
  663loPI   C1B10605  12.186   5.533   8.424 -0.1253 -0.0096  0.2461
  663loPI   C2B10606  12.271   5.486   7.971  0.0001 -0.1481  0.0309
  663loPI   C3B10607  12.417   5.298   7.669 -0.3000 -0.0829 -0.0799
  663loPI   C4B10608  12.601   5.423   7.259  0.0357 -0.1114  0.1882
  664loPI    C110609   6.999  17.677   9.243 -0.0386  0.0449 -0.1640
  664loPI    C210610   6.766  18.002   9.252 -0.1815 -0.0612  0.0785
  664loPI    C310611   6.922  17.858   9.591  0.0265 -0.1430 -0.0500
  664loPI   PO410612   7.140  17.711   8.972 -0.0330 -0.2122 -0.1779
  664loPI   GL110613   7.037  17.931   8.527  0.1714 -0.1102 -0.1028
  664loPI   GL210614   7.151  17.855   8.250 -0.0378 -0.1320  0.1375
  664loPI   C1A10615   6.704  18.094   8.240  0.2201  0.0615 -0.1148
  664loPI   C2A10616   6.644  18.297   7.836 -0.1175  0.0824 -0.0525
  664loPI   C3A10617   6.678  18.275   7.440 -0.0454 -0.3144  0.0242
  664loPI   C4A10618   6.418  18.352   7.039 -0.0456 -0.1230  0.3472
  664loPI   C5A10619   6.245  18.442   6.668 -0.0377 -0.3672 -0.2642
  664loPI   C6A10620   6.108  18.766   6.571  0.2641  0.1389 -0.1474
  664loPI   C1B10621   7.192  18.150   7.943 -0.1862 -0.0390  0.3487
  664loPI   C2B10622   7.311  18.219   7.558 -0.2257  0.0428 -0.2761
  664loPI   C3B10623   7.408  18.200   7.124 -0.3024 -0.0200 -0.1419
  664loPI   C4B10624   7.527  18.100   6.671  0.1817 -0.0746  0.1858
  665loPI    C110625   1.961  13.464   9.321  0.1312 -0.3847  0.0983
  665loPI    C210626   2.195  13.297   9.599  0.0978 -0.0678  0.3226
  665loPI    C310627   1.828  13.423   9.696 -0.0531 -0.2819  0.0457
  665loPI   PO410628   1.883  13.403   9.090 -0.1107  0.2675 -0.3035
  665loPI   GL110629   1.815  13.157   8.666  0.0229  0.1484  0.4041
  665loPI   GL210630   1.491  13.079   8.672  0.2425 -0.1167  0.2763
  665loPI   C1A10631   1.791  13.337   8.266  0.1654 -0.0918  0.2717
  665loPI   C2A10632   1.759  13.176   7.781 -0.6311  0.0011  0.1809
  665loPI   C3A10633   1.723  13.262   7.419 -0.1654 -0.2882 -0.0889
  665loPI   C4A10634   1.821  13.189   7.023 -0.0325  0.0385  0.1398
  665loPI   C5A10635   1.587  13.091   6.591  0.0265 -0.1606  0.2430
  665loPI   C6A10636   1.200  13.035   6.215  0.0154  0.1053  0.0444
  665loPI   C1B10637   1.486  12.935   8.263  0.0471  0.1916 -0.0762
  665loPI   C2B10638   1.825  12.832   8.154 -0.0350 -0.3682 -0.1040
  665loPI   C3B10639   2.222  13.044   8.073  0.2189  0.4119 -0.0623
  665loPI   C4B10640   2.600  13.349   7.934  0.1062 -0.1010 -0.0994
  666loPI    C110641  18.483   9.791   9.524 -0.0451 -0.0490 -0.2168
  666loPI    C210642  18.346   9.769   9.899  0.2452 -0.0238 -0.1069
  666loPI    C310643  18.652   9.539   9.784  0.3590  0.1907 -0.2390
  666loPI   PO410644  18.435   9.934   9.393 -0.0790 -0.1614 -0.2426
  666loPI   GL110645  18.341   9.874   9.067  0.1425 -0.0164 -0.0580
  666loPI   GL210646  18.129   9.578   8.988  0.1118 -0.0237 -0.0284
  666loPI   C1A10647  18.404   9.891   8.622 -0.2339  0.0997 -0.1755
  666loPI   C2A10648  18.439   9.778   8.196 -0.1266  0.0560  0.2599
  666loPI   C3A10649  18.379   9.854   7.809  0.1847  0.1110  0.1941
  666loPI   C4A10650  18.289   9.996   7.385 -0.1181 -0.1065  0.1780
  666loPI   C5A10651  18.184  10.048   7.081  0.1798  0.0729 -0.0482
  666loPI   C6A10652  17.980   9.725   6.755 -0.0404  0.0673  0.3970
  666loPI   C1B10653  18.084   9.478   8.535  0.0967 -0.0778 -0.2170
  666loPI   C2B10654  18.092   9.417   8.050 -0.4396  0.4077 -0.0217
  666loPI   C3B10655  17.991   9.364   7.657  0.0863 -0.1485 -0.0223
  666loPI   C4B10656  18.021   9.589   7.261 -0.2371  0.1339  0.0455
  667loPI    C110657  18.541  11.749   9.330 -0.3291 -0.1366 -0.0194
  667loPI    C210658  18.152  11.663   9.297 -0.3393 -0.2253  0.3018
  667loPI    C310659  18.317  11.707   9.659 -0.0472 -0.2001  0.1680
  667loPI   PO410660  18.564  11.467   9.168  0.0033  0.4081  0.1470
  667loPI   GL110661  18.821  11.407   8.783  0.1417  0.0588  0.1300
  667loPI   GL210662  18.689  11.106   8.867 -0.0945 -0.1006  0.1439
  667loPI   C1A10663  18.581  11.353   8.324  0.1198  0.0566 -0.2229
  667loPI   C2A10664  18.608  11.441   7.866  0.2745 -0.1659 -0.0354
  667loPI   C3A10665  18.325  11.244   7.570 -0.4336  0.2770 -0.1078
  667loPI   C4A10666  18.137  10.980   7.249 -0.4411  0.0379  0.1168
  667loPI   C5A10667  17.742  10.978   7.013 -0.1463  0.2079  0.0098
  667loPI   C6A10668  17.274  11.111   7.117  0.0586 -0.0146 -0.3420
  667loPI   C1B10669  18.250  11.067   8.570  0.0599 -0.0674  0.3337
  667loPI   C2B10670  17.817  10.990   8.295 -0.2805 -0.1953  0.0049
  667loPI   C3B10671  17.705  10.853   7.910 -0.1444 -0.3043  0.0700
  667loPI   C4B10672  17.692  10.826   7.489  0.1427 -0.2152 -0.3279
  668loPI    C110673   4.747   7.379   9.426  0.0166 -0.3432 -0.0142
  668loPI    C210674   4.955   7.170   9.696  0.1473 -0.0566  0.1114
  668loPI    C310675   4.760   7.502   9.806  0.0689 -0.0253 -0.1157
  668loPI   PO410676   4.728   7.116   9.194  0.1551  0.1057 -0.0745
  668loPI   GL110677   5.029   7.059   8.801  0.0642 -0.1593  0.1192
  668loPI   GL210678   5.100   6.670   8.801 -0.2070  0.0118  0.1993
  668loPI   C1A10679   5.309   7.013   8.452 -0.2458  0.3165  0.4667
  668loPI   C2A10680   5.588   6.954   8.057 -0.3429 -0.0851  0.0304
  668loPI   C3A10681   5.700   6.751   7.754 -0.0353 -0.3579 -0.3182
  668loPI   C4A10682   5.621   6.864   7.322  0.1058  0.2787 -0.2326
  668loPI   C5A10683   5.473   6.669   6.895 -0.1617  0.0379  0.4194
  668loPI   C6A10684   5.395   6.442   6.509 -0.1150 -0.1314  0.3027
  668loPI   C1B10685   5.033   6.614   8.433  0.0099 -0.1301 -0.2115
  668loPI   C2B10686   5.285   6.473   8.027 -0.0702  0.0813 -0.1240
  668loPI   C3B10687   5.145   6.280   7.651  0.0090  0.1301  0.0422
  668loPI   C4B10688   5.046   6.380   7.241 -0.1054 -0.2786 -0.1564
  669loPI    C110689   6.333   2.022   9.481  0.0260 -0.1678 -0.0214
  669loPI    C210690   6.685   1.894   9.621  0.1602  0.1970 -0.0139
  669loPI    C310691   6.361   1.888   9.856  0.1164 -0.3043 -0.0763
  669loPI   PO410692   6.373   2.227   9.354  0.2045 -0.0247 -0.4409
  669loPI   GL110693   6.242   2.353   8.958  0.2696 -0.2371  0.2826
  669loPI   GL210694   6.503   2.397   8.770  0.2562 -0.1134 -0.0751
  669loPI   C1A10695   6.087   2.449   8.510  0.0037 -0.2806 -0.0132
  669loPI   C2A10696   5.910   2.424   8.104 -0.0816 -0.1421  0.0084
  669loPI   C3A10697   5.813   2.222   7.733 -0.0004  0.3528 -0.2106
  669loPI   C4A10698   5.813   2.155   7.273  0.0766 -0.0438 -0.2857
  669loPI   C5A10699   5.974   2.283   6.865 -0.3823  0.4255  0.0463
  669loPI   C6A10700   6.317   2.403   6.594  0.1976  0.1910  0.3895
  669loPI   C1B10701   6.488   2.734   8.480  0.1615 -0.1472 -0.0878
  669loPI   C2B10702   6.501   2.910   8.018  0.1298 -0.0366  0.1728
  669loPI   C3B10703   6.460   2.904   7.732  0.0931 -0.0090 -0.0451
  669loPI   C4B10704   6.465   2.969   7.363 -0.1190 -0.2364 -0.1428
  670loPI    C110705  19.558   0.889   9.581 -0.0352 -0.0381 -0.1066
  670loPI    C210706  19.790   0.895   9.907  0.0434  0.0074 -0.1630
  670loPI    C310707  19.392   0.907   9.944  0.0594  0.4167 -0.0801
  670loPI   PO410708  19.757   0.820   9.354 -0.1156  0.4321 -0.1385
  670loPI   GL110709  20.064   0.874   8.981 -0.3719 -0.1278 -0.2733
  670loPI   GL210710  20.319   1.064   8.813 -0.0122  0.2653 -0.1839
  670loPI   C1A10711  19.983   0.756   8.584 -0.2418  0.1481  0.0555
  670loPI   C2A10712  19.712   0.799   8.306  0.3801 -0.2091 -0.3920
  670loPI   C3A10713  19.493   0.810   7.920 -0.0877  0.1433 -0.0378
  670loPI   C4A10714  19.675   1.003   7.486  0.3184 -0.0378 -0.1000
  670loPI   C5A10715  19.635   1.194   7.107  0.3603  0.1983 -0.0195
  670loPI   C6A10716  19.956   1.493   6.981 -0.2030  0.3200 -0.3182
  670loPI   C1B10717  19.982   1.180   8.445 -0.0921 -0.0763  0.0360
  670loPI   C2B10718  19.865   1.191   7.954  0.1094 -0.1269  0.1502
  670loPI   C3B10719  19.703   1.537   7.723  0.2622  0.4010  0.0765
  670loPI   C4B10720  19.750   1.988   7.604 -0.3414  0.1272  0.1612
  671loPI    C110721  17.635   2.138   9.878  0.1837  0.0861  0.0303
  671loPI    C210722  17.881   1.837   9.975  0.1080  0.0274  0.0412
  671loPI    C310723  17.847   2.154  10.217 -0.2617 -0.2285  0.3347
  671loPI   PO410724  17.490   2.049   9.753  0.0727 -0.1002 -0.3734
  671loPI   GL110725  17.418   1.910   9.348  0.1849  0.0728 -0.1293
  671loPI   GL210726  17.194   1.672   9.205  0.1054 -0.2495  0.0430
  671loPI   C1A10727  17.248   2.096   9.000 -0.0763  0.0080 -0.1226
  671loPI   C2A10728  17.435   2.157   8.627  0.1760  0.2230 -0.3162
  671loPI   C3A10729  17.746   2.156   8.393  0.2385 -0.0161  0.1222
  671loPI   C4A10730  17.998   2.023   8.107 -0.0587 -0.0443  0.0731
  671loPI   C5A10731  17.923   2.075   7.590 -0.1089 -0.1263 -0.0678
  671loPI   C6A10732  17.940   2.232   7.147 -0.0526 -0.0340  0.4887
  671loPI   C1B10733  17.177   1.659   8.758  0.1991 -0.0505  0.1769
  671loPI   C2B10734  17.081   1.685   8.299  0.5644  0.0243  0.1676
  671loPI   C3B10735  17.044   1.700   7.843 -0.1697 -0.1206 -0.1730
  671loPI   C4B10736  16.827   1.828   7.597 -0.0829 -0.3156 -0.0852
  672loPI    C110737  18.746  10.996   9.355 -0.0217 -0.0975  0.1266
  672loPI    C210738  18.894  10.880   9.708  0.1662 -0.0597  0.0614
  672loPI    C310739  18.555  10.718   9.571  0.0552 -0.0253  0.2896
  672loPI   PO410740  19.021  11.035   9.201 -0.1495 -0.2234  0.0623
  672loPI   GL110741  19.265  11.301   8.939  0.0556  0.1476  0.2254
  672loPI   GL210742  19.307  11.015   8.795  0.2493  0.1500 -0.3237
  672loPI   C1A10743  19.088  11.203   8.443  0.0846  0.0242  0.0708
  672loPI   C2A10744  19.081  11.171   8.098  0.0731  0.3185 -0.2992
  672loPI   C3A10745  19.018  11.346   7.640 -0.0421  0.0165 -0.4068
  672loPI   C4A10746  19.250  11.375   7.258  0.0782 -0.2055  0.1947
  672loPI   C5A10747  19.349  11.500   6.748  0.3381 -0.1387 -0.0453
  672loPI   C6A10748  19.456  11.706   6.394  0.2720 -0.4393  0.3957
  672loPI   C1B10749  19.217  10.708   8.552  0.1357  0.3089 -0.0119
  672loPI   C2B10750  19.076  10.429   8.300 -0.1591  0.0414  0.3145
  672loPI   C3B10751  18.903  10.485   7.952 -0.0522 -0.1174 -0.1260
  672loPI   C4B10752  19.010  10.479   7.479 -0.0444  0.4423 -0.0920
  673loPI    C110753  11.890  16.964   9.359  0.0474  0.0421  0.1810
  673loPI    C210754  11.684  17.295   9.449 -0.1340 -0.0356  0.0587
  673loPI    C310755  11.970  17.164   9.696 -0.1652  0.1270  0.1828
  673loPI   PO410756  11.990  17.053   9.056  0.0912 -0.0562  0.1107
  673loPI   GL110757  12.051  16.869   8.790 -0.1183  0.0167 -0.1700
  673loPI   GL210758  12.288  16.671   8.724 -0.3726  0.0371  0.3405
  673loPI   C1A10759  11.934  16.800   8.411 -0.0759 -0.0580 -0.0930
  673loPI   C2A10760  12.102  16.810   7.897 -0.0252  0.1607  0.0749
  673loPI   C3A10761  12.311  16.713   7.587 -0.1554 -0.0618 -0.1870
  673loPI   C4A10762  12.672  16.865   7.126  0.1255  0.0175  0.3760
  673loPI   C5A10763  12.737  17.124   6.801  0.1573  0.0893  0.2409
  673loPI   C6A10764  13.045  17.122   6.451  0.0401  0.2387  0.0783
  673loPI   C1B10765  12.426  16.621   8.331 -0.1005  0.0712 -0.0349
  673loPI   C2B10766  12.685  16.618   7.891  0.1207 -0.3020  0.0637
  673loPI   C3B10767  12.937  16.413   7.482  0.1702 -0.2557  0.0333
  673loPI   C4B10768  12.705  16.378   7.204  0.1972 -0.0886 -0.1632
  674loPI    C110769   9.940   5.819   9.422 -0.3665 -0.1586 -0.0597
  674loPI    C210770   9.983   5.618   9.765 -0.1753  0.1604  0.1082
  674loPI    C310771   9.617   5.697   9.624 -0.2532 -0.1470  0.1311
  674loPI   PO410772  10.145   5.681   9.291 -0.2561  0.0453  0.0874
  674loPI   GL110773  10.299   5.662   8.912  0.1128 -0.2924  0.0377
  674loPI   GL210774  10.598   5.956   8.772  0.2359 -0.0268 -0.0614
  674loPI   C1A10775  10.118   5.732   8.670  0.0335 -0.2490 -0.1015
  674loPI   C2A10776   9.976   5.641   8.252 -0.1543  0.3126  0.0841
  674loPI   C3A10777   9.919   5.754   7.821  0.4382  0.0120  0.0457
  674loPI   C4A10778   9.693   5.694   7.402  0.0195 -0.2733  0.1569
  674loPI   C5A10779   9.917   5.406   7.082 -0.1916  0.1787  0.1178
  674loPI   C6A10780  10.267   5.193   7.144  0.0185  0.0426 -0.3089
  674loPI   C1B10781  10.509   5.871   8.391  0.1323 -0.2356  0.0645
  674loPI   C2B10782  10.411   5.936   7.961 -0.0700  0.2581 -0.0520
  674loPI   C3B10783  10.510   6.095   7.538  0.4075  0.2121  0.3269
  674loPI   C4B10784  10.394   6.372   7.203 -0.3189 -0.0683 -0.0359
  675loPI    C110785  12.827  19.450   9.706 -0.1260  0.1844  0.0611
  675loPI    C210786  13.112  19.262   9.497 -0.1265  0.1900  0.0553
  675loPI    C310787  13.047  19.164   9.879 -0.1318  0.1734  0.0503
  675loPI   PO410788  12.829  19.629   9.538  0.1345 -0.2291  0.3407
  675loPI   GL110789  12.776  19.846   9.061 -0.0504  0.2641 -0.5909
  675loPI   GL210790  12.543  20.047   8.982  0.1959 -0.2657 -0.2988
  675loPI   C1A10791  12.914  19.843   8.624 -0.1472  0.4121  0.2312
  675loPI   C2A10792  13.122  19.941   8.217  0.1791  0.1304 -0.0529
  675loPI   C3A10793  13.422  19.858   7.829  0.3663 -0.0363 -0.1603
  675loPI   C4A10794  13.885  19.889   7.680 -0.0612 -0.0303 -0.0682
  675loPI   C5A10795  14.042  19.754   7.179 -0.0129  0.2428 -0.1096
  675loPI   C6A10796  14.508  19.590   7.076  0.1985 -0.3237 -0.3152
  675loPI   C1B10797  12.421  20.080   8.577 -0.0023  0.6124 -0.0311
  675loPI   C2B10798  12.540  19.915   8.158 -0.4480 -0.2137  0.0016
  675loPI   C3B10799  12.339  19.996   7.883  0.2139 -0.1342 -0.2355
  675loPI   C4B10800  12.361  20.069   7.455  0.0352  0.0329 -0.0565
  676loPI    C110801   4.192  12.079   9.215 -0.1334 -0.0240 -0.0116
  676loPI    C210802   4.527  11.990   9.416  0.0947  0.0489 -0.3504
  676loPI    C310803   4.215  12.152   9.608  0.2074 -0.1282 -0.0088
  676loPI   PO410804   4.277  12.314   8.979 -0.1354 -0.0824  0.1559
  676loPI   GL110805   4.223  12.447   8.538 -0.1461  0.0456  0.1101
  676loPI   GL210806   4.008  12.188   8.290 -0.0162 -0.1600  0.0551
  676loPI   C1A10807   4.326  12.705   8.211 -0.0339  0.1254  0.0004
  676loPI   C2A10808   4.431  12.798   7.870  0.4797 -0.3899  0.0032
  676loPI   C3A10809   4.443  13.198   7.547 -0.2463  0.0405  0.1880
  676loPI   C4A10810   4.444  13.321   7.244 -0.1641 -0.0037  0.2665
  676loPI   C5A10811   4.577  13.549   6.867  0.0551  0.0624  0.3122
  676loPI   C6A10812   4.838  13.480   6.509 -0.1260 -0.0141 -0.2282
  676loPI   C1B10813   3.987  12.262   7.913 -0.1201  0.2253 -0.2353
  676loPI   C2B10814   4.112  12.212   7.567 -0.0437 -0.2344  0.0633
  676loPI   C3B10815   4.109  11.923   7.037 -0.0735  0.0673 -0.1742
  676loPI   C4B10816   4.131  11.572   6.741  0.2178 -0.1146 -0.1094
  677PSPI    C110817  14.299  16.548   5.339 -0.1512  0.2941  0.0807
  677PSPI    C210818  14.481  16.294   5.090 -0.1897  0.0707  0.2778
  677PSPI    C310819  14.245  16.581   4.944 -0.1990 -0.0480  0.0554
  677PSPI   PO410820  14.211  16.385   5.549  0.1587 -0.0588  0.4065
  677PSPI   GL110821  14.299  16.315   5.945 -0.0810  0.1531  0.1822
  677PSPI   GL210822  14.617  16.230   5.963  0.0709 -0.1789 -0.2800
  677PSPI   C1A10823  14.292  16.512   6.260 -0.0843 -0.0382  0.4319
  677PSPI   C2A10824  14.297  16.696   6.645 -0.3991  0.1279 -0.0668
  677PSPI   C3A10825  14.051  16.912   6.854 -0.0624 -0.0937  0.1006
  677PSPI   C4A10826  13.620  16.759   6.854 -0.1489 -0.3353  0.0877
  677PSPI   C1B10827  14.630  16.713   5.969  0.2500 -0.2313  0.2587
  677PSPI   C2B10828  15.018  16.968   5.963  0.1839  0.3272  0.0414
  677PSPI   C3B10829  15.181  17.324   5.848  0.1895  0.1494 -0.0093
  677PSPI   C4B10830  15.087  17.753   5.863  0.0421 -0.5422 -0.3080
  678PSPI    C110831  13.021  11.320   4.899 -0.1994  0.1118  0.0169
  678PSPI    C210832  12.863  11.502   4.580  0.0714  0.2404 -0.0461
  678PSPI    C310833  13.227  11.605   4.710  0.0025  0.1229  0.2486
  678PSPI   PO410834  12.941  11.081   5.008  0.2799 -0.0874 -0.0652
  678PSPI   GL110835  13.213  11.028   5.409  0.1881 -0.0717 -0.1387
  678PSPI   GL210836  12.940  10.944   5.495  0.0302 -0.0975 -0.1186
  678PSPI   C1A10837  13.415  10.953   5.782  0.1873 -0.1952 -0.0153
  678PSPI   C2A10838  13.690  11.097   6.114  0.1147  0.2483  0.1414
  678PSPI   C3A10839  13.914  11.206   6.558 -0.1407  0.2247  0.1134
  678PSPI   C4A10840  14.125  11.473   6.891 -0.1235  0.2127  0.3413
  678PSPI   C1B10841  12.872  11.142   5.815  0.3119  0.0825  0.0566
  678PSPI   C2B10842  13.125  11.155   6.211  0.1345 -0.0251  0.2024
  678PSPI   C3B10843  13.048  11.361   6.543  0.2344 -0.0577  0.0650
  678PSPI   C4B10844  12.729  11.600   6.660 -0.0652 -0.1014 -0.0344
  679PSPI    C110845   6.665   0.765   4.885  0.3902  0.0728  0.0274
  679PSPI    C210846   6.831   1.026   4.632  0.1492  0.2488  0.0471
  679PSPI    C310847   6.448   0.920   4.586  0.2109 -0.0094  0.1130
  679PSPI   PO410848   6.763   0.791   5.105  0.1350 -0.0546  0.1184
  679PSPI   GL110849   6.817   0.951   5.517 -0.1386  0.1545  0.1125
  679PSPI   GL210850   6.433   1.021   5.533  0.1051  0.0089  0.0123
  679PSPI   C1A10851   7.009   0.630   5.744  0.2290 -0.3147  0.1567
  679PSPI   C2A10852   7.353   0.359   5.915 -0.0198  0.3589 -0.5873
  679PSPI   C3A10853   7.615   0.034   5.791 -0.2301  0.3073  0.1629
  679PSPI   C4A10854   7.483  -0.329   5.716 -0.0116  0.1710 -0.0065
  679PSPI   C1B10855   6.221   0.828   5.799  0.0490 -0.2047  0.1881
  679PSPI   C2B10856   5.961   0.797   6.173 -0.1776 -0.0098  0.0604
  679PSPI   C3B10857   5.745   0.759   6.495 -0.1476 -0.1665  0.0128
  679PSPI   C4B10858   5.393   0.818   6.641  0.1237  0.2603  0.1305
  680PSPI    C110859   3.733  16.286   4.624  0.2687  0.5473  0.1528
  680PSPI    C210860   3.471  16.552   4.481  0.0347  0.2188 -0.0424
  680PSPI    C310861   3.762  16.412   4.245  0.1265  0.2626  0.0445
  680PSPI   PO410862   3.704  16.351   4.841  0.1331 -0.0790 -0.0010
  680PSPI   GL110863   3.892  16.587   5.097  0.2746  0.0692 -0.0494
  680PSPI   GL210864   3.890  16.917   5.231  0.1810  0.1519  0.1118
  680PSPI   C1A10865   4.259  16.345   5.392 -0.1582  0.0236  0.0175
  680PSPI   C2A10866   4.437  16.380   5.785 -0.1623 -0.0855  0.0402
  680PSPI   C3A10867   4.494  16.709   6.080  0.1564  0.1472 -0.1150
  680PSPI   C4A10868   4.592  17.026   5.932  0.2578 -0.0991  0.2058
  680PSPI   C1B10869   3.749  17.059   5.637 -0.0496  0.0697 -0.0954
  680PSPI   C2B10870   3.508  16.909   5.942  0.0294  0.1986 -0.1984
  680PSPI   C3B10871   3.538  16.483   6.278 -0.1202  0.0971  0.0519
  680PSPI   C4B10872   3.803  16.108   6.437  0.3055 -0.3851 -0.0825
  681PSPI    C110873  18.040   4.112   5.106 -0.0702 -0.1405  0.0547
  681PSPI    C210874  18.109   3.983   4.733  0.1012  0.2005 -0.0358
  681PSPI    C310875  17.796   4.221   4.807 -0.1183 -0.1225  0.1004
  681PSPI   PO410876  18.236   4.257   5.150  0.4603  0.1241  0.1163
  681PSPI   GL110877  18.500   4.365   5.550 -0.1979 -0.1998  0.1110
  681PSPI   GL210878  18.422   4.561   5.737  0.2721  0.0470 -0.3411
  681PSPI   C1A10879  18.283   4.110   5.756  0.1558  0.1507 -0.0124
  681PSPI   C2A10880  18.027   4.113   6.019 -0.1071 -0.0555  0.1119
  681PSPI   C3A10881  17.932   4.028   6.550 -0.2351 -0.0999  0.0870
  681PSPI   C4A10882  18.095   3.757   6.972  0.2655  0.2936 -0.0264
  681PSPI   C1B10883  18.633   4.408   6.006 -0.1028  0.1034  0.1538
  681PSPI   C2B10884  18.630   4.063   6.191  0.0428 -0.0318 -0.0749
  681PSPI   C3B10885  18.243   3.730   6.281  0.0612 -0.2072  0.0619
  681PSPI   C4B10886  17.801   3.651   6.287  0.0264 -0.4261  0.1834
  682PSPI    C110887  16.931  19.730   5.224  0.3732  0.1312  0.4225
  682PSPI    C210888  17.264  19.786   5.009  0.0682  0.0317 -0.0920
  682PSPI    C310889  16.923  19.966   4.902 -0.1053 -0.0619  0.2842
  682PSPI   PO410890  17.057  19.616   5.489 -0.1778  0.0839 -0.0671
  682PSPI   GL110891  17.241  19.938   5.787 -0.0780  0.1484  0.0463
  682PSPI   GL210892  17.459  19.899   5.598  0.1371 -0.0002 -0.1583
  682PSPI   C1A10893  17.055  19.721   6.127  0.0706 -0.3508 -0.0543
  682PSPI   C2A10894  16.998  19.577   6.546 -0.1984 -0.0932 -0.0740
  682PSPI   C3A10895  17.239  19.205   6.797  0.0445 -0.2969 -0.1830
  682PSPI   C4A10896  17.522  18.902   6.728 -0.1804  0.0891 -0.1941
  682PSPI   C1B10897  17.708  19.792   5.977  0.2191  0.0493  0.0759
  682PSPI   C2B10898  17.551  19.618   6.314 -0.0176 -0.1037 -0.1351
  682PSPI   C3B10899  17.687  19.443   6.827  0.3097 -0.2090  0.1078
  682PSPI   C4B10900  17.995  19.163   7.030  0.3413  0.0007  0.0208
  683PSPI    C110901   6.327  11.327   5.167 -0.0068  0.0415 -0.1275
  683PSPI    C210902   6.447  11.236   4.796 -0.0662  0.1265 -0.1680
  683PSPI    C310903   6.641  11.516   5.006  0.0096  0.0302 -0.1087
  683PSPI   PO410904   6.228  11.145   5.245 -0.4808 -0.1238  0.1068
  683PSPI   GL110905   6.100  11.086   5.599 -0.0364 -0.1670 -0.4087
  683PSPI   GL210906   5.777  11.122   5.471 -0.1571 -0.1438 -0.1917
  683PSPI   C1A10907   6.104  11.350   5.972  0.1784 -0.4333  0.3470
  683PSPI   C2A10908   5.961  11.684   6.153  0.0887  0.0917  0.1644
  683PSPI   C3A10909   6.079  12.046   6.541 -0.4221 -0.2000  0.2735
  683PSPI   C4A10910   6.232  12.388   6.719  0.2896 -0.1965 -0.0161
  683PSPI   C1B10911   5.605  11.474   5.636 -0.2596  0.0900 -0.0799
  683PSPI   C2B10912   5.485  11.449   6.048 -0.1479 -0.0969  0.0868
  683PSPI   C3B10913   5.571  11.337   6.321  0.1615  0.2015 -0.2417
  683PSPI   C4B10914   5.856  11.429   6.617 -0.2538 -0.3023  0.2796
  684PSPI    C110915  16.013   0.779   5.304 -0.1689 -0.0490 -0.2131
  684PSPI    C210916  16.411   0.779   5.338 -0.1728  0.0078 -0.1680
  684PSPI    C310917  16.233   1.021   5.074 -0.1623 -0.2045 -0.3734
  684PSPI   PO410918  16.045   0.448   5.393 -0.3074  0.0698  0.2941
  684PSPI   GL110919  15.935   0.223   5.778 -0.1418  0.0501 -0.0720
  684PSPI   GL210920  15.930  -0.093   5.759  0.4603 -0.0212 -0.1784
  684PSPI   C1A10921  15.840   0.348   6.173  0.1654  0.0760  0.0189
  684PSPI   C2A10922  16.050   0.519   6.542 -0.0420 -0.3531 -0.3065
  684PSPI   C3A10923  16.197   0.662   6.868  0.0204 -0.3661 -0.1980
  684PSPI   C4A10924  16.165   0.588   7.253 -0.0369 -0.1457 -0.3267
  684PSPI   C1B10925  15.923  -0.148   6.220 -0.2562 -0.1408 -0.0690
  684PSPI   C2B10926  16.170   0.072   6.508 -0.1069  0.0538 -0.2477
  684PSPI   C3B10927  16.318   0.172   6.811 -0.0017  0.0455 -0.2296
  684PSPI   C4B10928  16.397   0.045   7.159 -0.0226  0.3375  0.2909
  685PSPI    C110929  15.516   4.441   4.952 -0.0284  0.1934  0.0417
  685PSPI    C210930  15.236   4.156   4.985  0.1453  0.0528  0.3464
  685PSPI    C310931  15.255   4.381   4.655 -0.1757 -0.0945  0.2235
  685PSPI   PO410932  15.534   4.510   5.221  0.1360  0.1088  0.2911
  685PSPI   GL110933  15.617   4.302   5.564 -0.0260 -0.0214  0.1715
  685PSPI   GL210934  15.356   4.483   5.713 -0.5660  0.1121 -0.0656
  685PSPI   C1A10935  15.935   4.319   5.856  0.1058 -0.2714 -0.0795
  685PSPI   C2A10936  16.251   4.326   6.273  0.0398 -0.0546 -0.1133
  685PSPI   C3A10937  16.096   4.397   6.614  0.2963 -0.2210 -0.3218
  685PSPI   C4A10938  16.341   4.265   6.891 -0.1852 -0.0478  0.0972
  685PSPI   C1B10939  15.404   4.444   6.167 -0.3801  0.0259  0.2004
  685PSPI   C2B10940  15.642   4.537   6.586 -0.3557  0.0472  0.0968
  685PSPI   C3B10941  15.736   4.855   6.878 -0.0712  0.0369  0.5041
  685PSPI   C4B10942  15.561   4.918   7.214 -0.0170 -0.2110  0.0539
  686PSPI    C110943  12.355   5.540   4.933 -0.0393 -0.0303 -0.0194
  686PSPI    C210944  12.592   5.706   5.210 -0.0849  0.1285 -0.0746
  686PSPI    C310945  12.594   5.846   4.835 -0.0825 -0.0334 -0.1356
  686PSPI   PO410946  12.065   5.488   5.126  0.0579 -0.1020  0.0335
  686PSPI   GL110947  11.652   5.405   5.403 -0.1295 -0.2273  0.1106
  686PSPI   GL210948  11.506   5.706   5.488 -0.1182  0.1699  0.1145
  686PSPI   C1A10949  11.768   5.123   5.842  0.2075  0.4231  0.2155
  686PSPI   C2A10950  11.783   4.733   6.134  0.1700 -0.1923  0.3001
  686PSPI   C3A10951  11.666   4.445   6.523  0.1156  0.0765 -0.3774
  686PSPI   C4A10952  11.470   4.208   6.866  0.4093  0.2277 -0.0090
  686PSPI   C1B10953  11.453   6.010   5.812  0.0434  0.0616 -0.1364
  686PSPI   C2B10954  11.578   6.503   5.866  0.0253 -0.0050  0.0610
  686PSPI   C3B10955  11.875   6.766   6.160  0.0546  0.0741  0.0614
  686PSPI   C4B10956  12.110   6.883   6.602 -0.0159 -0.1331 -0.1188
  687PSPI    C110957   4.454   8.153   4.480 -0.0547  0.1158  0.0117
  687PSPI    C210958   4.771   7.909   4.464 -0.1269  0.0283 -0.0970
  687PSPI    C310959   4.816   8.300   4.391 -0.0072  0.0520  0.0982
  687PSPI   PO410960   4.414   8.136   4.728  0.1596  0.1194  0.0208
  687PSPI   GL110961   4.436   8.079   5.243  0.2367  0.0691  0.3338
  687PSPI   GL210962   4.435   8.416   5.170 -0.0398  0.1246 -0.0793
  687PSPI   C1A10963   3.942   8.103   5.242  0.0472 -0.3978  0.2555
  687PSPI   C2A10964   3.526   8.209   5.538  0.0273 -0.1805  0.1108
  687PSPI   C3A10965   3.377   8.166   5.999  0.2173 -0.3408 -0.0305
  687PSPI   C4A10966   3.130   7.947   6.331 -0.2658 -0.0023 -0.2358
  687PSPI   C1B10967   4.651   8.434   5.555  0.2116  0.0652  0.0707
  687PSPI   C2B10968   4.948   8.367   5.913  0.4730 -0.2109  0.3066
  687PSPI   C3B10969   4.763   8.432   6.269 -0.0377 -0.1041 -0.2143
  687PSPI   C4B10970   4.486   8.079   6.461 -0.0590  0.1377  0.2284
  688PSPI    C110971  11.295  13.859   5.040 -0.1511 -0.0999  0.0677
  688PSPI    C210972  11.661  14.018   5.064 -0.1287 -0.1545  0.0910
  688PSPI    C310973  11.368  14.154   5.300 -0.2725  0.2837 -0.3222
  688PSPI   PO410974  11.326  13.637   5.047  0.2412  0.0821  0.1671
  688PSPI   GL110975  11.070  13.398   5.303 -0.0865 -0.1421  0.0760
  688PSPI   GL210976  11.036  13.774   5.473  0.2755  0.1907 -0.1033
  688PSPI   C1A10977  10.777  13.368   5.540  0.0133 -0.1105  0.2433
  688PSPI   C2A10978  10.810  13.403   5.983  0.1092 -0.1224  0.3922
  688PSPI   C3A10979  10.877  13.462   6.433 -0.0661  0.0444 -0.0360
  688PSPI   C4A10980  10.925  13.564   6.892  0.0085  0.1184 -0.1256
  688PSPI   C1B10981  11.172  13.696   5.869  0.0122 -0.0973  0.2719
  688PSPI   C2B10982  11.552  13.611   6.108  0.2575  0.0991  0.0597
  688PSPI   C3B10983  11.773  13.251   6.123  0.1341 -0.1940 -0.0900
  688PSPI   C4B10984  12.047  13.056   5.792 -0.0844  0.2100 -0.2381
  689PSPI    C110985  11.653   2.260   4.605  0.3067  0.0572 -0.1577
  689PSPI    C210986  11.605   2.090   4.246  0.0980 -0.0191 -0.0954
  689PSPI    C310987  11.641   2.487   4.276  0.3372 -0.0298 -0.2191
  689PSPI   PO410988  11.526   2.001   4.806 -0.0318 -0.3117  0.1324
  689PSPI   GL110989  11.368   1.971   5.280 -0.1341  0.2760 -0.3287
  689PSPI   GL210990  11.266   2.173   5.478 -0.0562  0.0681  0.1683
  689PSPI   C1A10991  11.650   1.998   5.761  0.3499  0.3108  0.0349
  689PSPI   C2A10992  11.976   1.865   6.102 -0.0648 -0.2322  0.1519
  689PSPI   C3A10993  11.768   1.843   6.575 -0.2577  0.0191  0.2451
  689PSPI   C4A10994  11.700   1.658   6.971  0.0271 -0.1066  0.0311
  689PSPI   C1B10995  11.133   2.212   5.860 -0.1056 -0.1047  0.0408
  689PSPI   C2B10996  11.300   2.469   6.155  0.0602  0.2036 -0.0413
  689PSPI   C3B10997  11.257   2.917   6.489  0.3844 -0.0099 -0.1550
  689PSPI   C4B10998  11.071   2.924   6.894  0.3235  0.1683  0.0929
  690PSPI    C110999  17.246   6.868   4.855  0.0424 -0.1086  0.1883
  690PSPI    C211000  17.177   7.245   4.969  0.0008 -0.0876  0.0944
  690PSPI    C311001  17.043   7.115   4.615  0.1867 -0.1325  0.0395
  690PSPI   PO411002  17.169   6.718   5.140 -0.1378  0.2001 -0.1274
  690PSPI   GL111003  17.212   6.702   5.584 -0.3110  0.1340  0.0379
  690PSPI   GL211004  16.842   6.550   5.594 -0.2379  0.0986  0.0595
  690PSPI   C1A11005  17.333   6.466   5.924  0.2232 -0.0197 -0.0879
  690PSPI   C2A11006  17.776   6.354   6.019  0.2713 -0.3481  0.0343
  690PSPI   C3A11007  18.076   6.380   6.365 -0.1973  0.1111 -0.1202
  690PSPI   C4A11008  18.407   6.178   6.475 -0.0210  0.0783  0.3282
  690PSPI   C1B11009  16.865   6.637   5.992 -0.3174  0.0761 -0.0594
  690PSPI   C2B11010  17.151   6.778   6.312  0.1543 -0.2105 -0.0499
  690PSPI   C3B11011  17.273   7.077   6.347  0.3034  0.2202 -0.0587
  690PSPI   C4B11012  17.466   7.429   6.422 -0.0886 -0.3638 -0.2165
  691PSPI    C111013   0.191  18.350   4.974  0.1585  0.2851 -0.2927
  691PSPI    C211014  -0.177  18.389   4.824 -0.0289  0.2144  0.1334
  691PSPI    C311015   0.106  18.200   4.613 -0.2841  0.1084 -0.1213
  691PSPI   PO411016   0.114  18.641   5.146  0.4030 -0.0210 -0.2695
  691PSPI   GL111017   0.309  18.953   5.354  0.1379  0.0280  0.0456
  691PSPI   GL211018   0.211  19.220   5.417 -0.1111  0.0827  0.1213
  691PSPI   C1A11019   0.579  18.736   5.619  0.1566  0.0709  0.3280
  691PSPI   C2A11020   0.656  18.607   5.935 -0.1637 -0.1016  0.3757
  691PSPI   C3A11021   0.601  18.743   6.433  0.1897 -0.0176  0.0014
  691PSPI   C4A11022   0.399  18.862   6.779 -0.0379 -0.0091 -0.2539
  691PSPI   C1B11023   0.216  18.999   5.806  0.3835  0.3252  0.2201
  691PSPI   C2B11024   0.328  19.085   6.203 -0.0888  0.1314 -0.0302
  691PSPI   C3B11025   0.663  19.234   6.439 -0.1404 -0.1755 -0.1680
  691PSPI   C4B11026   1.012  19.504   6.561  0.0957 -0.0508 -0.0314
  692PSPI    C111027   3.690   4.469   4.793 -0.3282 -0.1595 -0.2583
  692PSPI    C211028   3.892   4.537   4.455 -0.0295 -0.0058 -0.0526
  692PSPI    C311029   4.030   4.272   4.720 -0.1312  0.0543  0.0612
  692PSPI   PO411030   3.520   4.746   4.914 -0.0575  0.1393  0.0955
  692PSPI   GL111031   3.365   4.777   5.220 -0.0400 -0.0720 -0.1293
  692PSPI   GL211032   3.149   5.056   5.202  0.2723  0.0932  0.0097
  692PSPI   C1A11033   3.520   4.986   5.590  0.0686  0.0184 -0.3340
  692PSPI   C2A11034   3.805   5.248   5.751  0.4353  0.3152  0.1016
  692PSPI   C3A11035   4.202   5.255   5.921  0.0144  0.5275 -0.0018
  692PSPI   C4A11036   4.270   5.122   6.320 -0.0233 -0.2708 -0.1103
  692PSPI   C1B11037   3.078   5.391   5.390 -0.3625 -0.1400 -0.0607
  692PSPI   C2B11038   2.989   5.799   5.572  0.0203 -0.0494 -0.3008
  692PSPI   C3B11039   3.253   6.049   5.727 -0.0729  0.0294 -0.1470
  692PSPI   C4B11040   3.581   5.972   6.074  0.2440 -0.1065  0.0906
  693PSPI    C111041  14.566   6.435   5.347 -0.2294  0.0310  0.0472
  693PSPI    C211042  14.377   6.476   4.997 -0.0083 -0.1208 -0.0929
  693PSPI    C311043  14.416   6.790   5.241 -0.0988  0.0044 -0.2377
  693PSPI   PO411044  14.484   6.203   5.448 -0.1774  0.1182  0.0052
  693PSPI   GL111045  14.352   6.080   5.822 -0.0299 -0.3935 -0.2781
  693PSPI   GL211046  14.631   6.195   6.141 -0.2767 -0.0477  0.1873
  693PSPI   C1A11047  14.008   5.904   6.131  0.0748  0.0583  0.2027
  693PSPI   C2A11048  13.763   5.747   6.521 -0.3451 -0.1285  0.0829
  693PSPI   C3A11049  13.436   5.468   6.636  0.1461 -0.0473 -0.1547
  693PSPI   C4A11050  13.018   5.575   6.945  0.4126  0.1520 -0.1006
  693PSPI   C1B11051  14.406   6.042   6.459  0.0128  0.0710 -0.1486
  693PSPI   C2B11052  14.065   6.121   6.726  0.1660  0.1440 -0.0116
  693PSPI   C3B11053  13.701   6.300   6.720  0.1017  0.0512  0.2594
  693PSPI   C4B11054  13.487   6.506   7.008 -0.4299 -0.2902 -0.1077
  694PSPI    C111055  13.945  19.559   4.592  0.2095 -0.0817 -0.0571
  694PSPI    C211056  13.979  19.918   4.420 -0.0646  0.0804  0.2186
  694PSPI    C311057  13.640  19.709   4.381  0.1401 -0.2082 -0.0478
  694PSPI   PO411058  14.119  19.580   4.873 -0.2130  0.0492 -0.1349
  694PSPI   GL111059  14.214  19.550   5.383  0.0272 -0.3734 -0.3361
  694PSPI   GL211060  14.151  19.217   5.347  0.1761 -0.2157 -0.1003
  694PSPI   C1A11061  13.970  19.396   5.795  0.3466  0.0092 -0.0193
  694PSPI   C2A11062  13.862  19.490   6.209 -0.0425  0.0641 -0.1481
  694PSPI   C3A11063  13.764  19.530   6.684 -0.1501  0.2472  0.1394
  694PSPI   C4A11064  13.513  19.698   7.015 -0.0400 -0.0326 -0.1604
  694PSPI   C1B11065  14.563  19.285   5.638 -0.1459 -0.0336 -0.1552
  694PSPI   C2B11066  14.754  19.200   5.962  0.0905 -0.2899 -0.1406
  694PSPI   C3B11067  14.735  19.154   6.488 -0.2669  0.1153  0.1326
  694PSPI   C4B11068  14.427  18.992   6.607 -0.2919 -0.2825  0.3184
  695PSPI    C111069   3.211   0.088   4.910  0.4103 -0.1723 -0.1643
  695PSPI    C211070   3.011   0.212   4.586 -0.2841  0.0364  0.3206
  695PSPI    C311071   3.402   0.287   4.620 -0.2473  0.2157 -0.3550
  695PSPI   PO411072   3.047   0.081   5.141 -0.2575 -0.3334  0.1061
  695PSPI   GL111073   3.175  -0.303   5.381 -0.0955  0.2637  0.1068
  695PSPI   GL211074   3.387  -0.258   5.589  0.1835  0.0995  0.0732
  695PSPI   C1A11075   2.990  -0.423   5.737 -0.3171  0.1370  0.4182
  695PSPI   C2A11076   3.068  -0.522   6.138 -0.0996 -0.2081  0.2357
  695PSPI   C3A11077   2.818  -0.770   6.403 -0.2013  0.5639 -0.1505
  695PSPI   C4A11078   2.960  -0.835   6.836  0.0982 -0.3320  0.1852
  695PSPI   C1B11079   3.516  -0.589   5.850  0.1858  0.2158 -0.0203
  695PSPI   C2B11080   3.559  -0.574   6.267  0.1494 -0.2689 -0.1667
  695PSPI   C3B11081   3.347  -0.524   6.602 -0.1389  0.0641 -0.1424
  695PSPI   C4B11082   3.382  -0.170   6.806 -0.1485 -0.2606 -0.1304
  696PSPI    C111083  15.040  17.702   4.669  0.1084  0.0081  0.1154
  696PSPI    C211084  15.280  17.676   4.350  0.1014  0.1432  0.0986
  696PSPI    C311085  15.016  17.386   4.426 -0.1300  0.2682 -0.2084
  696PSPI   PO411086  15.017  17.973   4.714  0.0232  0.2269  0.0214
  696PSPI   GL111087  14.804  18.137   5.050 -0.2590  0.1346  0.2183
  696PSPI   GL211088  14.610  18.383   5.302 -0.2360 -0.2441 -0.2845
  696PSPI   C1A11089  14.877  17.883   5.378  0.0848  0.1296 -0.0419
  696PSPI   C2A11090  14.625  17.793   5.716  0.1638 -0.0200  0.0387
  696PSPI   C3A11091  14.668  17.856   6.190  0.2798 -0.1936  0.1588
  696PSPI   C4A11092  14.932  17.585   6.275  0.1736  0.5260 -0.2467
  696PSPI   C1B11093  14.605  18.360   5.690 -0.2074 -0.2504 -0.0018
  696PSPI   C2B11094  14.927  18.725   5.780  0.2279  0.0503 -0.2147
  696PSPI   C3B11095  15.356  18.730   5.935 -0.3318 -0.0098 -0.0308
  696PSPI   C4B11096  15.780  18.695   6.135  0.1254  0.2346  0.3392
  697POPI    C111097  14.837  12.865   4.916 -0.3488 -0.1666  0.0706
  697POPI    C211098  14.619  12.888   4.581 -0.0791 -0.1865 -0.1094
  697POPI    C311099  15.009  12.802   4.560 -0.0738 -0.2538  0.2165
  697POPI   PO411100  14.561  12.888   5.166  0.1581 -0.1492  0.3762
  697POPI   GL111101  14.620  12.995   5.643  0.1113  0.2553 -0.0167
  697POPI   GL211102  14.642  12.650   5.659 -0.1252  0.2421 -0.3422
  697POPI   C1A11103  14.978  12.991   5.980 -0.1556 -0.2115 -0.1474
  697POPI   D2A11104  15.294  12.712   6.161  0.0030 -0.1013  0.0481
  697POPI   C3A11105  15.533  12.895   6.327  0.3897 -0.2514 -0.1902
  697POPI   C4A11106  15.526  13.313   6.510  0.1422 -0.0727  0.2457
  697POPI   C1B11107  14.195  12.756   5.818 -0.0429 -0.0386  0.1423
  697POPI   C2B11108  14.124  12.961   6.276  0.1583  0.1439 -0.0848
  697POPI   C3B11109  14.175  13.056   6.730  0.2118  0.0463 -0.0233
  697POPI   C4B11110  14.112  13.174   7.121 -0.2456  0.2614  0.0038
  698POPI    C111111  10.623  16.091   4.431  0.1443  0.0575 -0.1507
  698POPI    C211112  10.877  15.794   4.516  0.1796  0.0626 -0.2375
  698POPI    C311113  11.010  16.123   4.331  0.0850  0.0088 -0.4036
  698POPI   PO411114  10.487  16.048   4.688 -0.0769 -0.2862 -0.2006
  698POPI   GL111115  10.300  16.310   5.005 -0.3930  0.1197  0.0107
  698POPI   GL211116  10.664  16.405   5.033  0.1579  0.0046 -0.0548
  698POPI   C1A11117  10.318  16.575   5.463  0.1011  0.0186 -0.2103
  698POPI   D2A11118  10.085  16.962   5.739  0.0977  0.3236 -0.1827
  698POPI   C3A11119  10.012  16.745   6.233 -0.5224 -0.0744  0.1303
  698POPI   C4A11120   9.596  16.668   6.192 -0.1596  0.0304 -0.2438
  698POPI   C1B11121  10.873  16.674   5.265  0.1154 -0.1622 -0.0603
  698POPI   C2B11122  11.069  16.646   5.745  0.0592 -0.1295  0.3200
  698POPI   C3B11123  11.054  16.522   6.199 -0.2665  0.1525 -0.0671
  698POPI   C4B11124  11.200  16.861   6.505  0.3591  0.0036 -0.0603
  699POPI    C111125   1.828   4.758   4.614 -0.2853 -0.1271 -0.2177
  699POPI    C211126   2.064   4.779   4.292  0.1042 -0.0042  0.0676
  699POPI    C311127   2.029   4.435   4.493 -0.2426 -0.1165 -0.1756
  699POPI   PO411128   1.861   4.970   4.790  0.0183 -0.1221 -0.1363
  699POPI   GL111129   2.107   4.927   5.103  0.5131  0.2772 -0.0311
  699POPI   GL211130   1.905   4.637   5.189 -0.1125  0.0754 -0.2220
  699POPI   C1A11131   2.063   5.227   5.472  0.0816  0.0043 -0.1576
  699POPI   D2A11132   1.923   5.274   5.937  0.0307  0.1093 -0.1514
  699POPI   C3A11133   2.181   5.531   6.213 -0.1304 -0.0825  0.2579
  699POPI   C4A11134   1.959   5.718   6.318  0.2569  0.1382  0.1737
  699POPI   C1B11135   1.762   4.383   5.629  0.1795 -0.2029  0.2682
  699POPI   C2B11136   2.054   4.411   5.949  0.3541  0.3393 -0.2346
  699POPI   C3B11137   2.017   4.554   6.362 -0.1487  0.0808 -0.0786
  699POPI   C4B11138   2.234   4.726   6.667 -0.1809 -0.0614  0.2310
  700POPI    C111139   4.642  11.950   4.722 -0.0160 -0.3299  0.0108
  700POPI    C211140   4.286  12.031   4.560  0.0197 -0.1969 -0.0023
  700POPI    C311141   4.595  11.936   4.325  0.0545 -0.0699 -0.0087
  700POPI   PO411142   4.499  11.896   5.024  0.0522 -0.1896  0.2936
  700POPI   GL111143   4.524  11.570   5.338  0.1693  0.3200  0.1360
  700POPI   GL211144   4.532  11.246   5.307 -0.4098 -0.1381  0.1485
  700POPI   C1A11145   4.635  11.499   5.785  0.1024  0.4430 -0.0184
  700POPI   D2A11146   4.977  11.293   5.998 -0.2364 -0.4014  0.1380
  700POPI   C3A11147   5.009  11.502   6.227  0.1496  0.0774 -0.2717
  700POPI   C4A11148   4.976  11.727   6.612  0.1642 -0.1068 -0.0240
  700POPI   C1B11149   4.598  10.883   5.516 -0.1746  0.0519 -0.1000
  700POPI   C2B11150   4.553  10.467   5.728 -0.1927  0.1395  0.2102
  700POPI   C3B11151   4.314  10.385   6.112  0.1790 -0.1447  0.0694
  700POPI   C4B11152   4.007  10.016   6.265 -0.2437  0.0382  0.0689
  701POPI    C111153   6.674   1.731   4.758  0.1535  0.0383  0.0493
  701POPI    C211154   6.454   1.922   4.484 -0.0151 -0.1460  0.0539
  701POPI    C311155   6.853   1.942   4.469 -0.0291  0.2156  0.0628
  701POPI   PO411156   6.492   1.834   5.014  0.0500  0.3609  0.2548
  701POPI   GL111157   6.384   2.196   5.215  0.0703  0.3974  0.2496
  701POPI   GL211158   6.137   2.403   5.291 -0.1522  0.1382 -0.0421
  701POPI   C1A11159   6.315   1.995   5.604  0.0216  0.0403  0.0941
  701POPI   D2A11160   6.511   1.846   5.910  0.0052 -0.1733 -0.1426
  701POPI   C3A11161   6.378   2.004   6.234 -0.3892  0.1834  0.1394
  701POPI   C4A11162   6.362   1.962   6.644  0.1355 -0.2120 -0.2400
  701POPI   C1B11163   6.117   2.684   5.647  0.1010  0.2347 -0.1081
  701POPI   C2B11164   6.000   2.990   5.975  0.2067 -0.1514  0.1426
  701POPI   C3B11165   5.749   3.193   6.219  0.2695 -0.2349  0.2405
  701POPI   C4B11166   5.387   3.351   6.263 -0.1060  0.3837  0.0119
  702POPI    C111167   8.279  16.792   4.574 -0.0058 -0.1187  0.0988
  702POPI    C211168   8.504  17.003   4.320  0.0318 -0.0053  0.2247
  702POPI    C311169   8.488  16.604   4.289 -0.0309  0.0135 -0.0077
  702POPI   PO411170   8.269  16.839   4.766  0.2797 -0.0855 -0.1675
  702POPI   GL111171   8.387  16.705   5.145 -0.0097  0.2532  0.0866
  702POPI   GL211172   8.574  16.945   5.269  0.0345  0.1014  0.1013
  702POPI   C1A11173   8.079  16.809   5.483  0.2536  0.1979 -0.3492
  702POPI   D2A11174   7.899  16.688   5.851  0.2650 -0.0676 -0.3654
  702POPI   C3A11175   7.674  16.608   6.293 -0.0259  0.1976 -0.0619
  702POPI   C4A11176   7.749  16.617   6.687 -0.3147 -0.1944  0.1113
  702POPI   C1B11177   8.569  16.646   5.648  0.2147  0.1775  0.1510
  702POPI   C2B11178   8.318  16.460   5.983 -0.1272 -0.0575 -0.0545
  702POPI   C3B11179   8.202  16.172   6.205 -0.0068  0.2120 -0.0137
  702POPI   C4B11180   8.118  15.761   6.206 -0.1693 -0.0260 -0.3283
  703POPI    C111181  15.400   6.614   5.379  0.2470 -0.2177  0.0516
  703POPI    C211182  15.756   6.752   5.495  0.0064  0.2872  0.2156
  703POPI    C311183  15.581   6.901   5.168 -0.1158  0.1413  0.2136
  703POPI   PO411184  15.293   6.653   5.592 -0.3139  0.1452  0.0579
  703POPI   GL111185  15.185   6.458   5.959  0.1037  0.1467 -0.0769
  703POPI   GL211186  14.916   6.440   5.819  0.1376  0.1429  0.3257
  703POPI   C1A11187  15.242   6.252   6.344  0.1871 -0.0642  0.2595
  703POPI   D2A11188  15.300   6.077   6.715 -0.3496  0.1904  0.2373
  703POPI   C3A11189  15.298   5.627   6.742 -0.0253  0.0640  0.1708
  703POPI   C4A11190  15.570   5.246   6.576  0.1464 -0.1407  0.0500
  703POPI   C1B11191  14.842   6.653   6.280 -0.1698 -0.1675 -0.2676
  703POPI   C2B11192  14.830   6.487   6.661  0.0849 -0.4186  0.0550
  703POPI   C3B11193  14.705   6.208   6.911 -0.1532  0.0743  0.0244
  703POPI   C4B11194  14.846   5.760   6.813  0.1085  0.0557 -0.2221
  704POPI    C111195  12.401  15.250   4.874 -0.0052 -0.2785 -0.2752
  704POPI    C211196  12.623  15.235   4.542 -0.0438 -0.1314 -0.3084
  704POPI    C311197  12.378  15.545   4.604  0.4279  0.1653  0.1529
  704POPI   PO411198  12.281  14.950   4.929 -0.0842 -0.0231 -0.1278
  704POPI   GL111199  12.211  14.934   5.376  0.2176  0.1341  0.0641
  704POPI   GL211200  11.897  14.900   5.219 -0.1325 -0.0133 -0.0611
  704POPI   C1A11201  12.145  14.719   5.737 -0.0190  0.2148  0.1833
  704POPI   D2A11202  12.296  14.524   6.173 -0.4505  0.0506  0.2929
  704POPI   C3A11203  12.343  14.581   6.644 -0.2993  0.2194  0.0192
  704POPI   C4A11204  12.099  14.688   6.991  0.0092  0.0801 -0.0229
  704POPI   C1B11205  11.840  15.167   5.588  0.3135  0.0165  0.0682
  704POPI   C2B11206  11.765  15.297   5.959 -0.2329 -0.0085 -0.1453
  704POPI   C3B11207  11.580  15.410   6.344 -0.1518  0.1340 -0.1876
  704POPI   C4B11208  11.188  15.281   6.472  0.1489 -0.3771  0.0092
  705POPI    C111209   4.860   4.481   4.440 -0.0149  0.1161  0.2166
  705POPI    C211210   4.469   4.548   4.488 -0.0168  0.1221  0.1923
  705POPI    C311211   4.710   4.846   4.373 -0.0736  0.0188 -0.2102
  705POPI   PO411212   4.965   4.215   4.666  0.1555 -0.3133  0.2195
  705POPI   GL111213   5.049   3.878   4.945 -0.0673  0.1414 -0.4915
  705POPI   GL211214   4.970   3.679   5.184  0.5312 -0.0072  0.2221
  705POPI   C1A11215   5.275   4.063   5.273 -0.1882 -0.0417  0.4258
  705POPI   D2A11216   5.385   4.059   5.727 -0.1487  0.5557 -0.1436
  705POPI   C3A11217   5.269   4.417   6.068 -0.1390  0.1445  0.0631
  705POPI   C4A11218   5.105   4.723   6.393 -0.3853 -0.1025 -0.3286
  705POPI   C1B11219   4.970   3.791   5.616 -0.0717 -0.3057  0.2487
  705POPI   C2B11220   4.918   3.569   5.923  0.4379  0.1200  0.1892
  705POPI   C3B11221   5.025   3.095   5.971  0.1074  0.2199 -0.1477
  705POPI   C4B11222   5.057   2.654   5.801  0.0662  0.2635  0.3051
  706POPI    C111223   0.904  16.934   4.644 -0.1819 -0.0536  0.0757
  706POPI    C211224   0.573  16.750   4.514 -0.1527 -0.0471 -0.0080
  706POPI    C311225   0.774  16.996   4.271 -0.2526  0.1829  0.1379
  706POPI   PO411226   0.838  17.022   4.939 -0.1164 -0.0514  0.2426
  706POPI   GL111227   1.072  17.198   5.188 -0.0379  0.1212 -0.0069
  706POPI   GL211228   1.498  17.273   5.207  0.2181  0.1496 -0.0731
  706POPI   C1A11229   1.143  17.084   5.613  0.1290  0.0736  0.1285
  706POPI   D2A11230   1.172  17.223   5.885 -0.2000  0.1364 -0.0736
  706POPI   C3A11231   1.460  17.205   6.281  0.0854  0.1470  0.0874
  706POPI   C4A11232   1.388  17.515   6.640  0.2464 -0.2571  0.0920
  706POPI   C1B11233   1.669  17.152   5.513  0.1283 -0.3565 -0.0866
  706POPI   C2B11234   1.559  16.939   5.845 -0.2686  0.1385  0.3149
  706POPI   C3B11235   1.473  16.568   6.172 -0.0641  0.0317 -0.0141
  706POPI   C4B11236   1.661  16.165   6.140  0.1108  0.0040 -0.0854
  707POPI    C111237   1.762  13.659   4.538 -0.3329  0.1668 -0.0143
  707POPI    C211238   1.639  13.700   4.160  0.1142 -0.2145 -0.2118
  707POPI    C311239   1.512  13.391   4.379  0.0990 -0.1662 -0.1520
  707POPI   PO411240   1.728  13.896   4.772  0.2859  0.4295  0.1188
  707POPI   GL111241   1.584  13.935   5.223 -0.1291 -0.1623  0.0105
  707POPI   GL211242   1.822  14.186   5.338  0.2614  0.2804 -0.0821
  707POPI   C1A11243   1.443  14.060   5.687 -0.0535  0.1648 -0.0715
  707POPI   D2A11244   1.389  14.221   5.953 -0.2106 -0.1205 -0.1732
  707POPI   C3A11245   1.236  14.104   6.333  0.1390 -0.0090 -0.1770
  707POPI   C4A11246   1.104  13.812   6.711  0.0582  0.0549 -0.3762
  707POPI   C1B11247   1.848  14.343   5.752  0.0185 -0.0760  0.1591
  707POPI   C2B11248   1.877  14.274   6.172  0.0076  0.0038 -0.1928
  707POPI   C3B11249   1.913  14.482   6.458  0.1184  0.3172  0.0631
  707POPI   C4B11250   1.726  14.905   6.623 -0.0830  0.2547 -0.1773
  708POPI    C111251  12.765  13.188   4.796  0.1387  0.2499 -0.1744
  708POPI    C211252  12.569  13.419   4.534 -0.0837 -0.0114 -0.2432
  708POPI    C311253  12.894  13.559   4.721 -0.2308  0.3651 -0.2615
  708POPI   PO411254  12.600  13.097   5.002  0.0982  0.2469 -0.0639
  708POPI   GL111255  12.534  13.246   5.433  0.0230 -0.0938  0.1858
  708POPI   GL211256  12.505  13.436   5.634  0.1140 -0.0342  0.3235
  708POPI   C1A11257  12.952  13.243   5.638  0.0854  0.1951  0.1211
  708POPI   D2A11258  13.277  13.277   5.956  0.0120 -0.2644 -0.1024
  708POPI   C3A11259  13.342  13.567   6.286  0.2064  0.3512  0.0035
  708POPI   C4A11260  13.447  13.634   6.754 -0.4523  0.0775 -0.1931
  708POPI   C1B11261  12.472  13.294   6.032  0.1425 -0.2952  0.0309
  708POPI   C2B11262  12.363  13.050   6.403  0.0636 -0.1047 -0.0019
  708POPI   C3B11263  11.997  12.947   6.769  0.1707 -0.4038 -0.1014
  708POPI   C4B11264  11.558  13.024   6.868  0.0355 -0.1950 -0.1321
  709POPI    C111265   9.806   0.066   4.809 -0.2051 -0.0410  0.0466
  709POPI    C211266   9.563   0.272   4.568 -0.0186 -0.0458 -0.1493
  709POPI    C311267   9.762   0.460   4.860 -0.1230 -0.0121 -0.0993
  709POPI   PO411268   9.646  -0.220   4.860 -0.1824 -0.3251  0.1332
  709POPI   GL111269   9.646  -0.361   5.274 -0.0153  0.1528 -0.0338
  709POPI   GL211270   9.724  -0.096   5.349 -0.1511  0.0194 -0.0956
  709POPI   C1A11271   9.582  -0.602   5.606  0.0569  0.0068  0.0429
  709POPI   D2A11272   9.424  -0.619   6.041 -0.5054 -0.2140  0.0236
  709POPI   C3A11273   9.173  -0.960   6.218  0.2550  0.1894  0.0786
  709POPI   C4A11274   9.007  -1.438   6.183 -0.1205  0.0611 -0.2770
  709POPI   C1B11275   9.988  -0.272   5.682 -0.3239  0.0338 -0.3572
  709POPI   C2B11276  10.202  -0.145   5.963  0.0728 -0.2348  0.0671
  709POPI   C3B11277  10.459   0.279   5.907 -0.2311  0.2220 -0.2787
  709POPI   C4B11278  10.761   0.494   6.182 -0.1825  0.1897 -0.0888
  710POPI    C111279  14.073   8.996   5.085 -0.0402 -0.4625 -0.0449
  710POPI    C211280  14.426   8.939   4.905  0.1082  0.1970  0.0102
  710POPI    C311281  14.179   9.225   4.774 -0.2850 -0.0676  0.1542
  710POPI   PO411282  13.968   8.786   5.128 -0.1827  0.3234  0.0259
  710POPI   GL111283  14.004   8.643   5.537  0.2520  0.0189 -0.0802
  710POPI   GL211284  14.268   8.918   5.595  0.1336 -0.0506  0.2200
  710POPI   C1A11285  14.133   8.483   5.907 -0.1627 -0.1998 -0.0411
  710POPI   D2A11286  13.929   8.187   6.187  0.0384  0.0520 -0.2935
  710POPI   C3A11287  14.143   7.872   6.414  0.3453 -0.0689  0.3302
  710POPI   C4A11288  14.473   7.898   6.495 -0.1244  0.1669 -0.3160
  710POPI   C1B11289  14.166   9.181   5.944  0.3322  0.0904 -0.3354
  710POPI   C2B11290  13.962   9.092   6.206 -0.1300  0.0135  0.0180
  710POPI   C3B11291  14.081   8.685   6.447  0.2038  0.0627  0.3671
  710POPI   C4B11292  14.312   8.365   6.724 -0.0256 -0.3249 -0.3612
  711POPI    C111293  19.885  14.033   4.742 -0.0398 -0.0174  0.0163
  711POPI    C211294  20.129  13.866   5.012 -0.0816  0.1097  0.1335
  711POPI    C311295  20.281  14.039   4.685 -0.0414 -0.2165 -0.0237
  711POPI   PO411296  19.735  14.155   4.882  0.4077  0.1368 -0.6400
  711POPI   GL111297  19.454  14.048   5.225 -0.0327  0.2001 -0.0949
  711POPI   GL211298  19.308  13.873   4.996  0.3505 -0.1650  0.1004
  711POPI   C1A11299  19.320  14.058   5.643  0.2446  0.3227 -0.0802
  711POPI   D2A11300  19.205  14.014   6.073 -0.0222 -0.0329 -0.0089
  711POPI   C3A11301  18.963  14.404   6.308  0.0596  0.0519 -0.1286
  711POPI   C4A11302  18.528  14.645   6.485 -0.1238 -0.2651 -0.0199
  711POPI   C1B11303  19.500  13.500   5.233  0.0667 -0.0607  0.0866
  711POPI   C2B11304  19.502  13.418   5.718 -0.0895 -0.0112  0.0181
  711POPI   C3B11305  19.622  13.188   6.051  0.1629 -0.4100  0.1105
  711POPI   C4B11306  19.332  12.938   6.401 -0.1356  0.0922 -0.0666
  712POPI    C111307  12.153   2.723   5.261  0.1179 -0.0600 -0.2180
  712POPI    C211308  12.137   2.330   5.186  0.1499 -0.0383 -0.3407
  712POPI    C311309  12.459   2.486   5.364 -0.1002 -0.1548  0.2359
  712POPI   PO411310  11.907   2.757   5.363 -0.0693  0.1063  0.0559
  712POPI   GL111311  11.434   2.651   5.569 -0.0877 -0.0143 -0.0110
  712POPI   GL211312  11.687   2.441   5.691  0.1775 -0.1922 -0.0997
  712POPI   C1A11313  11.404   2.860   5.868 -0.2192  0.1926 -0.4193
  712POPI   D2A11314  11.434   3.114   6.055 -0.0334 -0.1948  0.3042
  712POPI   C3A11315  11.469   3.383   6.411 -0.3040 -0.0448 -0.0088
  712POPI   C4A11316  11.413   3.294   6.848  0.0681 -0.0363 -0.0167
  712POPI   C1B11317  12.034   2.296   5.784  0.3515 -0.0195 -0.4231
  712POPI   C2B11318  12.238   2.356   6.246  0.2127  0.1482 -0.0625
  712POPI   C3B11319  12.422   2.370   6.654 -0.0599 -0.1077 -0.2640
  712POPI   C4B11320  12.533   2.455   7.171  0.0666  0.0113 -0.5216
  713POPI    C111321  17.532  19.335   4.998 -0.0037 -0.2375  0.1409
  713POPI    C211322  17.143  19.268   4.934  0.0153  0.0449 -0.3213
  713POPI    C311323  17.397  19.282   4.625  0.3484  0.1393 -0.0495
  713POPI   PO411324  17.498  19.343   5.357  0.0674 -0.0865  0.0292
  713POPI   GL111325  17.380  19.338   5.807  0.0410 -0.0907  0.2479
  713POPI   GL211326  17.005  19.299   5.838 -0.2086  0.0722 -0.1226
  713POPI   C1A11327  17.476  18.981   6.093 -0.0479  0.0391 -0.2002
  713POPI   D2A11328  17.742  18.723   6.317 -0.1427  0.0769  0.0840
  713POPI   C3A11329  17.878  18.323   6.572  0.4192  0.1011  0.0655
  713POPI   C4A11330  18.273  18.185   6.567 -0.2623 -0.0255 -0.2798
  713POPI   C1B11331  16.893  19.177   6.225  0.3584  0.0682 -0.2335
  713POPI   C2B11332  16.556  19.150   6.539 -0.1131 -0.1271  0.0360
  713POPI   C3B11333  16.629  19.115   6.959  0.2644  0.0613 -0.2035
  713POPI   C4B11334  16.590  18.961   7.369  0.1373 -0.0124 -0.2264
  714POPI    C111335  15.525   1.746   5.442  0.4927  0.0995  0.1207
  714POPI    C211336  15.697   1.665   5.090  0.1326 -0.0698 -0.0213
  714POPI    C311337  15.305   1.742   5.108  0.0977 -0.3096  0.3742
  714POPI   PO411338  15.796   1.819   5.546 -0.0920 -0.1724  0.0802
  714POPI   GL111339  16.055   1.806   5.868  0.2036 -0.3096 -0.0608
  714POPI   GL211340  16.117   2.131   5.749 -0.1409 -0.2515 -0.0902
  714POPI   C1A11341  16.163   1.771   6.288  0.1262  0.1864 -0.5720
  714POPI   D2A11342  16.369   1.597   6.605 -0.0820 -0.2238  0.2592
  714POPI   C3A11343  16.135   1.691   6.899 -0.0991  0.0531  0.2134
  714POPI   C4A11344  16.322   1.789   7.239 -0.1647  0.0218  0.0951
  714POPI   C1B11345  15.905   2.250   6.043  0.3060  0.0249 -0.1905
  714POPI   C2B11346  16.108   2.362   6.322 -0.0214  0.0446  0.5124
  714POPI   C3B11347  16.262   2.579   6.712 -0.0246 -0.1898  0.3177
  714POPI   C4B11348  16.393   2.672   7.138  0.2996  0.1313  0.0756
  715POPI    C111349   0.584   8.824   4.571  0.0243 -0.3686 -0.1353
  715POPI    C211350   0.295   8.940   4.320 -0.0123 -0.0570  0.0462
  715POPI    C311351   0.679   8.965   4.209 -0.0293  0.0574  0.0112
  715POPI   PO411352   0.548   9.038   4.815  0.1644  0.2077 -0.0032
  715POPI   GL111353   0.836   9.290   5.041  0.0991 -0.0688  0.3410
  715POPI   GL211354   0.986   9.044   5.187 -0.1727  0.0221  0.1949
  715POPI   C1A11355   0.811   9.455   5.505 -0.2457 -0.1993  0.1529
  715POPI   D2A11356   0.653   9.137   5.819  0.0210  0.0993 -0.3429
  715POPI   C3A11357   0.742   8.702   6.056  0.2966 -0.0503  0.2649
  715POPI   C4A11358   0.675   8.424   6.384 -0.2411 -0.0671 -0.1742
  715POPI   C1B11359   1.292   8.844   5.639  0.2107  0.0037 -0.1053
  715POPI   C2B11360   1.480   8.873   6.004 -0.2620  0.2356  0.0691
  715POPI   C3B11361   1.910   8.830   6.246 -0.3525  0.1555 -0.2849
  715POPI   C4B11362   2.265   9.002   6.480  0.1630 -0.0444  0.2833
  716POPI    C111363  11.693   6.922   4.738  0.0788  0.2758 -0.2900
  716POPI    C211364  11.455   6.807   4.438  0.0250 -0.1972 -0.0746
  716POPI    C311365  11.851   6.760   4.408  0.0309 -0.1143 -0.1273
  716POPI   PO411366  11.567   6.851   5.005 -0.2658 -0.0257  0.3009
  716POPI   GL111367  11.520   6.938   5.349 -0.1403  0.1283  0.1270
  716POPI   GL211368  11.758   7.227   5.400 -0.3093 -0.3650 -0.2743
  716POPI   C1A11369  11.398   6.988   5.785  0.1333  0.1653 -0.1208
  716POPI   D2A11370  11.351   7.199   6.006  0.2723 -0.0723  0.0842
  716POPI   C3A11371  11.506   7.122   6.328 -0.1713 -0.3202 -0.1137
  716POPI   C4A11372  11.558   6.928   6.669  0.2207 -0.1347 -0.0564
  716POPI   C1B11373  11.371   7.497   5.537 -0.1919 -0.0007 -0.0993
  716POPI   C2B11374  11.253   7.698   5.856 -0.0598  0.2553 -0.3148
  716POPI   C3B11375  11.124   7.529   6.339  0.3021 -0.0193  0.1002
  716POPI   C4B11376  10.943   7.632   6.731  0.0053 -0.2530  0.2411
  717POPI    C111377   0.211   2.472   4.763 -0.1207 -0.0039 -0.0315
  717POPI    C211378   0.092   2.799   4.566  0.0852  0.2401  0.2426
  717POPI    C311379  -0.176   2.522   4.674 -0.1224  0.4180  0.1906
  717POPI   PO411380   0.498   2.613   4.887  0.0674  0.0034  0.1959
  717POPI   GL111381   0.725   2.844   5.355  0.0757  0.1009 -0.0748
  717POPI   GL211382   0.848   2.528   5.282 -0.1205 -0.2078 -0.1430
  717POPI   C1A11383   0.905   3.227   5.556  0.0194  0.0278  0.1130
  717POPI   D2A11384   1.012   3.240   6.040 -0.0908  0.1455  0.2488
  717POPI   C3A11385   1.490   3.192   6.119  0.1722 -0.3442 -0.0380
  717POPI   C4A11386   1.908   3.081   6.257 -0.2042 -0.0915  0.0585
  717POPI   C1B11387   1.134   2.650   5.606 -0.1020  0.0703 -0.1385
  717POPI   C2B11388   1.202   2.710   6.001  0.1936  0.2602 -0.1890
  717POPI   C3B11389   1.538   2.716   6.385 -0.0510 -0.0546 -0.0664
  717POPI   C4B11390   1.983   2.666   6.649 -0.1373  0.0221 -0.0073
  718POPI    C111391  16.688  11.270   4.645  0.2900  0.1993 -0.1417
  718POPI    C211392  16.632  11.474   4.305  0.0422  0.0337 -0.2034
  718POPI    C311393  16.633  11.074   4.300 -0.0303  0.0299  0.0010
  718POPI   PO411394  16.495  11.301   4.800  0.0283 -0.1712  0.1830
  718POPI   GL111395  16.396  11.213   5.174  0.0252  0.3142 -0.3409
  718POPI   GL211396  16.532  11.338   5.367 -0.0003 -0.0737 -0.1173
  718POPI   C1A11397  16.201  10.942   5.345 -0.1383 -0.2007 -0.1682
  718POPI   D2A11398  16.025  10.633   5.627  0.0629  0.1666 -0.0242
  718POPI   C3A11399  16.177  10.475   5.956 -0.0976 -0.1268  0.0066
  718POPI   C4A11400  16.129  10.507   6.383  0.0797  0.1096  0.4391
  718POPI   C1B11401  16.668  11.097   5.612 -0.2160  0.1302  0.4392
  718POPI   C2B11402  16.566  10.885   5.897  0.0373 -0.1451 -0.0308
  718POPI   C3B11403  16.689  10.531   6.099 -0.0006 -0.1802 -0.1841
  718POPI   C4B11404  16.518  10.144   6.232  0.0476 -0.4027 -0.3239
  719POPI    C111405   4.056   2.677   4.554  0.1100  0.0420  0.0142
  719POPI    C211406   3.905   2.751   4.191  0.0013 -0.0557  0.0392
  719POPI    C311407   3.718   2.498   4.438  0.2417 -0.2316  0.0444
  719POPI   PO411408   4.064   2.942   4.808 -0.0022  0.2337  0.2420
  719POPI   GL111409   4.013   3.033   5.229 -0.1455 -0.2703  0.0070
  719POPI   GL211410   4.105   2.615   5.157 -0.1967 -0.1466 -0.1897
  719POPI   C1A11411   4.188   3.127   5.601 -0.0384  0.0172  0.1741
  719POPI   D2A11412   4.504   3.308   5.860 -0.1691  0.1570  0.1194
  719POPI   C3A11413   4.627   3.146   6.299  0.2927 -0.2723  0.2248
  719POPI   C4A11414   4.960   3.112   6.577  0.2901  0.2907 -0.3305
  719POPI   C1B11415   3.893   2.709   5.578  0.1205  0.1973  0.1855
  719POPI   C2B11416   4.181   2.840   5.999  0.0886  0.3170 -0.1787
  719POPI   C3B11417   4.237   2.866   6.409 -0.2655  0.2051  0.0341
  719POPI   C4B11418   4.516   2.937   6.797  0.0035 -0.0061 -0.0236
  720POPI    C111419   4.289  13.814   4.698 -0.0524  0.2369  0.0060
  720POPI    C211420   3.990  14.080   4.692 -0.1532  0.1289  0.1681
  720POPI    C311421   3.926  13.704   4.574 -0.0402  0.1458  0.0507
  720POPI   PO411422   4.396  13.937   4.984  0.0595  0.0696 -0.1571
  720POPI   GL111423   4.187  14.140   5.343 -0.2461 -0.0881 -0.0096
  720POPI   GL211424   4.034  13.895   5.447 -0.1772  0.1355  0.1042
  720POPI   C1A11425   4.043  14.328   5.706  0.3481 -0.1700  0.1325
  720POPI   D2A11426   3.868  14.475   6.039  0.0535  0.0826  0.0273
  720POPI   C3A11427   3.659  14.288   6.359  0.0400 -0.0054 -0.2999
  720POPI   C4A11428   3.679  14.082   6.699  0.2011 -0.2741  0.2203
  720POPI   C1B11429   3.645  14.068   5.744  0.1094 -0.0215  0.1638
  720POPI   C2B11430   3.593  13.861   6.160 -0.1406  0.1769 -0.1862
  720POPI   C3B11431   3.258  13.842   6.569  0.4693 -0.2425 -0.0867
  720POPI   C4B11432   2.972  13.834   6.865  0.0682 -0.1629 -0.0219
  721POPI    C111433   1.107  15.590   4.661  0.2246  0.0218  0.1910
  721POPI    C211434   1.141  15.986   4.613  0.0719  0.0287  0.1356
  721POPI    C311435   0.784  15.824   4.695  0.1413 -0.0936  0.1986
  721POPI   PO411436   1.329  15.515   4.797  0.1850 -0.3316  0.1034
  721POPI   GL111437   1.644  15.818   4.986  0.1658  0.1023 -0.1310
  721POPI   GL211438   1.761  15.515   5.091  0.2897 -0.1317 -0.1116
  721POPI   C1A11439   1.613  16.080   5.218  0.2155  0.1346  0.1441
  721POPI   D2A11440   1.440  16.416   5.307 -0.3349  0.2912  0.1152
  721POPI   C3A11441   1.261  16.584   5.657  0.0551  0.3826  0.0614
  721POPI   C4A11442   0.910  16.744   5.888  0.0886 -0.5604  0.4697
  721POPI   C1B11443   1.522  15.671   5.491  0.0413  0.1961  0.1222
  721POPI   C2B11444   1.320  16.014   5.795  0.0513  0.1588  0.2033
  721POPI   C3B11445   1.136  16.077   6.193 -0.0180  0.0478 -0.0334
  721POPI   C4B11446   0.848  16.352   6.481 -0.2431 -0.0758 -0.0968
  722POPI    C111447  14.855  15.930   5.111  0.0231 -0.0127 -0.1812
  722POPI    C211448  15.223  16.078   5.063 -0.0354  0.2231  0.0737
  722POPI    C311449  14.921  16.220   4.844  0.0362 -0.0286 -0.1954
  722POPI   PO411450  14.894  15.668   5.216 -0.4027 -0.1666  0.0207
  722POPI   GL111451  14.732  15.481   5.563 -0.0755  0.1222 -0.1649
  722POPI   GL211452  14.592  15.595   5.883 -0.1366  0.0943  0.1042
  722POPI   C1A11453  14.979  15.179   5.807 -0.0230 -0.1917 -0.0971
  722POPI   D2A11454  14.982  14.918   6.149 -0.1080  0.3126  0.2453
  722POPI   C3A11455  14.953  14.585   6.488 -0.0498  0.1932  0.0260
  722POPI   C4A11456  14.581  14.344   6.730 -0.3017  0.1613  0.1603
  722POPI   C1B11457  14.752  15.382   6.232 -0.1310  0.2611 -0.0780
  722POPI   C2B11458  14.835  15.445   6.732 -0.0026  0.0124  0.1594
  722POPI   C3B11459  14.612  15.398   7.067 -0.1269 -0.0202  0.0219
  722POPI   C4B11460  14.406  15.316   7.421  0.3262  0.4739  0.3840
  723POPI    C111461  15.585   1.131   5.068 -0.2047  0.3783  0.1863
  723POPI    C211462  15.849   1.295   4.817 -0.0943 -0.4016 -0.2411
  723POPI    C311463  15.457   1.351   4.759 -0.0530  0.1722 -0.0274
  723POPI   PO411464  15.611   1.218   5.335 -0.1117 -0.0534 -0.0480
  723POPI   GL111465  15.580   1.058   5.726 -0.0400  0.0610 -0.3261
  723POPI   GL211466  15.794   0.854   5.729  0.0040  0.0733 -0.0267
  723POPI   C1A11467  15.388   0.775   6.079  0.3519  0.1053 -0.1657
  723POPI   D2A11468  15.572   0.715   6.495  0.0997 -0.2107 -0.2861
  723POPI   C3A11469  15.843   0.971   6.697  0.1991  0.2146  0.3339
  723POPI   C4A11470  15.792   1.397   6.729  0.0531  0.0614 -0.2391
  723POPI   C1B11471  15.998   0.890   6.080 -0.0270  0.1357 -0.2728
  723POPI   C2B11472  16.191   1.197   6.375 -0.0469  0.0635  0.4157
  723POPI   C3B11473  16.372   1.093   6.753  0.0349 -0.0632 -0.0755
  723POPI   C4B11474  16.570   1.398   7.049 -0.0543 -0.1120 -0.1637
  724POPI    C111475   7.623  16.859   4.314  0.0174  0.0378 -0.3919
  724POPI    C211476   7.275  16.669   4.368  0.1138 -0.0650 -0.1153
  724POPI    C311477   7.333  16.891   4.040 -0.2014 -0.0680 -0.1760
  724POPI   PO411478   7.787  16.672   4.410  0.0759 -0.2716  0.0109
  724POPI   GL111479   7.875  16.446   4.775  0.0606  0.0890 -0.4027
  724POPI   GL211480   7.532  16.419   4.723  0.0390 -0.0232  0.0306
  724POPI   C1A11481   7.646  16.720   5.161  0.1214 -0.2999 -0.2077
  724POPI   D2A11482   7.453  16.749   5.540 -0.3898  0.0748 -0.0080
  724POPI   C3A11483   6.985  16.909   5.773 -0.1894  0.0723  0.2141
  724POPI   C4A11484   6.659  17.246   5.869  0.1324 -0.1849 -0.1413
  724POPI   C1B11485   7.571  16.152   5.097 -0.1084  0.0037 -0.1437
  724POPI   C2B11486   7.152  16.254   5.434 -0.0492 -0.1230  0.0470
  724POPI   C3B11487   6.809  16.456   5.657 -0.0004  0.2511 -0.2676
  724POPI   C4B11488   6.454  16.320   5.781  0.0415  0.3790  0.3251
  725POPI    C111489  11.567  17.058   4.658 -0.0784  0.0465  0.1492
  725POPI    C211490  11.245  16.954   4.444 -0.0332 -0.1343  0.1679
  725POPI    C311491  11.611  16.906   4.291 -0.0143  0.0794  0.1431
  725POPI   PO411492  11.500  17.382   4.738  0.0120  0.0238  0.1154
  725POPI   GL111493  11.361  17.450   5.147 -0.0459 -0.2724  0.1591
  725POPI   GL211494  11.639  17.510   5.218  0.3994 -0.0161 -0.1136
  725POPI   C1A11495  11.143  17.566   5.463  0.1265  0.1071  0.2762
  725POPI   D2A11496  11.154  17.941   5.802  0.0759 -0.0183  0.2016
  725POPI   C3A11497  10.912  18.019   6.210  0.3211  0.1125 -0.0762
  725POPI   C4A11498  11.010  18.313   6.602 -0.1802 -0.0706  0.2210
  725POPI   C1B11499  11.593  17.810   5.500 -0.2036  0.0245 -0.0290
  725POPI   C2B11500  11.572  18.161   5.847 -0.0991  0.1639 -0.3119
  725POPI   C3B11501  11.343  18.278   6.244  0.0106  0.1743  0.0407
  725POPI   C4B11502  11.583  18.215   6.681  0.0516 -0.1112 -0.2209
  726POPI    C111503  17.330  18.908   5.217 -0.1859 -0.0906 -0.0958
  726POPI    C211504  17.593  18.837   4.925 -0.0989 -0.4963  0.0751
  726POPI    C311505  17.201  18.800   4.854 -0.1236  0.1585 -0.1941
  726POPI   PO411506  17.388  18.809   5.365  0.1099 -0.1808 -0.3394
  726POPI   GL111507  17.298  18.438   5.574 -0.3391  0.1173  0.2786
  726POPI   GL211508  17.421  18.600   5.828 -0.0450 -0.0131 -0.0813
  726POPI   C1A11509  17.114  18.175   5.707 -0.1570  0.1961 -0.5465
  726POPI   D2A11510  16.982  18.033   6.113  0.0088  0.0139 -0.0897
  726POPI   C3A11511  17.104  17.630   6.275 -0.4389 -0.2491 -0.1023
  726POPI   C4A11512  17.061  17.268   6.431  0.0491  0.1191 -0.2785
  726POPI   C1B11513  17.048  18.553   6.140  0.0200  0.3501  0.1429
  726POPI   C2B11514  16.831  18.373   6.408 -0.0494 -0.1274 -0.0385
  726POPI   C3B11515  16.718  18.058   6.661  0.1283  0.3247 -0.0862
  726POPI   C4B11516  16.332  17.717   6.879  0.0777 -0.0574  0.0420
  727POPI    C111517  11.872  12.769   4.491  0.1031  0.1016  0.1561
  727POPI    C211518  12.013  12.402   4.418 -0.0842  0.0988 -0.2138
  727POPI    C311519  11.692  12.537   4.220 -0.2561  0.3187  0.2019
  727POPI   PO411520  11.870  12.796   4.802 -0.1164 -0.1848  0.1408
  727POPI   GL111521  11.844  12.599   5.302 -0.2839 -0.1570  0.0068
  727POPI   GL211522  11.507  12.581   5.287  0.0869  0.0868 -0.1476
  727POPI   C1A11523  11.941  12.543   5.740 -0.0759 -0.0202 -0.1082
  727POPI   D2A11524  12.155  12.613   6.009  0.1910  0.1787  0.1328
  727POPI   C3A11525  12.500  12.530   6.218  0.1419 -0.2190 -0.0810
  727POPI   C4A11526  12.516  12.444   6.661 -0.2630  0.2235  0.1097
  727POPI   C1B11527  11.470  12.647   5.672  0.0131 -0.0211  0.0384
  727POPI   C2B11528  11.574  12.749   6.046  0.1467 -0.1155  0.0978
  727POPI   C3B11529  11.768  12.660   6.339  0.0946  0.1757  0.3193
  727POPI   C4B11530  11.483  12.543   6.784 -0.1355 -0.5239  0.0487
  728POPI    C111531  14.436   7.598   5.475  0.1331 -0.3419 -0.0297
  728POPI    C211532  14.758   7.685   5.697 -0.0449  0.1947  0.0330
  728POPI    C311533  14.503   7.975   5.591 -0.3576 -0.1750 -0.2599
  728POPI   PO411534  14.487   7.259   5.553  0.2524 -0.1463 -0.3257
  728POPI   GL111535  14.440   6.926   5.875 -0.0896  0.1158  0.1330
  728POPI   GL211536  14.366   6.602   5.761  0.2128  0.2233 -0.1596
  728POPI   C1A11537  14.441   6.919   6.329  0.0274 -0.3074 -0.0755
  728POPI   D2A11538  14.311   6.595   6.701 -0.0334 -0.2946 -0.2772
  728POPI   C3A11539  13.979   6.649   6.974  0.0290  0.3119 -0.0683
  728POPI   C4A11540  13.812   6.937   7.335 -0.1092 -0.1013 -0.1366
  728POPI   C1B11541  14.127   6.424   6.139  0.2007 -0.0506  0.1858
  728POPI   C2B11542  13.933   6.629   6.379  0.2425 -0.0856 -0.2132
  728POPI   C3B11543  13.667   6.742   6.572 -0.1286 -0.1963  0.1625
  728POPI   C4B11544  13.160   6.904   6.734 -0.0373 -0.0828  0.0258
  729POPI    C111545   8.209   4.603   4.649 -0.4914 -0.0838  0.1760
  729POPI    C211546   7.816   4.680   4.640 -0.4885 -0.0919 -0.1467
  729POPI    C311547   8.038   4.734   4.312 -0.2044 -0.0187  0.0532
  729POPI   PO411548   8.130   4.341   4.892 -0.1489  0.2931 -0.1400
  729POPI   GL111549   8.198   4.544   5.316 -0.2178 -0.1061 -0.1271
  729POPI   GL211550   8.532   4.661   5.391 -0.0799 -0.1480 -0.2530
  729POPI   C1A11551   8.062   4.400   5.685 -0.1914 -0.1210 -0.1756
  729POPI   D2A11552   7.861   4.362   6.058 -0.0622  0.0756 -0.2595
  729POPI   C3A11553   7.830   4.835   6.178  0.2887 -0.0983  0.1516
  729POPI   C4A11554   7.965   5.257   6.181  0.3833  0.2670  0.1757
  729POPI   C1B11555   8.534   4.649   5.768  0.0900 -0.4448 -0.0088
  729POPI   C2B11556   8.333   4.676   6.002 -0.1064  0.3586 -0.3072
  729POPI   C3B11557   8.447   4.991   6.256 -0.0405  0.0710  0.2255
  729POPI   C4B11558   8.585   5.270   6.561  0.2301 -0.0847 -0.0786
  730POPI    C111559  14.461  17.016   4.849 -0.1308 -0.0065 -0.0191
  730POPI    C211560  14.705  16.699   4.826 -0.0810  0.0394 -0.1323
  730POPI    C311561  14.557  16.863   4.492  0.1372  0.3225 -0.0936
  730POPI   PO411562  14.441  17.038   5.154  0.0001 -0.1578  0.0094
  730POPI   GL111563  14.553  16.930   5.569  0.1143 -0.4010  0.1917
  730POPI   GL211564  14.228  16.919   5.755 -0.1808  0.0602 -0.1953
  730POPI   C1A11565  14.539  17.257   5.936 -0.0817  0.0453  0.2037
  730POPI   D2A11566  14.636  17.070   6.411 -0.1836 -0.2916  0.2142
  730POPI   C3A11567  14.732  16.698   6.430 -0.2920 -0.0879 -0.4929
  730POPI   C4A11568  14.695  16.336   6.483  0.0481 -0.1690  0.1144
  730POPI   C1B11569  13.892  16.726   6.008 -0.1815 -0.0980  0.1220
  730POPI   C2B11570  13.763  16.571   6.415  0.2659 -0.2082 -0.3289
  730POPI   C3B11571  13.975  16.329   6.627  0.2274  0.0268 -0.0609
  730POPI   C4B11572  14.084  15.989   6.725  0.5928  0.1664 -0.0690
  731POPI    C111573  14.081   4.127   5.251  0.1028 -0.0347 -0.0346
  731POPI    C211574  13.747   3.908   5.234  0.2334 -0.2248 -0.1933
  731POPI    C311575  13.899   4.065   4.899  0.2801 -0.1031 -0.1153
  731POPI   PO411576  14.218   3.925   5.390  0.0220  0.0073 -0.0458
  731POPI   GL111577  14.238   4.059   5.795  0.2889  0.0668  0.1614
  731POPI   GL211578  13.943   3.882   5.962  0.0546  0.0258 -0.0504
  731POPI   C1A11579  14.456   3.962   6.174 -0.2705  0.0910 -0.2082
  731POPI   D2A11580  14.624   3.779   6.568  0.1009  0.1824  0.2130
  731POPI   C3A11581  14.874   4.118   6.856  0.1650  0.1666  0.0368
  731POPI   C4A11582  14.943   4.273   7.244  0.3305 -0.4625 -0.0025
  731POPI   C1B11583  13.950   3.775   6.356 -0.0659  0.1499  0.1128
  731POPI   C2B11584  13.744   3.520   6.674 -0.1484  0.2409 -0.2603
  731POPI   C3B11585  13.482   3.211   6.797 -0.3838  0.0500 -0.2134
  731POPI   C4B11586  13.161   3.094   6.527  0.3104 -0.0041 -0.1112
  732POPI    C111587  14.013  15.127   5.004 -0.3056 -0.0302  0.0569
  732POPI    C211588  13.955  15.521   5.038  0.0091  0.0176  0.0702
  732POPI    C311589  13.870  15.335   4.694  0.1678  0.1558 -0.0455
  732POPI   PO411590  14.181  15.049   5.157 -0.0689  0.0208  0.4578
  732POPI   GL111591  14.196  14.840   5.514 -0.0170 -0.1273  0.0709
  732POPI   GL211592  13.907  14.655   5.620  0.0855  0.5139 -0.2517
  732POPI   C1A11593  14.546  14.979   5.828 -0.0010 -0.2337 -0.2103
  732POPI   D2A11594  14.286  15.302   6.128 -0.0156 -0.0223 -0.0184
  732POPI   C3A11595  13.872  15.122   6.330 -0.0048 -0.1686 -0.1054
  732POPI   C4A11596  13.538  15.378   6.110  0.2227 -0.1978  0.0549
  732POPI   C1B11597  13.656  14.736   5.961 -0.0145 -0.2262  0.0565
  732POPI   C2B11598  13.814  14.635   6.398 -0.1584  0.0540  0.2961
  732POPI   C3B11599  14.086  14.324   6.563  0.1493 -0.0732  0.2585
  732POPI   C4B11600  14.335  13.938   6.611  0.1877 -0.0730 -0.0149
  733POPI    C111601  18.657  12.679   4.931  0.0319  0.0056 -0.1144
  733POPI    C211602  18.849  12.536   4.610 -0.3112 -0.1031 -0.2767
  733POPI    C311603  18.507  12.738   4.565 -0.2115  0.1359  0.0040
  733POPI   PO411604  18.634  12.419   5.088 -0.3316 -0.1176  0.0805
  733POPI   GL111605  18.956  12.419   5.450  0.0998  0.1963 -0.0544
  733POPI   GL211606  18.886  12.722   5.475 -0.2126  0.1827 -0.1078
  733POPI   C1A11607  19.085  12.196   5.775 -0.3544  0.1268 -0.1123
  733POPI   D2A11608  19.405  12.008   5.984  0.1351  0.0046  0.3794
  733POPI   C3A11609  19.804  12.190   6.021  0.1340  0.0365  0.1171
  733POPI   C4A11610  20.215  12.279   6.172 -0.1109 -0.2056  0.1051
  733POPI   C1B11611  18.849  12.707   5.935  0.0840 -0.1137 -0.0547
  733POPI   C2B11612  18.799  12.595   6.318  0.0744 -0.0191 -0.1684
  733POPI   C3B11613  18.733  12.682   6.791  0.0637  0.0686 -0.0272
  733POPI   C4B11614  18.642  13.078   7.010 -0.0662  0.0237  0.1179
  734POPI    C111615  16.656  10.499   4.881 -0.1446  0.1705  0.0298
  734POPI    C211616  16.851  10.787   4.682 -0.1111  0.1768  0.0714
  734POPI    C311617  16.453  10.799   4.712 -0.1361  0.0550 -0.1885
  734POPI   PO411618  16.988  10.398   4.991  0.1850  0.1285 -0.1848
  734POPI   GL111619  16.969  10.270   5.460 -0.2349 -0.1219  0.0273
  734POPI   GL211620  16.962  10.616   5.639 -0.1282 -0.2779  0.0298
  734POPI   C1A11621  17.098  10.245   5.982 -0.0688 -0.1513 -0.2979
  734POPI   D2A11622  17.183  10.303   6.500 -0.0777 -0.3878 -0.3424
  734POPI   C3A11623  17.152   9.928   6.767 -0.0294 -0.0486  0.3743
  734POPI   C4A11624  17.411   9.601   6.983  0.3750 -0.0254  0.1001
  734POPI   C1B11625  17.068  10.845   5.968 -0.2442 -0.0639 -0.0361
  734POPI   C2B11626  17.070  10.800   6.391  0.1828 -0.1647 -0.1085
  734POPI   C3B11627  17.042  10.726   6.863  0.1443 -0.0859  0.1520
  734POPI   C4B11628  17.033  10.396   7.085  0.4004  0.0541 -0.0551
  735POPI    C111629   1.346  10.710   4.288 -0.0896  0.2091 -0.0818
  735POPI    C211630   1.521  10.884   3.974  0.0659  0.1102 -0.0511
  735POPI    C311631   1.123  10.853   3.988  0.0616  0.0434 -0.2764
  735POPI   PO411632   1.476  10.807   4.526  0.1837  0.1315 -0.0083
  735POPI   GL111633   1.325  11.032   4.891  0.2732 -0.4009  0.0825
  735POPI   GL211634   1.250  11.401   4.952 -0.5436 -0.1232 -0.0092
  735POPI   C1A11635   1.028  10.935   5.252 -0.2298 -0.0700 -0.0182
  735POPI   D2A11636   1.127  10.629   5.588 -0.0321  0.1357  0.0502
  735POPI   C3A11637   1.537  10.481   5.499  0.2144  0.1925 -0.0684
  735POPI   C4A11638   1.798  10.128   5.609 -0.0763  0.0115  0.0480
  735POPI   C1B11639   1.193  11.414   5.385  0.1992 -0.1279  0.0353
  735POPI   C2B11640   1.247  11.058   5.735 -0.0538 -0.2190  0.0198
  735POPI   C3B11641   1.462  10.737   5.978  0.0125  0.2424 -0.0056
  735POPI   C4B11642   1.643  10.595   6.403 -0.3580  0.1754 -0.1640
  736POPI    C111643   1.678  10.360   4.535 -0.1072  0.0030  0.1710
  736POPI    C211644   1.995  10.596   4.594 -0.0676 -0.0003 -0.0214
  736POPI    C311645   1.838  10.560   4.228 -0.3042  0.0181  0.0766
  736POPI   PO411646   1.875  10.162   4.766 -0.1458 -0.0803 -0.1935
  736POPI   GL111647   2.017  10.238   5.125 -0.1634 -0.2613 -0.0891
  736POPI   GL211648   2.066  10.552   5.149 -0.0609 -0.0745  0.2166
  736POPI   C1A11649   2.276  10.213   5.513  0.1130 -0.3495 -0.1330
  736POPI   D2A11650   2.426  10.406   5.873  0.3291 -0.0846 -0.1676
  736POPI   C3A11651   2.266  10.516   6.289 -0.0551 -0.1570  0.1619
  736POPI   C4A11652   2.203  10.834   6.676 -0.3098 -0.0082  0.1305
  736POPI   C1B11653   2.218  10.725   5.520 -0.0631  0.0389  0.1307
  736POPI   C2B11654   2.204  10.951   6.000  0.0066  0.1277  0.3436
  736POPI   C3B11655   2.218  11.317   6.240  0.0433  0.0172 -0.0541
  736POPI   C4B11656   2.158  11.349   6.636  0.4108  0.2179  0.2530
  737POPI    C111657  19.460   1.520   4.914  0.0855 -0.0130  0.0021
  737POPI    C211658  19.785   1.381   4.728  0.0625  0.0077 -0.0537
  737POPI    C311659  19.754   1.771   4.811  0.0813 -0.0044  0.0109
  737POPI   PO411660  19.474   1.412   5.199 -0.0511 -0.0338 -0.1968
  737POPI   GL111661  19.710   1.438   5.543  0.0664  0.4824 -0.1250
  737POPI   GL211662  19.331   1.429   5.691 -0.0632 -0.2898  0.0282
  737POPI   C1A11663  19.874   1.542   5.995 -0.0502  0.2656 -0.0343
  737POPI   D2A11664  20.082   1.656   6.435 -0.1261  0.2661  0.0623
  737POPI   C3A11665  20.329   1.381   6.576 -0.0886 -0.0213  0.3473
  737POPI   C4A11666  20.601   1.456   6.902  0.3155  0.2078  0.1340
  737POPI   C1B11667  19.394   1.657   6.018 -0.2344 -0.3473  0.1900
  737POPI   C2B11668  19.576   1.909   6.253 -0.3203 -0.0421 -0.1423
  737POPI   C3B11669  19.803   2.054   6.691 -0.1562  0.1948 -0.0129
  737POPI   C4B11670  20.048   2.297   6.997 -0.1852  0.0715 -0.1538
  738POPI    C111671  14.633   2.333   5.170 -0.2208  0.0115 -0.2310
  738POPI    C211672  14.592   2.002   4.948  0.1598 -0.1282 -0.1016
  738POPI    C311673  14.946   2.091   5.111 -0.0581  0.0882  0.2690
  738POPI   PO411674  14.435   2.340   5.343  0.2667 -0.2697  0.0637
  738POPI   GL111675  14.229   2.276   5.716  0.1785 -0.1693  0.0750
  738POPI   GL211676  14.206   1.960   5.764 -0.3213 -0.1864  0.0060
  738POPI   C1A11677  14.001   2.480   6.040  0.3893 -0.1080  0.3427
  738POPI   D2A11678  13.699   2.386   6.388 -0.1017 -0.0089 -0.0021
  738POPI   C3A11679  13.700   2.643   6.809  0.3138  0.0058  0.2450
  738POPI   C4A11680  13.996   2.956   7.084 -0.3087 -0.0286  0.4107
  738POPI   C1B11681  14.458   2.170   6.098 -0.0262  0.2156 -0.1942
  738POPI   C2B11682  14.677   2.350   6.354 -0.0024  0.1009 -0.1703
  738POPI   C3B11683  14.760   2.307   6.802  0.0702  0.1563  0.1602
  738POPI   C4B11684  15.043   2.534   7.162  0.1753  0.0881  0.0079
  739POPI    C111685  16.524  15.156   5.172 -0.1074  0.0090  0.0269
  739POPI    C211686  16.418  15.419   4.889 -0.3834 -0.1027  0.0241
  739POPI    C311687  16.427  15.028   4.806 -0.1692 -0.1121  0.0855
  739POPI   PO411688  16.750  15.228   5.263  0.1175 -0.1007 -0.0980
  739POPI   GL111689  16.862  14.982   5.646 -0.1081  0.0163  0.1328
  739POPI   GL211690  16.657  14.681   5.566 -0.0778  0.3686  0.1091
  739POPI   C1A11691  17.259  14.929   5.925 -0.0594 -0.1974  0.0277
  739POPI   D2A11692  17.397  14.968   6.353 -0.0438 -0.2206 -0.3481
  739POPI   C3A11693  17.680  15.124   6.730  0.0818 -0.1289 -0.0997
  739POPI   C4A11694  17.749  15.446   6.906  0.0428  0.1895 -0.3357
  739POPI   C1B11695  16.507  14.653   5.921 -0.0493  0.0139 -0.0288
  739POPI   C2B11696  16.357  14.728   6.315  0.0628 -0.1336  0.4668
  739POPI   C3B11697  16.137  14.536   6.714  0.0501 -0.1744 -0.0241
  739POPI   C4B11698  16.099  14.320   7.087 -0.0138 -0.0661 -0.1244
  740POPI    C111699   2.503  12.392   4.817 -0.0483 -0.2070  0.1228
  740POPI    C211700   2.228  12.163   4.638 -0.1568 -0.0405  0.0743
  740POPI    C311701   2.397  12.466   4.438 -0.1289  0.0195  0.1881
  740POPI   PO411702   2.616  12.155   4.951  0.0848  0.1499 -0.0962
  740POPI   GL111703   2.683  12.098   5.366  0.0646 -0.0424 -0.3303
  740POPI   GL211704   2.536  11.933   5.440  0.0472  0.0644 -0.0026
  740POPI   C1A11705   2.824  12.364   5.600  0.0352  0.4553 -0.4510
  740POPI   D2A11706   3.055  12.697   5.577  0.0209 -0.0359  0.3154
  740POPI   C3A11707   3.435  12.612   5.699  0.1870  0.0594  0.2450
  740POPI   C4A11708   3.871  12.701   5.694 -0.0120  0.0218 -0.0832
  740POPI   C1B11709   2.193  11.819   5.516  0.0182 -0.1193  0.1619
  740POPI   C2B11710   1.788  11.793   5.762 -0.2916  0.0312  0.1330
  740POPI   C3B11711   1.509  11.940   6.028  0.2817  0.2079 -0.0498
  740POPI   C4B11712   1.073  12.034   6.138 -0.1286  0.1427 -0.0044
  741POPI    C111713  13.141   5.096   5.202  0.2379  0.0405  0.1706
  741POPI    C211714  12.896   4.918   4.940  0.2127  0.3287 -0.0058
  741POPI    C311715  13.288   4.838   4.934  0.2035  0.2884 -0.0922
  741POPI   PO411716  12.835   5.166   5.355 -0.5250  0.3454 -0.1317
  741POPI   GL111717  12.738   5.091   5.837  0.1363  0.1489  0.1936
  741POPI   GL211718  13.010   4.873   5.839  0.1200  0.1606  0.0477
  741POPI   C1A11719  12.685   5.408   6.211 -0.2436  0.0314 -0.0147
  741POPI   D2A11720  12.956   5.243   6.547 -0.0864 -0.0941 -0.2551
  741POPI   C3A11721  12.806   4.775   6.654  0.1371  0.4728 -0.3069
  741POPI   C4A11722  13.024   4.405   6.665 -0.1475 -0.2174  0.2898
  741POPI   C1B11723  13.148   4.840   6.260 -0.1828  0.2779 -0.1982
  741POPI   C2B11724  13.476   5.127   6.305  0.2744  0.4298 -0.0833
  741POPI   C3B11725  13.852   5.344   6.108 -0.1991  0.1224 -0.0891
  741POPI   C4B11726  14.226   5.119   5.978  0.2012 -0.1583  0.0217
  742POPI    C111727  13.877   2.557   5.424  0.2188  0.0464  0.1983
  742POPI    C211728  13.864   2.950   5.348  0.0529 -0.0113 -0.0867
  742POPI    C311729  14.144   2.722   5.176 -0.1117 -0.0860 -0.2598
  742POPI   PO411730  13.524   2.415   5.414  0.2521 -0.2258  0.0963
  742POPI   GL111731  13.341   2.102   5.737  0.5504 -0.1539  0.2323
  742POPI   GL211732  13.716   2.114   5.801  0.1256 -0.1270  0.0790
  742POPI   C1A11733  13.348   2.042   6.099  0.1538  0.0110  0.0727
  742POPI   D2A11734  13.376   1.901   6.513 -0.0472  0.1199 -0.1739
  742POPI   C3A11735  13.392   2.174   6.914  0.1212 -0.0673 -0.0670
  742POPI   C4A11736  13.576   2.118   7.272  0.0680  0.0947 -0.0464
  742POPI   C1B11737  13.799   1.960   6.174 -0.1042  0.3397 -0.1303
  742POPI   C2B11738  13.894   1.717   6.594  0.0722  0.0289  0.0237
  742POPI   C3B11739  14.240   1.649   6.920 -0.1420  0.0187  0.2152
  742POPI   C4B11740  14.274   1.366   7.219 -0.0463 -0.0051  0.1208
  743POPI    C111741   0.732  10.929   4.852 -0.1390 -0.0170  0.0025
  743POPI    C211742   0.908  10.906   4.493  0.1710 -0.1586  0.1604
  743POPI    C311743   0.783  11.260   4.633  0.1553 -0.0853 -0.0361
  743POPI   PO411744   0.650  10.615   4.778 -0.3104  0.2162 -0.0279
  743POPI   GL111745   0.387  10.442   5.103 -0.0376  0.2560  0.2003
  743POPI   GL211746   0.366  10.214   5.327 -0.0024 -0.2467 -0.0992
  743POPI   C1A11747   0.588  10.694   5.440 -0.0514  0.0237 -0.4135
  743POPI   D2A11748   0.622  10.713   5.758 -0.2573  0.2369  0.1391
  743POPI   C3A11749   0.912  10.743   6.044  0.1950 -0.2301 -0.0013
  743POPI   C4A11750   0.952  10.952   6.490  0.2058  0.0446 -0.2143
  743POPI   C1B11751   0.378  10.290   5.745  0.0936 -0.0257 -0.1923
  743POPI   C2B11752   0.392  10.415   6.167  0.0142  0.1398 -0.3649
  743POPI   C3B11753   0.075  10.403   6.452 -0.0914  0.2939  0.1128
  743POPI   C4B11754  -0.392  10.483   6.470 -0.0026  0.2943 -0.1030
  744POPS   CNO11755  10.881  10.777   4.582 -0.1625  0.2073 -0.0021
  744POPS   PO411756  10.934  11.145   4.776 -0.0807 -0.0688 -0.0407
  744POPS   GL111757  10.991  11.207   5.282 -0.3009 -0.0292  0.3433
  744POPS   GL211758  11.204  10.987   5.457 -0.2392 -0.1738  0.2889
  744POPS   C1A11759  10.806  11.279   5.587  0.3648  0.1472  0.0705
  744POPS   D2A11760  10.374  11.477   5.685  0.1862 -0.1048  0.0094
  744POPS   C3A11761  10.127  11.623   6.094 -0.0754 -0.0088  0.0432
  744POPS   C4A11762   9.974  11.730   6.523  0.0487 -0.2377  0.0054
  744POPS   C1B11763  11.099  10.977   5.914  0.0834 -0.3612 -0.1462
  744POPS   C2B11764  10.692  11.134   6.106  0.0113 -0.0976 -0.1147
  744POPS   C3B11765  10.339  11.252   6.326  0.0093  0.0042  0.1283
  744POPS   C4B11766   9.976  11.166   6.500 -0.0441  0.2369  0.3721
  745POPS   CNO11767   6.589   5.933   4.581 -0.1307  0.0021 -0.0206
  745POPS   PO411768   6.986   5.960   4.815  0.0574 -0.0477  0.2733
  745POPS   GL111769   6.907   5.991   5.214 -0.0456  0.0368 -0.0214
  745POPS   GL211770   6.604   6.118   5.138 -0.1540  0.4167 -0.4126
  745POPS   C1A11771   7.129   5.927   5.652 -0.1182 -0.2597 -0.1522
  745POPS   D2A11772   7.177   6.023   6.042 -0.1243 -0.1956 -0.1627
  745POPS   C3A11773   7.084   5.834   6.361  0.1226 -0.0600 -0.3781
  745POPS   C4A11774   6.745   5.623   6.529  0.1736  0.2209  0.2822
  745POPS   C1B11775   6.736   6.334   5.563 -0.4314  0.0846  0.0691
  745POPS   C2B11776   6.595   6.455   5.920  0.0321  0.2372  0.2902
  745POPS   C3B11777   6.622   6.749   6.372 -0.0928 -0.1013  0.0660
  745POPS   C4B11778   6.828   6.766   6.826  0.1078  0.2244  0.0631
  746POPS   CNO11779  15.004   1.273   5.023 -0.0258  0.3390 -0.0567
  746POPS   PO411780  14.874   1.577   5.318 -0.0269 -0.1403  0.1465
  746POPS   GL111781  14.778   1.544   5.755  0.1215  0.0174 -0.0006
  746POPS   GL211782  15.081   1.442   6.052 -0.2844  0.1976  0.3008
  746POPS   C1A11783  14.735   1.746   6.136  0.0530 -0.0620  0.0847
  746POPS   D2A11784  14.589   1.856   6.563 -0.2074 -0.2129  0.3096
  746POPS   C3A11785  14.216   2.080   6.579  0.1741 -0.0640 -0.0552
  746POPS   C4A11786  13.991   2.113   7.020  0.1148  0.0475  0.0620
  746POPS   C1B11787  14.995   1.567   6.515 -0.0651  0.0432 -0.2807
  746POPS   C2B11788  15.319   1.507   6.811  0.1529  0.2135 -0.0764
  746POPS   C3B11789  15.429   1.177   7.035 -0.0784 -0.0346  0.0257
  746POPS   C4B11790  15.347   0.729   6.939 -0.3288 -0.0324  0.1918
  747POPS   CNO11791  19.157  19.138   5.430  0.0017  0.0620 -0.0506
  747POPS   PO411792  19.072  18.764   5.216  0.3257  0.2463  0.2344
  747POPS   GL111793  19.284  18.709   5.683 -0.0420 -0.0201  0.0308
  747POPS   GL211794  19.478  18.941   5.788 -0.0010 -0.1522 -0.3720
  747POPS   C1A11795  19.133  18.603   6.035  0.1087 -0.0480 -0.1400
  747POPS   D2A11796  19.039  18.507   6.520 -0.0713  0.1046  0.2729
  747POPS   C3A11797  19.200  18.742   6.788  0.2412 -0.0216 -0.1368
  747POPS   C4A11798  19.256  18.982   7.179 -0.1814 -0.0628  0.3592
  747POPS   C1B11799  19.430  18.906   6.341  0.3568 -0.3412  0.4179
  747POPS   C2B11800  19.417  19.222   6.742 -0.0300  0.1459 -0.1466
  747POPS   C3B11801  19.721  19.354   7.048  0.0700  0.1841 -0.3334
  747POPS   C4B11802  19.825  19.448   7.444 -0.0215  0.0526  0.0256
  748POPS   CNO11803   2.817   3.216   4.755  0.0619 -0.4909 -0.0271
  748POPS   PO411804   2.965   2.778   4.834 -0.2379  0.0718  0.3721
  748POPS   GL111805   3.236   2.833   5.175 -0.0575  0.0649  0.1879
  748POPS   GL211806   3.439   2.924   5.343  0.3994 -0.4149  0.0712
  748POPS   C1A11807   3.060   2.595   5.456 -0.0181 -0.1227  0.0537
  748POPS   D2A11808   2.887   2.493   5.814  0.3531  0.1101 -0.1283
  748POPS   C3A11809   2.424   2.387   5.922  0.1180 -0.0709 -0.2108
  748POPS   C4A11810   2.069   2.698   5.695  0.2340 -0.0502  0.2293
  748POPS   C1B11811   3.690   3.192   5.602 -0.2236  0.2763 -0.1093
  748POPS   C2B11812   3.820   3.256   5.973  0.0548 -0.0178  0.2846
  748POPS   C3B11813   3.746   3.391   6.467 -0.0307  0.1297 -0.0201
  748POPS   C4B11814   3.365   3.372   6.578 -0.1967 -0.0715  0.2274
  749POPS   CNO11815   2.724   4.156   5.075 -0.1028 -0.1177 -0.1719
  749POPS   PO411816   2.587   3.714   4.937  0.3460 -0.1182  0.3834
  749POPS   GL111817   2.470   3.678   5.370 -0.1131  0.3199  0.0486
  749POPS   GL211818   2.660   3.894   5.584  0.0775 -0.0613 -0.1159
  749POPS   C1A11819   2.777   3.453   5.760  0.0871 -0.1843 -0.0579
  749POPS   D2A11820   3.019   3.216   6.251 -0.0332 -0.2257  0.0203
  749POPS   C3A11821   3.037   2.996   6.569  0.3763  0.0036 -0.3550
  749POPS   C4A11822   3.166   2.701   6.722  0.2491  0.2307 -0.1200
  749POPS   C1B11823   2.502   4.177   5.961  0.0897 -0.2133 -0.0563
  749POPS   C2B11824   2.665   4.562   6.254 -0.2060 -0.2646 -0.0653
  749POPS   C3B11825   2.855   4.734   6.670 -0.0809  0.1134 -0.0418
  749POPS   C4B11826   2.979   4.886   7.110 -0.1044  0.3442  0.2647
  750POPS   CNO11827  17.497  18.328   5.027 -0.2820 -0.1381  0.2372
  750POPS   PO411828  17.899  18.160   5.293  0.1979  0.0357  0.0154
  750POPS   GL111829  17.697  18.207   5.746 -0.0586  0.2319  0.1231
  750POPS   GL211830  17.913  18.258   5.964 -0.0412  0.4186 -0.0065
  750POPS   C1A11831  17.462  18.204   6.173  0.3484 -0.0107  0.1072
  750POPS   D2A11832  17.265  18.136   6.546  0.1866  0.2672  0.0756
  750POPS   C3A11833  17.163  17.759   6.809  0.1564 -0.3518  0.1036
  750POPS   C4A11834  17.279  17.363   7.038 -0.1811 -0.2806 -0.1129
  750POPS   C1B11835  17.879  17.881   6.224  0.0801 -0.3044 -0.4392
  750POPS   C2B11836  17.562  17.731   6.481  0.1514 -0.1130  0.4071
  750POPS   C3B11837  17.617  17.918   6.901  0.1176 -0.1621 -0.3112
  750POPS   C4B11838  17.912  18.258   7.070  0.1605  0.0328  0.0999
  751POPS   CNO11839   2.768  15.309   4.705  0.3710  0.2821  0.2118
  751POPS   PO411840   2.403  15.089   4.534 -0.0024  0.4696 -0.0325
  751POPS   GL111841   2.533  14.934   4.990 -0.0371 -0.0461  0.1422
  751POPS   GL211842   2.661  14.659   5.105  0.2106  0.2235  0.2068
  751POPS   C1A11843   2.293  15.062   5.425 -0.1635 -0.0223  0.2405
  751POPS   D2A11844   2.387  15.084   5.804 -0.1692 -0.4389  0.0931
  751POPS   C3A11845   2.707  15.013   6.082  0.2844  0.3426  0.0888
  751POPS   C4A11846   2.866  14.903   6.501 -0.2171  0.0599 -0.0911
  751POPS   C1B11847   2.397  14.619   5.378 -0.0853 -0.1710  0.0384
  751POPS   C2B11848   2.207  14.610   5.705 -0.0458 -0.0007 -0.2649
  751POPS   C3B11849   2.390  14.550   6.115  0.0084 -0.0948  0.2527
  751POPS   C4B11850   2.478  14.253   6.289 -0.0487 -0.2167  0.0808
  752POPS   CNO11851  13.184  18.648   4.885 -0.0550 -0.0276 -0.3343
  752POPS   PO411852  12.935  18.295   5.091 -0.1189  0.0994 -0.2428
  752POPS   GL111853  13.005  18.429   5.522  0.1052 -0.2270  0.2984
  752POPS   GL211854  13.219  18.733   5.588  0.0526 -0.3034  0.0618
  752POPS   C1A11855  13.061  18.389   5.954  0.1053  0.1066  0.1246
  752POPS   D2A11856  13.317  18.176   6.278  0.0255  0.1196 -0.1084
  752POPS   C3A11857  13.224  18.426   6.721  0.0128  0.1528 -0.0517
  752POPS   C4A11858  13.614  18.613   6.989 -0.1331 -0.2689  0.2992
  752POPS   C1B11859  13.524  18.511   5.848  0.1408  0.0198  0.3510
  752POPS   C2B11860  13.801  18.508   6.233  0.0625  0.2193  0.1780
  752POPS   C3B11861  13.770  18.296   6.610 -0.0550 -0.2982  0.0025
  752POPS   C4B11862  14.087  18.138   6.894  0.2478  0.1914  0.0889
  753POPS   CNO11863  12.996  12.702   4.603 -0.1684 -0.1776 -0.2990
  753POPS   PO411864  13.306  12.583   4.935 -0.1662  0.0431 -0.0154
  753POPS   GL111865  13.116  12.569   5.310  0.0309 -0.2249 -0.2593
  753POPS   GL211866  12.926  12.886   5.297 -0.1491 -0.2594  0.1531
  753POPS   C1A11867  12.867  12.376   5.625 -0.1204  0.1807  0.1921
  753POPS   D2A11868  12.708  12.112   6.009 -0.2357 -0.0331  0.5965
  753POPS   C3A11869  12.845  12.152   6.373  0.3180 -0.1368 -0.0635
  753POPS   C4A11870  13.008  12.239   6.828 -0.1406 -0.3202  0.0768
  753POPS   C1B11871  13.141  12.771   5.762 -0.2635  0.3620 -0.5428
  753POPS   C2B11872  13.055  12.497   6.063 -0.2778  0.0488  0.1240
  753POPS   C3B11873  13.269  12.458   6.453  0.2568  0.0660 -0.1864
  753POPS   C4B11874  13.573  12.245   6.806 -0.1705  0.0946 -0.0447
  754POPS   CNO11875  14.846  13.931   5.265 -0.1729 -0.1364 -0.1766
  754POPS   PO411876  14.604  13.645   4.983  0.2531 -0.1370 -0.0928
  754POPS   GL111877  14.632  13.423   5.340  0.4869 -0.1958 -0.0358
  754POPS   GL211878  14.883  13.542   5.659  0.1506 -0.2800 -0.3853
  754POPS   C1A11879  14.390  13.444   5.739  0.1474 -0.1402 -0.0515
  754POPS   D2A11880  14.254  13.601   6.239  0.1664 -0.1302  0.1623
  754POPS   C3A11881  14.588  13.469   6.615  0.2527 -0.0018 -0.0425
  754POPS   C4A11882  15.048  13.205   6.674  0.3628  0.0186  0.2464
  754POPS   C1B11883  14.711  13.473   6.124  0.0271 -0.1066  0.1880
  754POPS   C2B11884  14.629  13.100   6.339  0.2650  0.1354  0.1228
  754POPS   C3B11885  14.675  12.647   6.206  0.0645  0.1403 -0.1102
  754POPS   C4B11886  14.440  12.338   6.064  0.5087 -0.2708  0.0775
  755POPS   CNO11887  14.061  17.552   4.565 -0.0103  0.0598 -0.3266
  755POPS   PO411888  13.978  17.908   4.871  0.0820 -0.0261 -0.3353
  755POPS   GL111889  13.885  17.948   5.312 -0.2380 -0.1058 -0.0619
  755POPS   GL211890  13.555  17.909   5.391  0.0096  0.0272  0.3400
  755POPS   C1A11891  13.991  17.848   5.781 -0.0789 -0.0334  0.2927
  755POPS   D2A11892  13.766  18.010   6.076 -0.0594  0.0290  0.0697
  755POPS   C3A11893  13.816  17.795   6.477 -0.0762  0.2157  0.0899
  755POPS   C4A11894  13.879  17.444   6.848  0.4501 -0.1292 -0.0312
  755POPS   C1B11895  13.309  17.946   5.812  0.2895  0.3766 -0.1964
  755POPS   C2B11896  12.811  17.951   6.026 -0.0408 -0.0401 -0.0806
  755POPS   C3B11897  12.395  17.844   6.231  0.0077  0.0262  0.2179
  755POPS   C4B11898  12.506  17.962   6.744  0.1071  0.0658  0.0470
  756POPS   CNO11899   8.674   4.775   4.659  0.2970  0.0986 -0.0156
  756POPS   PO411900   8.880   4.719   5.029  0.2960  0.2104  0.1747
  756POPS   GL111901   9.120   4.549   5.228 -0.1941  0.1115  0.0080
  756POPS   GL211902   8.895   4.330   5.447  0.2033  0.1383 -0.0313
  756POPS   C1A11903   9.434   4.393   5.532  0.1409 -0.1586 -0.1448
  756POPS   D2A11904   9.282   4.097   5.739  0.2225  0.3040 -0.1633
  756POPS   C3A11905   9.287   4.044   6.151  0.1750 -0.0655 -0.1377
  756POPS   C4A11906   8.962   4.067   6.507  0.1269  0.1569 -0.2053
  756POPS   C1B11907   8.994   4.554   5.717 -0.2474  0.0834 -0.1423
  756POPS   C2B11908   9.269   4.543   6.083  0.1743 -0.0640  0.1878
  756POPS   C3B11909   9.258   4.574   6.537  0.0349  0.3187  0.0365
  756POPS   C4B11910   9.090   4.445   6.872 -0.0982  0.1138 -0.1161
  757POPS   CNO11911   8.692   2.508   4.536  0.1131  0.1495 -0.1869
  757POPS   PO411912   8.999   2.796   4.735 -0.2486 -0.1243  0.0641
  757POPS   GL111913   9.103   3.080   5.158  0.2792  0.2483  0.0648
  757POPS   GL211914   8.908   3.249   5.380 -0.2805 -0.1037  0.2138
  757POPS   C1A11915   9.435   3.226   5.547  0.2749 -0.2640  0.2611
  757POPS   D2A11916   9.487   3.450   5.908  0.2556  0.3105  0.2074
  757POPS   C3A11917   9.486   3.180   6.303  0.2249  0.0426  0.3838
  757POPS   C4A11918   9.721   2.871   6.383 -0.0358 -0.1721 -0.0125
  757POPS   C1B11919   8.527   3.130   5.598 -0.0359 -0.2495 -0.0139
  757POPS   C2B11920   8.124   3.299   5.667  0.0440  0.0024 -0.0617
  757POPS   C3B11921   7.692   3.536   5.913  0.0855 -0.0956 -0.1073
  757POPS   C4B11922   7.689   3.821   6.307  0.0583 -0.1810  0.2605
  758POPS   CNO11923   0.255  15.789   4.687  0.4193 -0.0551  0.2440
  758POPS   PO411924   0.302  15.400   4.962 -0.1515  0.3871  0.2924
  758POPS   GL111925   0.422  15.597   5.260  0.0915 -0.0251  0.2667
  758POPS   GL211926   0.382  15.777   5.629 -0.0899  0.1351 -0.1122
  758POPS   C1A11927   0.856  15.629   5.495 -0.1739 -0.0630 -0.0161
  758POPS   D2A11928   1.115  15.333   5.459  0.1069 -0.0204 -0.1269
  758POPS   C3A11929   1.449  15.278   5.777 -0.0746  0.2600  0.0646
  758POPS   C4A11930   1.463  15.083   6.183 -0.1549  0.0275  0.3452
  758POPS   C1B11931   0.221  15.703   6.018  0.1794 -0.0882  0.0637
  758POPS   C2B11932   0.302  15.758   6.467  0.2171 -0.0853  0.3569
  758POPS   C3B11933   0.384  15.580   6.795 -0.0999  0.2166 -0.0787
  758POPS   C4B11934   0.588  15.592   7.246  0.2093  0.2548  0.0074
  759POPS   CNO11935  10.338   3.830   4.579 -0.1478 -0.3127  0.2160
  759POPS   PO411936  10.635   3.720   4.980 -0.0175 -0.0911  0.0002
  759POPS   GL111937  10.576   3.519   5.305  0.2394  0.1475 -0.4317
  759POPS   GL211938  10.707   3.254   5.323 -0.0650  0.0030 -0.1434
  759POPS   C1A11939  10.586   3.549   5.679 -0.3506 -0.1556  0.2480
  759POPS   D2A11940  10.563   3.569   6.113 -0.0591  0.2849 -0.0010
  759POPS   C3A11941  10.931   3.605   6.411  0.1587  0.0652  0.1962
  759POPS   C4A11942  11.173   3.757   6.791  0.1339  0.2107  0.0331
  759POPS   C1B11943  10.424   3.064   5.499  0.1544 -0.0993  0.1775
  759POPS   C2B11944  10.328   3.183   5.906  0.0250 -0.2322 -0.3293
  759POPS   C3B11945  10.313   3.297   6.452  0.1883  0.1979 -0.1139
  759POPS   C4B11946  10.157   3.057   6.768  0.2766  0.3280 -0.0026
  760POPS   CNO11947   6.857  14.689   4.431  0.3090  0.0967  0.2484
  760POPS   PO411948   7.049  14.561   4.745  0.0102  0.0612  0.2738
  760POPS   GL111949   6.956  14.514   5.285  0.2752 -0.0492 -0.0320
  760POPS   GL211950   6.565  14.533   5.298  0.1092 -0.3785 -0.0396
  760POPS   C1A11951   7.036  14.105   5.532 -0.2549 -0.2151 -0.2546
  760POPS   D2A11952   7.022  13.666   5.620 -0.2065 -0.0762  0.1606
  760POPS   C3A11953   6.967  13.539   5.997 -0.3564 -0.1289 -0.2881
  760POPS   C4A11954   6.747  13.658   6.373  0.2671  0.1948 -0.0459
  760POPS   C1B11955   6.543  14.407   5.675  0.0334 -0.0119 -0.2039
  760POPS   C2B11956   6.717  14.460   6.070  0.2016  0.1619 -0.1014
  760POPS   C3B11957   6.629  14.236   6.426 -0.1064  0.0694 -0.6043
  760POPS   C4B11958   6.487  14.031   6.776 -0.1886 -0.0291 -0.0706
  761POPS   CNO11959  16.020  18.687   4.422 -0.1124 -0.1041 -0.1483
  761POPS   PO411960  15.968  18.474   4.930  0.0820  0.0815 -0.0483
  761POPS   GL111961  15.884  18.321   5.319 -0.0909 -0.0228  0.1242
  761POPS   GL211962  16.129  18.354   5.555  0.1255  0.1528  0.0624
  761POPS   C1A11963  15.581  18.231   5.642  0.0035  0.1354 -0.4201
  761POPS   D2A11964  15.503  18.225   6.189  0.2325 -0.1729  0.0224
  761POPS   C3A11965  15.357  18.587   6.420 -0.2120 -0.2912 -0.0578
  761POPS   C4A11966  15.129  18.872   6.369 -0.3785 -0.1875  0.3441
  761POPS   C1B11967  15.925  18.054   5.931  0.3375  0.1666 -0.0416
  761POPS   C2B11968  15.575  17.747   6.016  0.0852 -0.0871  0.2580
  761POPS   C3B11969  15.411  17.393   6.365 -0.0294  0.0488 -0.2817
  761POPS   C4B11970  15.281  17.425   6.826 -0.3763  0.0534 -0.0584
  762POPS   CNO11971  11.473  18.873   4.691  0.1448 -0.0943  0.0181
  762POPS   PO411972  11.422  18.581   5.011  0.1408  0.0116  0.1482
  762POPS   GL111973  11.042  18.787   5.180 -0.0448 -0.0605  0.0381
  762POPS   GL211974  11.132  19.119   5.181  0.2360  0.1389  0.0935
  762POPS   C1A11975  10.642  18.719   5.396 -0.0402 -0.0808 -0.1678
  762POPS   D2A11976  10.605  18.846   5.855 -0.0409 -0.0774 -0.1449
  762POPS   C3A11977  10.951  19.025   6.251  0.2208 -0.0619 -0.3962
  762POPS   C4A11978  11.221  18.741   6.375  0.0131 -0.2342 -0.1119
  762POPS   C1B11979  11.148  18.967   5.652  0.3035  0.0331 -0.2676
  762POPS   C2B11980  11.054  18.547   5.899 -0.1023 -0.0384  0.0732
  762POPS   C3B11981  10.774  18.498   6.231  0.2001 -0.0984 -0.0094
  762POPS   C4B11982  10.536  18.237   6.504 -0.0450 -0.0007 -0.2961
  763POPS   CNO11983   9.281  11.593   4.536  0.0512  0.1834  0.1476
  763POPS   PO411984   9.290  12.054   4.756 -0.2450  0.0365  0.0090
  763POPS   GL111985   9.025  12.075   5.204 -0.2056  0.0792 -0.0246
  763POPS   GL211986   9.095  12.339   5.331 -0.0324 -0.1531 -0.0133
  763POPS   C1A11987   8.656  12.103   5.546 -0.0461 -0.0402  0.0334
  763POPS   D2A11988   8.618  11.931   5.987  0.0391 -0.2345 -0.2291
  763POPS   C3A11989   8.420  12.230   6.368  0.1937 -0.2821  0.0374
  763POPS   C4A11990   8.380  12.215   6.868  0.2986 -0.1078 -0.1482
  763POPS   C1B11991   9.335  12.299   5.589 -0.0208  0.0137  0.0652
  763POPS   C2B11992   9.675  12.287   5.754  0.2198  0.1553  0.0452
  763POPS   C3B11993  10.008  12.001   5.518 -0.2437  0.0839  0.1201
  763POPS   C4B11994  10.373  11.851   5.274 -0.1353 -0.1382 -0.3887
  764POPS   CNO11995  18.193   4.731   5.042  0.2034  0.1345  0.2454
  764POPS   PO411996  18.146   5.175   5.016  0.2132 -0.0763  0.1876
  764POPS   GL111997  18.331   5.055   5.492 -0.0363 -0.0110 -0.1938
  764POPS   GL211998  18.602   4.997   5.512 -0.1907 -0.0326 -0.0853
  764POPS   C1A11999  18.158   5.015   5.900 -0.1908  0.2785  0.0782
  764POPS   D2A12000  17.936   5.248   6.091 -0.1567  0.1118  0.1358
  764POPS   C3A12001  17.784   5.420   6.450  0.1709 -0.2122 -0.1580
  764POPS   C4A12002  18.108   5.431   6.743 -0.4147  0.1410  0.2233
  764POPS   C1B12003  18.616   4.975   5.983  0.1517 -0.0811 -0.3991
  764POPS   C2B12004  18.473   4.777   6.299  0.0450  0.2600 -0.2648
  764POPS   C3B12005  18.171   4.842   6.599 -0.0431 -0.0373  0.0336
  764POPS   C4B12006  17.982   4.724   6.970 -0.0894 -0.0968  0.2389
  765POPS   CNO12007   6.496  15.037   4.227 -0.0145 -0.2134 -0.1899
  765POPS   PO412008   6.223  14.992   4.560  0.1076  0.0088 -0.1548
  765POPS   GL112009   6.222  14.878   5.023  0.1642  0.2800 -0.1145
  765POPS   GL212010   6.029  14.967   5.224  0.0791  0.1231 -0.1726
  765POPS   C1A12011   6.513  15.048   5.373  0.0625 -0.0696 -0.2831
  765POPS   D2A12012   6.881  14.947   5.653 -0.2067 -0.3151  0.0964
  765POPS   C3A12013   7.063  15.107   6.033 -0.0425  0.0451 -0.4037
  765POPS   C4A12014   7.363  15.173   6.254  0.2257 -0.0921 -0.2095
  765POPS   C1B12015   6.154  14.690   5.490 -0.0600  0.3179 -0.1187
  765POPS   C2B12016   6.241  14.717   5.999  0.3423 -0.2467  0.2683
  765POPS   C3B12017   6.499  14.758   6.444 -0.1445  0.1575 -0.1185
  765POPS   C4B12018   6.662  14.657   6.787 -0.0170 -0.0017 -0.0382
  766POPS   CNO12019   4.865  19.185   4.699  0.0194 -0.3415  0.0220
  766POPS   PO412020   5.266  19.037   4.482  0.1166  0.2010 -0.3402
  766POPS   GL112021   5.348  18.966   4.907 -0.0011  0.2033  0.0637
  766POPS   GL212022   5.066  18.815   5.029 -0.2641  0.0485  0.1371
  766POPS   C1A12023   5.395  19.070   5.324  0.1352 -0.1132  0.0482
  766POPS   D2A12024   5.508  19.060   5.742 -0.1488 -0.0512  0.1641
  766POPS   C3A12025   5.181  19.009   6.028 -0.1951  0.3027  0.1050
  766POPS   C4A12026   4.802  19.118   6.060 -0.2229 -0.1938  0.4013
  766POPS   C1B12027   5.403  18.547   5.172  0.0422 -0.0930  0.5405
  766POPS   C2B12028   5.509  18.207   5.448 -0.0758 -0.2692 -0.1580
  766POPS   C3B12029   5.470  17.949   5.821  0.1393  0.0826  0.6086
  766POPS   C4B12030   5.655  17.941   6.196  0.0261 -0.2054  0.0043
  767POPS   CNO12031  15.117   4.988   5.048 -0.2095  0.2303  0.1048
  767POPS   PO412032  15.235   4.993   5.481  0.0305  0.0781  0.1223
  767POPS   GL112033  15.023   4.895   5.836  0.3086  0.3109  0.2370
  767POPS   GL212034  15.075   4.765   6.168 -0.2660 -0.1017 -0.2756
  767POPS   C1A12035  14.898   4.384   5.808 -0.0467  0.0953  0.1964
  767POPS   D2A12036  15.032   4.143   6.142  0.2111 -0.1582  0.1570
  767POPS   C3A12037  15.098   4.386   6.534  0.1405  0.1974  0.1314
  767POPS   C4A12038  15.311   4.540   6.975  0.1659  0.3730 -0.1292
  767POPS   C1B12039  15.211   4.857   6.555 -0.1783  0.1782 -0.0957
  767POPS   C2B12040  15.214   5.075   6.897 -0.0407  0.0543 -0.1703
  767POPS   C3B12041  15.001   5.447   7.158 -0.0683 -0.2394 -0.0017
  767POPS   C4B12042  15.261   5.767   7.287  0.0675 -0.4071  0.4501
  768POPS   CNO12043  10.681  14.893   4.948  0.1708 -0.1508 -0.1679
  768POPS   PO412044  10.472  15.154   4.816  0.1326 -0.2266  0.1053
  768POPS   GL112045  10.464  15.252   5.243  0.3816  0.1436  0.1381
  768POPS   GL212046  10.203  15.495   5.271  0.1807 -0.1831  0.2941
  768POPS   C1A12047  10.579  15.287   5.613  0.1297 -0.1605  0.0375
  768POPS   D2A12048  10.849  15.315   6.012  0.2981  0.4600  0.0970
  768POPS   C3A12049  10.700  15.471   6.507 -0.4408 -0.1880 -0.1715
  768POPS   C4A12050  10.561  15.523   6.979 -0.0235 -0.0943 -0.0017
  768POPS   C1B12051  10.071  15.330   5.690 -0.0237 -0.0259 -0.2054
  768POPS   C2B12052   9.693  15.282   5.924  0.0584 -0.2484 -0.1472
  768POPS   C3B12053   9.312  15.189   6.249 -0.1656 -0.0207  0.0642
  768POPS   C4B12054   8.984  14.932   6.265  0.0981 -0.0461  0.0963
  769POPS   CNO12055   6.154   8.813   4.563  0.4185 -0.2468 -0.1180
  769POPS   PO412056   6.383   8.972   4.895  0.0983  0.0228 -0.0284
  769POPS   GL112057   6.450   8.863   5.226  0.1288  0.1469 -0.1505
  769POPS   GL212058   6.225   8.678   5.357  0.1942 -0.0123 -0.3157
  769POPS   C1A12059   6.610   8.978   5.583  0.1176  0.2622 -0.0333
  769POPS   D2A12060   6.727   9.461   5.696  0.0192  0.1251  0.3499
  769POPS   C3A12061   6.937   9.508   6.036 -0.0325 -0.2185  0.0559
  769POPS   C4A12062   7.285   9.361   6.344  0.2531  0.3790 -0.2749
  769POPS   C1B12063   6.218   8.610   5.764  0.6096  0.2304 -0.3440
  769POPS   C2B12064   6.105   8.666   6.110  0.2456  0.0429 -0.2840
  769POPS   C3B12065   6.039   8.975   6.410  0.3702 -0.0484 -0.0657
  769POPS   C4B12066   6.097   9.277   6.743  0.0467  0.1959 -0.0719
  770POPS   CNO12067   0.909   2.074   5.047 -0.0415  0.1957 -0.4131
  770POPS   PO412068   1.345   1.899   4.917  0.3375  0.1154 -0.1607
  770POPS   GL112069   1.502   1.996   5.349  0.1298 -0.0236 -0.1177
  770POPS   GL212070   1.149   2.148   5.501 -0.2538  0.2347  0.2267
  770POPS   C1A12071   1.585   2.306   5.582  0.0991 -0.0664  0.4171
  770POPS   D2A12072   1.599   2.344   5.959 -0.1200 -0.4397 -0.1663
  770POPS   C3A12073   1.984   2.546   6.149  0.0366  0.0312  0.0760
  770POPS   C4A12074   2.284   2.767   6.293  0.1555  0.1268  0.0916
  770POPS   C1B12075   0.970   2.302   5.950 -0.4182  0.0609 -0.0469
  770POPS   C2B12076   0.760   2.545   6.314 -0.0275  0.2785 -0.0344
  770POPS   C3B12077   0.532   2.984   6.445 -0.1343 -0.2674  0.1441
  770POPS   C4B12078   0.615   3.510   6.364  0.0799 -0.1443  0.2474
  771POPS   CNO12079  19.071   4.291   4.860  0.0596 -0.0371  0.0345
  771POPS   PO412080  19.331   4.096   4.998 -0.1957 -0.1408 -0.2550
  771POPS   GL112081  19.163   3.903   5.308  0.1145  0.3200  0.3326
  771POPS   GL212082  19.331   3.602   5.303 -0.0413 -0.1900  0.4342
  771POPS   C1A12083  19.273   3.823   5.766 -0.0593  0.3528 -0.0836
  771POPS   D2A12084  19.111   3.902   6.177 -0.0993 -0.0594  0.1813
  771POPS   C3A12085  19.137   3.715   6.652 -0.1020 -0.0912  0.0325
  771POPS   C4A12086  18.890   3.656   7.030  0.3828  0.3560 -0.0562
  771POPS   C1B12087  19.379   3.339   5.725 -0.0385  0.0681  0.1267
  771POPS   C2B12088  19.326   3.339   6.151  0.1736 -0.1713 -0.0527
  771POPS   C3B12089  19.024   3.189   6.507 -0.0973 -0.0084 -0.0680
  771POPS   C4B12090  18.760   2.803   6.556  0.3040  0.2318  0.0742
  772POPS   CNO12091   7.608   5.055   4.887  0.1802  0.1452 -0.0442
  772POPS   PO412092   7.197   4.980   5.116 -0.1608  0.0585  0.1100
  772POPS   GL112093   7.393   4.967   5.442  0.1813  0.0567 -0.3510
  772POPS   GL212094   7.481   4.619   5.559 -0.0659  0.1093  0.1791
  772POPS   C1A12095   7.353   5.039   5.892 -0.1399 -0.2206  0.1425
  772POPS   D2A12096   7.310   4.966   6.342 -0.1403  0.2351  0.0575
  772POPS   C3A12097   7.013   4.809   6.476  0.2735  0.1768 -0.0164
  772POPS   C4A12098   6.884   5.011   6.904  0.0296  0.1682 -0.0109
  772POPS   C1B12099   7.371   4.554   5.930  0.4757  0.2520 -0.0541
  772POPS   C2B12100   7.402   4.400   6.349  0.1163 -0.0215 -0.1363
  772POPS   C3B12101   7.656   4.526   6.581 -0.1073  0.0573  0.1267
  772POPS   C4B12102   7.800   4.817   6.885  0.0565  0.2277  0.0355
  773POPS   CNO12103   8.700   5.796   4.588 -0.1777 -0.3464  0.2333
  773POPS   PO412104   8.833   5.545   4.942 -0.0115  0.0754 -0.2589
  773POPS   GL112105   8.834   5.554   5.343  0.1718 -0.1351  0.1232
  773POPS   GL212106   9.099   5.745   5.452 -0.0677  0.1138 -0.0429
  773POPS   C1A12107   8.976   5.438   5.737  0.2241  0.2749  0.0137
  773POPS   D2A12108   8.964   5.397   6.232 -0.1662  0.1613  0.2584
  773POPS   C3A12109   9.322   5.652   6.431 -0.0717 -0.3457 -0.1642
  773POPS   C4A12110   9.608   5.763   6.821 -0.0739 -0.2392 -0.1136
  773POPS   C1B12111   9.300   6.086   5.736  0.0587  0.0277  0.2396
  773POPS   C2B12112   9.349   6.149   6.154  0.1388 -0.0385 -0.0750
  773POPS   C3B12113   9.342   6.143   6.616 -0.0685 -0.1281 -0.1131
  773POPS   C4B12114   9.286   6.528   6.789  0.3735  0.2822 -0.1420
  774POPS   CNO12115  17.529   2.622   4.882 -0.0729  0.1655 -0.1833
  774POPS   PO412116  17.224   2.302   5.166 -0.0563  0.0515 -0.0800
  774POPS   GL112117  17.454   2.549   5.524 -0.1512  0.1839 -0.1428
  774POPS   GL212118  17.614   2.288   5.607 -0.2009  0.0512  0.2747
  774POPS   C1A12119  17.897   2.693   5.780  0.0713 -0.1197  0.0975
  774POPS   D2A12120  18.236   2.352   5.836  0.0827 -0.0469 -0.1112
  774POPS   C3A12121  18.074   2.130   6.214  0.2651 -0.0624  0.0796
  774POPS   C4A12122  17.669   1.940   6.252  0.0456 -0.0311 -0.1437
  774POPS   C1B12123  17.612   2.387   6.052 -0.1964  0.1523  0.3181
  774POPS   C2B12124  17.805   2.735   6.290  0.2467  0.2476 -0.0796
  774POPS   C3B12125  18.074   2.917   6.599 -0.0688 -0.1570  0.0013
  774POPS   C4B12126  18.040   3.366   6.559 -0.0565 -0.0034  0.0689
  775POPS   CNO12127  11.826  11.119   5.363 -0.1127 -0.1410  0.0741
  775POPS   PO412128  12.164  11.221   5.113  0.0629  0.2888  0.0868
  775POPS   GL112129  12.172  11.581   5.233 -0.0146  0.2328  0.3456
  775POPS   GL212130  11.832  11.586   5.351  0.0610 -0.0918  0.0439
  775POPS   C1A12131  12.268  11.853   5.618 -0.0079  0.2691  0.0108
  775POPS   D2A12132  12.035  11.996   5.991 -0.1254  0.1364  0.2103
  775POPS   C3A12133  12.092  12.266   6.298  0.0749 -0.1955 -0.0715
  775POPS   C4A12134  11.950  12.422   6.712 -0.3193 -0.0134  0.3213
  775POPS   C1B12135  11.943  11.432   5.743 -0.3029 -0.1403  0.1272
  775POPS   C2B12136  12.130  11.483   6.070 -0.0192  0.0158  0.0501
  775POPS   C3B12137  12.417  11.760   6.282 -0.0202 -0.1064 -0.0742
  775POPS   C4B12138  12.291  11.977   6.634 -0.0414 -0.0470 -0.0404
  776POPS   CNO12139   2.273  19.651   4.712  0.2524 -0.0132  0.2513
  776POPS   PO412140   2.365  19.231   5.005  0.2130 -0.1549 -0.1026
  776POPS   GL112141   2.176  19.363   5.469  0.1404  0.0824  0.0001
  776POPS   GL212142   2.302  19.631   5.628  0.0584  0.2953  0.0453
  776POPS   C1A12143   2.217  19.209   5.935 -0.0067  0.1573  0.0606
  776POPS   D2A12144   2.407  19.265   6.190  0.2011 -0.1957 -0.3634
  776POPS   C3A12145   2.374  19.552   6.539  0.0896 -0.0466  0.0673
  776POPS   C4A12146   2.509  19.362   6.865 -0.1582  0.0122 -0.3641
  776POPS   C1B12147   2.520  19.658   5.949 -0.1033 -0.1927  0.2228
  776POPS   C2B12148   2.787  19.804   6.223  0.4321 -0.0453  0.0320
  776POPS   C3B12149   2.926  19.641   6.698 -0.1017  0.0775  0.2378
  776POPS   C4B12150   2.940  19.883   7.073  0.0140 -0.0471 -0.1186
  777POPS   CNO12151  12.127  15.994   4.531  0.0384  0.1107  0.1222
  777POPS   PO412152  11.983  16.287   4.924 -0.2448 -0.3390  0.0660
  777POPS   GL112153  12.039  16.375   5.324  0.0010 -0.1028  0.1152
  777POPS   GL212154  11.879  16.125   5.474  0.0770  0.3258 -0.1244
  777POPS   C1A12155  11.974  16.586   5.757 -0.0390  0.0921 -0.0605
  777POPS   D2A12156  11.805  16.353   6.185  0.1969 -0.2047 -0.2383
  777POPS   C3A12157  11.693  16.611   6.553 -0.2662  0.0199 -0.1919
  777POPS   C4A12158  11.593  16.856   6.847 -0.0186 -0.1766  0.0488
  777POPS   C1B12159  12.218  16.172   5.729  0.1693 -0.1720  0.1018
  777POPS   C2B12160  12.214  16.048   6.191 -0.4019 -0.0205  0.1449
  777POPS   C3B12161  12.133  16.264   6.599 -0.0788  0.1872  0.0131
  777POPS   C4B12162  12.156  16.541   7.002 -0.1232  0.1140  0.3138
  778POPS   CNO12163  11.906   3.945   4.845  0.1167 -0.1882  0.3138
  778POPS   PO412164  11.594   4.210   4.951 -0.1058 -0.0678 -0.2360
  778POPS   GL112165  11.872   4.009   5.341 -0.1988  0.0172  0.0216
  778POPS   GL212166  11.838   3.667   5.532  0.2487  0.1115 -0.0612
  778POPS   C1A12167  11.986   4.145   5.688 -0.2000 -0.2211 -0.5114
  778POPS   D2A12168  11.727   4.193   6.121 -0.1752  0.1548 -0.3208
  778POPS   C3A12169  11.643   3.819   5.994  0.0099 -0.1027  0.3180
  778POPS   C4A12170  11.436   3.550   5.792  0.1716 -0.0782 -0.1257
  778POPS   C1B12171  11.875   3.391   5.904  0.1548  0.3552  0.1551
  778POPS   C2B12172  11.873   3.090   6.243 -0.2259  0.0260 -0.2354
  778POPS   C3B12173  11.730   2.850   6.649 -0.2142 -0.0614 -0.4001
  778POPS   C4B12174  11.583   2.617   7.062  0.3522 -0.0057 -0.1614
  779POPS   CNO12175   4.678   8.710   4.689  0.1302 -0.4176  0.2953
  779POPS   PO412176   4.728   9.167   4.703 -0.0977 -0.1776  0.1393
  779POPS   GL112177   4.533   9.232   5.025 -0.0303  0.0908  0.0784
  779POPS   GL212178   4.329   9.395   4.978  0.0291 -0.2813  0.0806
  779POPS   C1A12179   4.265   8.966   5.256 -0.1885 -0.2440 -0.1771
  779POPS   D2A12180   4.131   8.630   5.605  0.0556 -0.1908  0.0337
  779POPS   C3A12181   4.115   8.833   5.928  0.0674  0.1539  0.3372
  779POPS   C4A12182   4.126   9.167   6.226 -0.0592 -0.1934  0.2491
  779POPS   C1B12183   4.226   9.424   5.447  0.0140  0.1805  0.2275
  779POPS   C2B12184   4.415   9.240   5.783 -0.0455 -0.1719  0.2016
  779POPS   C3B12185   4.581   9.434   6.292  0.0360 -0.1207 -0.0991
  779POPS   C4B12186   4.926   9.638   6.341 -0.0185  0.1302  0.3986
  780POPS   CNO12187  19.493  11.815   4.573 -0.0284  0.3487  0.0780
  780POPS   PO412188  19.351  11.877   4.969 -0.1252  0.0981 -0.0260
  780POPS   GL112189  19.459  11.704   5.376 -0.1007  0.0309 -0.4450
  780POPS   GL212190  19.205  11.413   5.448 -0.0827 -0.4011 -0.1357
  780POPS   C1A12191  19.786  11.725   5.673 -0.1649 -0.0116 -0.3695
  780POPS   D2A12192  20.068  11.545   5.880 -0.1622  0.3383 -0.4219
  780POPS   C3A12193  20.050  11.775   6.256 -0.2648  0.0804  0.2204
  780POPS   C4A12194  20.128  11.942   6.679 -0.0105  0.1902 -0.0776
  780POPS   C1B12195  19.109  11.088   5.844  0.0215 -0.2234 -0.3112
  780POPS   C2B12196  18.985  10.825   6.270  0.0875  0.1293  0.1222
  780POPS   C3B12197  18.649  10.746   6.456  0.1933 -0.0067  0.1168
  780POPS   C4B12198  18.234  10.812   6.221 -0.1136  0.2051  0.2459
  781POPS   CNO12199  18.984   6.515   5.548 -0.1307  0.2110 -0.0039
  781POPS   PO412200  19.230   6.170   5.478  0.3139  0.4081 -0.4914
  781POPS   GL112201  19.258   6.031   5.892 -0.2363 -0.0165 -0.1106
  781POPS   GL212202  19.112   6.318   6.023 -0.0007 -0.0737  0.1260
  781POPS   C1A12203  19.280   5.676   6.298 -0.3978  0.0993  0.3023
  781POPS   D2A12204  18.815   5.559   6.434  0.0222  0.1484 -0.0813
  781POPS   C3A12205  18.540   5.711   6.708  0.0825  0.1597 -0.1291
  781POPS   C4A12206  18.456   5.851   7.160 -0.3601 -0.3383 -0.0419
  781POPS   C1B12207  19.265   6.500   6.414  0.1763  0.5231 -0.0698
  781POPS   C2B12208  19.236   6.662   6.799  0.0417 -0.0512 -0.1562
  781POPS   C3B12209  19.143   7.043   7.084  0.0443 -0.4156  0.2171
  781POPS   C4B12210  19.037   6.961   7.471  0.1827 -0.2544 -0.2653
  782POPS   CNO12211   9.953   4.954   4.611  0.0342 -0.1553  0.0339
  782POPS   PO412212   9.908   4.533   4.695  0.1820 -0.0310  0.2194
  782POPS   GL112213   9.992   4.700   5.155 -0.1279 -0.0547  0.0991
  782POPS   GL212214   9.746   4.776   5.454  0.0705 -0.0016 -0.4057
  782POPS   C1A12215  10.221   4.902   5.558  0.2770  0.0096 -0.0762
  782POPS   D2A12216  10.355   4.660   5.820 -0.1888 -0.1614  0.3386
  782POPS   C3A12217  10.671   4.680   6.226 -0.1667  0.2930  0.1345
  782POPS   C4A12218  10.901   4.910   6.590 -0.0791 -0.1500  0.0330
  782POPS   C1B12219   9.852   4.851   5.880 -0.4601  0.1133 -0.0362
  782POPS   C2B12220  10.180   4.986   6.195  0.0736  0.2005 -0.1047
  782POPS   C3B12221  10.343   5.176   6.534  0.0467 -0.2017 -0.2375
  782POPS   C4B12222  10.712   5.299   6.840  0.2132 -0.0277 -0.1369
  783POPS   CNO12223  14.407  10.600   4.980 -0.0086  0.0815  0.2238
  783POPS   PO412224  14.777  10.564   5.040  0.1795 -0.2912  0.2088
  783POPS   GL112225  14.951  10.644   5.363  0.1068 -0.4068  0.0711
  783POPS   GL212226  14.833  10.725   5.606 -0.2751 -0.0462 -0.2556
  783POPS   C1A12227  15.297  10.370   5.639  0.0393  0.1096 -0.0028
  783POPS   D2A12228  15.284  10.375   6.093 -0.0954  0.4623  0.0059
  783POPS   C3A12229  15.326   9.973   6.214 -0.2024 -0.0923 -0.1551
  783POPS   C4A12230  15.325   9.675   6.543  0.1150 -0.1909  0.0597
  783POPS   C1B12231  14.433  10.709   5.657 -0.1145  0.4030  0.3566
  783POPS   C2B12232  13.940  10.548   5.780 -0.2730 -0.0849  0.0342
  783POPS   C3B12233  13.572  10.615   6.058  0.3052 -0.0635 -0.2197
  783POPS   C4B12234  13.502  10.747   6.491 -0.0723 -0.0615 -0.1185
  784POPS   CNO12235   6.815  17.127   4.358  0.0303  0.3533  0.1231
  784POPS   PO412236   6.829  16.706   4.560  0.0659 -0.4222 -0.1526
  784POPS   GL112237   6.714  16.937   4.895 -0.1425 -0.0947  0.1421
  784POPS   GL212238   6.684  17.238   4.791  0.2522  0.4306  0.3085
  784POPS   C1A12239   6.689  17.165   5.315  0.1525  0.3402 -0.2255
  784POPS   D2A12240   6.481  17.419   5.457 -0.0099  0.0515 -0.0571
  784POPS   C3A12241   6.083  17.667   5.362  0.0324  0.2115  0.1517
  784POPS   C4A12242   5.982  18.059   5.531 -0.2446 -0.2068 -0.3317
  784POPS   C1B12243   6.334  17.347   4.972  0.1187 -0.3069 -0.1512
  784POPS   C2B12244   5.853  17.311   5.037 -0.0729 -0.0151  0.3461
  784POPS   C3B12245   5.549  17.668   5.122  0.0003 -0.0292 -0.1775
  784POPS   C4B12246   5.374  18.010   4.942  0.0404  0.2898 -0.2867
  785POPS   CNO12247   0.653  11.666   4.372 -0.1636 -0.1951 -0.1689
  785POPS   PO412248   0.575  12.089   4.642 -0.1169 -0.2375  0.0691
  785POPS   GL112249   0.639  12.102   5.107  0.2696 -0.1082 -0.0479
  785POPS   GL212250   0.317  12.227   5.055  0.1898 -0.2310 -0.1901
  785POPS   C1A12251   0.695  11.790   5.409 -0.2081  0.0138 -0.0565
  785POPS   D2A12252   0.886  11.697   5.766 -0.0988 -0.1313 -0.0162
  785POPS   C3A12253   1.191  11.538   5.930  0.1941 -0.2740 -0.1444
  785POPS   C4A12254   1.271  11.155   6.228  0.2011 -0.1805  0.1774
  785POPS   C1B12255   0.204  11.981   5.405  0.2370 -0.3700  0.1968
  785POPS   C2B12256   0.383  11.926   5.759  0.0089 -0.0179 -0.1044
  785POPS   C3B12257   0.582  11.882   6.167 -0.0247  0.1386 -0.0631
  785POPS   C4B12258   0.702  12.231   6.418 -0.1010  0.0451 -0.1307
  786POPS   CNO12259   8.981   2.298   5.119 -0.5782  0.1744  0.4443
  786POPS   PO412260   9.294   1.999   5.194  0.3221 -0.2381  0.2595
  786POPS   GL112261   9.414   2.155   5.549  0.0858 -0.2704 -0.0377
  786POPS   GL212262   9.606   2.033   5.743  0.4124  0.0593 -0.1559
  786POPS   C1A12263   9.263   2.214   6.008  0.0901 -0.1259 -0.0450
  786POPS   D2A12264   8.840   2.339   6.152 -0.1406 -0.0206  0.2737
  786POPS   C3A12265   8.619   2.710   5.863  0.3197  0.2097 -0.0115
  786POPS   C4A12266   8.495   3.121   6.076 -0.1340  0.0727  0.0066
  786POPS   C1B12267   9.806   2.419   5.763  0.1656 -0.0660 -0.2405
  786POPS   C2B12268  10.270   2.635   5.933 -0.0333  0.2051 -0.0092
  786POPS   C3B12269  10.278   2.781   6.353  0.2027 -0.1786 -0.3979
  786POPS   C4B12270  10.549   2.790   6.612  0.2123  0.3431  0.0544
  787POPS   CNO12271   7.667  13.439   4.584  0.3607 -0.2162  0.4531
  787POPS   PO412272   7.690  13.518   4.990  0.0082 -0.0042 -0.0808
  787POPS   GL112273   7.866  13.695   5.308  0.0647  0.3158  0.2481
  787POPS   GL212274   7.877  13.952   5.340 -0.0442  0.0176  0.4227
  787POPS   C1A12275   7.864  13.468   5.643  0.0006 -0.1424  0.1120
  787POPS   D2A12276   8.004  13.469   6.036 -0.1808 -0.1192 -0.1488
  787POPS   C3A12277   7.823  13.314   6.375  0.0648 -0.1398  0.1050
  787POPS   C4A12278   7.734  13.635   6.671  0.1444 -0.1741  0.0680
  787POPS   C1B12279   7.960  14.188   5.626  0.1060 -0.0384  0.1766
  787POPS   C2B12280   8.085  14.330   6.137 -0.1963  0.2649  0.0901
  787POPS   C3B12281   8.307  14.355   6.575  0.0469  0.2765  0.0895
  787POPS   C4B12282   8.361  14.065   6.846  0.3350 -0.3603 -0.1348
  788POPS   CNO12283  14.427  11.819   5.028  0.1865  0.0943 -0.0932
  788POPS   PO412284  14.657  11.497   5.065  0.1839 -0.0853  0.0587
  788POPS   GL112285  14.681  11.578   5.486  0.0625 -0.1299  0.2402
  788POPS   GL212286  14.818  11.813   5.553  0.2861  0.1876  0.3172
  788POPS   C1A12287  14.584  11.232   5.824  0.1231 -0.1720  0.2641
  788POPS   D2A12288  14.705  11.011   6.217 -0.0340  0.0417  0.1760
  788POPS   C3A12289  14.836  10.959   6.651  0.1952 -0.1585 -0.1889
  788POPS   C4A12290  14.755  10.850   7.085  0.2811  0.0045 -0.1737
  788POPS   C1B12291  14.891  12.132   5.779 -0.1313 -0.2639  0.1230
  788POPS   C2B12292  15.127  12.148   6.127  0.1435 -0.1730 -0.1396
  788POPS   C3B12293  15.497  12.254   6.324 -0.1678 -0.1326  0.1492
  788POPS   C4B12294  15.601  12.326   6.668 -0.3413 -0.1120  0.0951
  789POPS   CNO12295   5.672  15.608   4.725  0.1606  0.1155  0.0415
  789POPS   PO412296   5.371  15.943   4.802 -0.1729 -0.0666  0.1586
  789POPS   GL112297   5.291  15.848   5.225 -0.3815  0.2049 -0.1009
  789POPS   GL212298   5.192  16.110   5.308 -0.2606 -0.1274 -0.2057
  789POPS   C1A12299   5.102  15.538   5.411 -0.0580  0.2321  0.1378
  789POPS   D2A12300   5.184  15.405   5.849 -0.0733 -0.0916 -0.4643
  789POPS   C3A12301   4.889  15.178   6.016  0.2204 -0.1184 -0.0461
  789POPS   C4A12302   4.933  15.246   6.385  0.2731  0.0307 -0.1653
  789POPS   C1B12303   5.565  16.264   5.573  0.0510  0.2699 -0.1150
  789POPS   C2B12304   5.477  16.660   5.880 -0.2100  0.1988 -0.3850
  789POPS   C3B12305   5.420  16.595   6.273  0.1413 -0.0308  0.0401
  789POPS   C4B12306   5.534  16.855   6.713 -0.0752 -0.0732  0.1071
  790POPS   CNO12307  12.802   6.647   5.184  0.0949 -0.0575 -0.2820
  790POPS   PO412308  12.350   6.573   5.368  0.0799  0.1427  0.1291
  790POPS   GL112309  12.086   6.428   5.600 -0.2907  0.0177 -0.0572
  790POPS   GL212310  11.907   6.743   5.646  0.1613 -0.1845  0.0004
  790POPS   C1A12311  11.959   6.209   5.871  0.0132 -0.2316  0.0626
  790POPS   D2A12312  11.742   6.081   6.262  0.0788  0.1345 -0.0903
  790POPS   C3A12313  11.286   6.327   6.335  0.2242 -0.0056 -0.2103
  790POPS   C4A12314  11.110   6.771   6.298 -0.0595  0.2001 -0.1309
  790POPS   C1B12315  11.921   7.163   5.911  0.1832  0.2633  0.0221
  790POPS   C2B12316  11.679   7.533   5.938  0.2280  0.0610 -0.1591
  790POPS   C3B12317  11.668   7.845   6.186  0.5700  0.2802 -0.0156
  790POPS   C4B12318  11.721   7.865   6.570  0.2440 -0.4009 -0.0194
  791POPS   CNO12319  16.576   5.859   4.938  0.0817 -0.0923 -0.3240
  791POPS   PO412320  16.219   6.067   5.205  0.0746  0.3310  0.0067
  791POPS   GL112321  16.526   6.132   5.553  0.4242 -0.0440  0.0105
  791POPS   GL212322  16.626   5.857   5.462  0.1376 -0.2144 -0.0773
  791POPS   C1A12323  16.518   6.284   5.976 -0.3872  0.0028 -0.0410
  791POPS   D2A12324  16.430   6.555   6.388  0.3207 -0.0333  0.1929
  791POPS   C3A12325  16.649   6.303   6.644 -0.0673 -0.2353 -0.1372
  791POPS   C4A12326  16.765   6.360   7.131  0.2239  0.5632 -0.2630
  791POPS   C1B12327  16.678   5.810   5.928 -0.1732 -0.3027  0.1655
  791POPS   C2B12328  16.708   5.477   6.161  0.2639  0.0841  0.2144
  791POPS   C3B12329  17.087   5.409   6.296 -0.4583  0.0120 -0.1222
  791POPS   C4B12330  17.366   5.727   6.507 -0.0526  0.3796 -0.0690
  792POPS   CNO12331   0.147   8.589   4.618  0.0118  0.0859  0.3938
  792POPS   PO412332  -0.016   8.580   5.077  0.2701 -0.0181  0.2032
  792POPS   GL112333   0.039   8.807   5.453  0.1575 -0.3277  0.0696
  792POPS   GL212334  -0.230   8.559   5.546 -0.2667  0.3962  0.1704
  792POPS   C1A12335   0.191   8.734   5.838 -0.1372 -0.2484 -0.1073
  792POPS   D2A12336   0.265   8.676   6.161 -0.1187  0.1650 -0.2147
  792POPS   C3A12337   0.244   8.775   6.555 -0.1714  0.0748 -0.0728
  792POPS   C4A12338   0.232   8.506   6.865  0.1852 -0.2554 -0.1185
  792POPS   C1B12339  -0.286   8.480   5.991 -0.2013 -0.2249  0.4102
  792POPS   C2B12340  -0.321   8.807   6.257  0.0186 -0.2720 -0.1395
  792POPS   C3B12341  -0.266   8.613   6.692 -0.2798  0.2825 -0.0070
  792POPS   C4B12342  -0.183   8.219   6.878 -0.0171  0.0969  0.0438
  793POPS   CNO12343   7.646   9.550   4.978  0.1842  0.1901  0.3331
  793POPS   PO412344   7.967   9.274   5.055 -0.1261 -0.1382 -0.2990
  793POPS   GL112345   8.002   9.488   5.358 -0.1825  0.0478  0.2999
  793POPS   GL212346   8.359   9.611   5.490 -0.3073 -0.0931  0.0570
  793POPS   C1A12347   7.911   9.835   5.623  0.0086 -0.3546  0.1840
  793POPS   D2A12348   7.777  10.162   6.003  0.2771  0.0504 -0.2989
  793POPS   C3A12349   7.394  10.359   6.159 -0.2163 -0.0279 -0.1572
  793POPS   C4A12350   7.058  10.149   6.319  0.2488  0.0420  0.1311
  793POPS   C1B12351   8.509   9.392   5.860  0.0209 -0.0971  0.0743
  793POPS   C2B12352   8.659   9.368   6.279  0.0125  0.0224 -0.0464
  793POPS   C3B12353   8.306   9.155   6.627  0.1101  0.3310  0.0044
  793POPS   C4B12354   8.053   9.340   6.930  0.0103  0.0127 -0.2328
  794POPS   CNO12355  19.092   8.575   4.698 -0.1484 -0.2114  0.0099
  794POPS   PO412356  18.936   8.445   5.088  0.0886 -0.2466  0.3933
  794POPS   GL112357  18.829   8.494   5.553 -0.0616 -0.2355  0.1590
  794POPS   GL212358  19.184   8.298   5.661  0.2455  0.2159  0.0183
  794POPS   C1A12359  18.658   8.255   5.826  0.2864  0.1362 -0.2680
  794POPS   D2A12360  18.550   8.409   6.223 -0.3475  0.2151  0.0341
  794POPS   C3A12361  18.766   8.649   6.357  0.2592  0.0372 -0.3060
  794POPS   C4A12362  19.136   8.753   6.569  0.1521 -0.1643  0.3591
  794POPS   C1B12363  19.012   8.013   5.968 -0.2921  0.1241 -0.3763
  794POPS   C2B12364  18.706   7.688   5.961 -0.0181  0.3499 -0.0318
  794POPS   C3B12365  18.340   7.479   6.188  0.1523  0.0391 -0.2207
  794POPS   C4B12366  17.983   7.414   6.395  0.0605 -0.0892  0.0222
  795POPS   CNO12367  12.833   5.396   4.883  0.1084 -0.3279  0.1240
  795POPS   PO412368  13.063   5.658   5.187  0.3215  0.3013  0.2263
  795POPS   GL112369  13.193   6.001   5.428  0.1408  0.2004 -0.1960
  795POPS   GL212370  13.125   6.347   5.398  0.0924  0.1263  0.0010
  795POPS   C1A12371  13.492   5.966   5.740 -0.0283 -0.4086  0.0928
  795POPS   D2A12372  13.553   5.692   6.113  0.2809 -0.1267 -0.5541
  795POPS   C3A12373  13.164   5.566   6.196  0.2908  0.0669  0.1164
  795POPS   C4A12374  12.814   5.784   6.509  0.6430 -0.2439  0.0479
  795POPS   C1B12375  13.306   6.458   5.827 -0.1965  0.1074 -0.1081
  795POPS   C2B12376  13.273   6.646   6.282  0.0804 -0.0751  0.1958
  795POPS   C3B12377  13.210   6.441   6.647  0.0024  0.4717  0.3505
  795POPS   C4B12378  12.890   6.120   6.877 -0.0749 -0.2551 -0.1362
  796POPS   CNO12379  15.883   7.937   5.272  0.0255  0.0458 -0.0027
  796POPS   PO412380  15.446   8.133   5.282  0.2141  0.2779  0.0002
  796POPS   GL112381  15.311   8.068   5.687 -0.0412 -0.1115  0.0044
  796POPS   GL212382  14.980   8.173   5.828 -0.2336  0.0221 -0.1187
  796POPS   C1A12383  15.572   7.873   6.032  0.2496 -0.2080  0.1747
  796POPS   D2A12384  16.000   7.749   6.225  0.0618  0.0501 -0.1284
  796POPS   C3A12385  16.069   7.767   6.694 -0.1420 -0.5691  0.2301
  796POPS   C4A12386  16.464   7.741   6.919  0.0449  0.1788 -0.0662
  796POPS   C1B12387  15.105   8.181   6.220  0.1727 -0.3865 -0.2868
  796POPS   C2B12388  15.394   8.187   6.527 -0.0450  0.3475  0.2962
  796POPS   C3B12389  15.656   8.356   6.709 -0.3260  0.0696  0.1806
  796POPS   C4B12390  16.034   8.565   6.880 -0.0347 -0.3964  0.1652
  797POPS   CNO12391   2.930  17.807   4.473  0.1399 -0.0386 -0.2330
  797POPS   PO412392   2.737  17.785   4.822  0.1478  0.0527  0.1565
  797POPS   GL112393   2.475  17.819   5.178  0.1969  0.3936 -0.0028
  797POPS   GL212394   2.687  17.894   5.493  0.0319  0.2465  0.2936
  797POPS   C1A12395   2.368  17.479   5.488  0.1641  0.3552 -0.6657
  797POPS   D2A12396   2.183  17.078   5.681 -0.0707 -0.1768 -0.0253
  797POPS   C3A12397   2.338  16.738   5.937  0.2109  0.0214  0.1045
  797POPS   C4A12398   2.747  16.857   6.169  0.1607 -0.0223  0.0700
  797POPS   C1B12399   2.653  17.757   5.911  0.1340 -0.1003 -0.1326
  797POPS   C2B12400   2.438  17.762   6.172 -0.1599  0.3506 -0.1657
  797POPS   C3B12401   2.306  17.652   6.521  0.0834 -0.0517  0.1600
  797POPS   C4B12402   1.848  17.506   6.765  0.3213  0.2233  0.3769
  798POPS   CNO12403   6.245   1.457   4.765  0.1057  0.0135  0.0691
  798POPS   PO412404   6.123   1.155   4.919 -0.4104 -0.1083  0.1556
  798POPS   GL112405   5.815   1.050   5.289 -0.2355  0.1989 -0.1787
  798POPS   GL212406   5.670   1.295   5.335  0.2357  0.1409 -0.0726
  798POPS   C1A12407   5.679   0.723   5.628 -0.0587  0.2228  0.5174
  798POPS   D2A12408   5.426   0.749   6.062 -0.3621  0.1141  0.0374
  798POPS   C3A12409   5.012   0.800   6.174  0.0868  0.2133 -0.0653
  798POPS   C4A12410   4.886   0.791   6.575 -0.3049 -0.0036 -0.1662
  798POPS   C1B12411   5.657   1.154   5.798  0.0516 -0.2113 -0.1013
  798POPS   C2B12412   5.570   1.256   6.178  0.1112  0.0451 -0.1221
  798POPS   C3B12413   5.181   1.170   6.379  0.0765 -0.0297 -0.0933
  798POPS   C4B12414   5.091   1.194   6.811  0.2005  0.0834  0.0834
  799POPS   CNO12415  11.490  15.132   4.562 -0.0975 -0.1778  0.3062
  799POPS   PO412416  11.411  15.099   4.911  0.1728  0.1668  0.4203
  799POPS   GL112417  11.536  15.349   5.220 -0.0386  0.2113  0.2806
  799POPS   GL212418  11.352  15.666   5.323  0.1525 -0.0208  0.1124
  799POPS   C1A12419  11.325  15.266   5.627  0.3921  0.0873  0.4574
  799POPS   D2A12420  11.272  15.573   5.922  0.3459  0.0418 -0.1091
  799POPS   C3A12421  11.228  16.072   5.886  0.5158 -0.1326  0.1296
  799POPS   C4A12422  11.434  16.410   5.851 -0.1319 -0.3482 -0.0748
  799POPS   C1B12423  11.737  15.657   5.574 -0.0678  0.0115  0.1067
  799POPS   C2B12424  11.852  15.755   5.864  0.0811 -0.3913 -0.0675
  799POPS   C3B12425  11.562  15.895   6.242 -0.0649  0.0602 -0.0112
  799POPS   C4B12426  11.364  16.223   6.501  0.0643  0.0769  0.2048
  800POPS   CNO12427   1.081   6.790   4.847  0.0625  0.1829  0.0705
  800POPS   PO412428   1.445   6.899   4.948  0.1358  0.0303  0.2567
  800POPS   GL112429   1.374   6.751   5.374 -0.5211 -0.2033 -0.1001
  800POPS   GL212430   1.165   6.478   5.351 -0.0578 -0.1287  0.1292
  800POPS   C1A12431   1.585   6.511   5.603 -0.1089 -0.1824 -0.1958
  800POPS   D2A12432   1.682   6.060   5.720 -0.1753 -0.0691  0.2352
  800POPS   C3A12433   2.128   5.856   5.814 -0.1712  0.1410 -0.3163
  800POPS   C4A12434   2.549   6.061   5.790  0.3243  0.3198 -0.1673
  800POPS   C1B12435   1.167   6.328   5.776 -0.1287 -0.0457 -0.3622
  800POPS   C2B12436   1.145   6.315   6.217  0.0704  0.1044 -0.1562
  800POPS   C3B12437   1.280   6.127   6.565  0.0929  0.2030  0.1312
  800POPS   C4B12438   1.375   5.744   6.743  0.0186 -0.1839 -0.0107
  801POPS   CNO12439  12.712   8.716   4.771  0.0969 -0.0922 -0.0294
  801POPS   PO412440  13.140   8.690   4.698  0.3554 -0.1548  0.3474
  801POPS   GL112441  13.211   8.846   5.115 -0.2480 -0.0615  0.0202
  801POPS   GL212442  13.503   8.938   5.271  0.0941 -0.0439 -0.0435
  801POPS   C1A12443  13.140   8.923   5.594 -0.2236 -0.0601  0.2025
  801POPS   D2A12444  12.881   8.998   5.811  0.0574 -0.2599 -0.0228
  801POPS   C3A12445  12.520   8.949   5.807  0.2157  0.0596  0.3908
  801POPS   C4A12446  12.177   8.679   5.677  0.2629  0.1296 -0.1668
  801POPS   C1B12447  13.491   8.532   5.570 -0.0475 -0.0067 -0.1484
  801POPS   C2B12448  13.538   8.193   5.912 -0.1509  0.0496 -0.0044
  801POPS   C3B12449  13.391   8.144   6.336 -0.2232 -0.0056  0.0084
  801POPS   C4B12450  13.012   8.186   6.409  0.1598 -0.1768  0.0476
  802POPS   CNO12451  18.215  18.681   5.864 -0.2559  0.2745 -0.3375
  802POPS   PO412452  18.378  18.579   5.359 -0.2246  0.3472 -0.2399
  802POPS   GL112453  18.684  18.558   5.686  0.0303  0.0383  0.0197
  802POPS   GL212454  18.773  18.814   5.589  0.2826 -0.0779 -0.0112
  802POPS   C1A12455  18.850  18.185   5.785 -0.4317 -0.1507  0.3287
  802POPS   D2A12456  19.081  18.113   6.034 -0.1149  0.0279  0.1790
  802POPS   C3A12457  19.416  17.823   6.086 -0.1260  0.2517  0.0701
  802POPS   C4A12458  19.772  17.484   5.841 -0.2031 -0.0315 -0.0022
  802POPS   C1B12459  18.949  19.061   5.873 -0.2589  0.1329  0.0621
  802POPS   C2B12460  18.773  18.963   6.219  0.0605  0.4986 -0.0375
  802POPS   C3B12461  18.609  18.860   6.650 -0.0498  0.1953 -0.1045
  802POPS   C4B12462  18.757  18.852   7.136 -0.1814 -0.1028 -0.1448
  803POPS   CNO12463   8.990   7.317   5.087  0.0954  0.2757 -0.5032
  803POPS   PO412464   8.931   7.776   5.058  0.0304 -0.1517  0.4604
  803POPS   GL112465   9.263   7.803   5.282 -0.1407  0.0806 -0.0584
  803POPS   GL212466   9.627   7.778   5.156 -0.1542  0.0359 -0.0928
  803POPS   C1A12467   9.254   8.032   5.576 -0.0131  0.2347 -0.2483
  803POPS   D2A12468   9.012   8.023   5.783 -0.2084  0.2754 -0.2980
  803POPS   C3A12469   8.809   7.727   5.989 -0.1625 -0.0745  0.0079
  803POPS   C4A12470   8.482   7.376   5.754 -0.0610 -0.2813 -0.2361
  803POPS   C1B12471   9.793   7.654   5.542  0.1004  0.3803  0.1362
  803POPS   C2B12472  10.040   7.795   5.934  0.1984  0.0576 -0.1992
  803POPS   C3B12473  10.108   7.610   6.348  0.0405 -0.0378 -0.3751
  803POPS   C4B12474   9.900   7.631   6.733 -0.1216 -0.0603 -0.3729
  804POPS   CNO12475   1.610   5.440   4.729 -0.2314  0.3179 -0.0073
  804POPS   PO412476   1.340   5.048   4.603  0.2617  0.2086 -0.3927
  804POPS   GL112477   1.099   5.218   4.941  0.0106  0.0923  0.0272
  804POPS   GL212478   0.962   5.004   5.185 -0.0782  0.1765 -0.1686
  804POPS   C1A12479   1.041   5.522   5.293 -0.3257  0.1430 -0.2530
  804POPS   D2A12480   0.759   5.696   5.587 -0.2328 -0.1119  0.1440
  804POPS   C3A12481   0.793   5.490   5.902  0.2561 -0.0153 -0.2227
  804POPS   C4A12482   0.743   5.442   6.289 -0.0435  0.0441  0.2263
  804POPS   C1B12483   0.944   5.109   5.618 -0.0961  0.3523  0.0579
  804POPS   C2B12484   0.843   4.841   5.972  0.1593  0.0735 -0.2363
  804POPS   C3B12485   0.436   4.646   6.063 -0.2060  0.0931  0.0161
  804POPS   C4B12486   0.160   4.619   5.792 -0.1710  0.0342  0.2989
  805POPS   CNO12487  13.235   3.337   4.935 -0.0037 -0.0659  0.1862
  805POPS   PO412488  13.441   3.475   5.264  0.0394 -0.2552  0.5049
  805POPS   GL112489  13.287   3.719   5.562  0.0066  0.2737  0.3624
  805POPS   GL212490  13.425   3.810   5.845  0.1911  0.2330  0.1542
  805POPS   C1A12491  12.898   3.685   5.891 -0.3344  0.1031 -0.2583
  805POPS   D2A12492  12.599   3.664   6.226  0.0412  0.0889 -0.1323
  805POPS   C3A12493  12.721   3.315   6.514 -0.0314  0.2155  0.3202
  805POPS   C4A12494  12.747   2.871   6.738  0.0167  0.0807 -0.1200
  805POPS   C1B12495  13.512   3.741   6.329 -0.0232 -0.0764  0.1323
  805POPS   C2B12496  13.525   4.068   6.654 -0.0046 -0.1241  0.3284
  805POPS   C3B12497  13.922   3.983   7.092  0.0036  0.1355 -0.0062
  805POPS   C4B12498  14.198   3.944   7.551 -0.1230 -0.0375  0.0612
  806POPS   CNO12499  12.910  13.455   5.218 -0.3212  0.2905 -0.3732
  806POPS   PO412500  12.637  13.825   5.378  0.4828 -0.0229 -0.0753
  806POPS   GL112501  12.550  14.030   5.747  0.4304  0.0510  0.0519
  806POPS   GL212502  12.299  14.136   5.760 -0.1654 -0.0867 -0.0151
  806POPS   C1A12503  12.713  14.206   6.110  0.1233  0.3365 -0.1494
  806POPS   D2A12504  12.609  14.208   6.479 -0.2539  0.1564  0.1206
  806POPS   C3A12505  12.497  13.824   6.780  0.0105 -0.0352 -0.2915
  806POPS   C4A12506  12.204  13.510   6.914  0.1951  0.1730  0.2458
  806POPS   C1B12507  12.244  14.051   6.185  0.2948  0.3465 -0.0842
  806POPS   C2B12508  12.037  14.010   6.686  0.1219 -0.0092  0.0093
  806POPS   C3B12509  11.703  13.880   6.922 -0.4824  0.0638 -0.0049
  806POPS   C4B12510  11.382  13.634   7.014  0.3125  0.1865  0.2263
  807POPS   CNO12511  10.676  18.536   4.432  0.0016  0.0626 -0.1141
  807POPS   PO412512  10.336  18.513   4.811 -0.2418  0.2897  0.0907
  807POPS   GL112513  10.746  18.410   4.959  0.2896  0.0958  0.0312
  807POPS   GL212514  10.555  18.211   5.130  0.3223 -0.0630 -0.0302
  807POPS   C1A12515  10.959  18.328   5.450 -0.1107 -0.2731 -0.0066
  807POPS   D2A12516  11.396  18.518   5.518 -0.0438  0.2133 -0.0999
  807POPS   C3A12517  11.587  18.720   5.842 -0.1548  0.0181  0.0294
  807POPS   C4A12518  11.819  18.765   6.218 -0.0829 -0.1319 -0.2338
  807POPS   C1B12519  10.396  18.288   5.586 -0.0000 -0.3892  0.0621
  807POPS   C2B12520  10.565  18.236   5.889  0.0007  0.0906  0.1100
  807POPS   C3B12521  10.677  17.878   5.707  0.2678 -0.3783  0.0501
  807POPS   C4B12522  10.808  17.495   5.809 -0.2712 -0.1645  0.4614
  808POPS   CNO12523   9.730   9.395   4.724 -0.0234  0.2260 -0.1195
  808POPS   PO412524   9.383   9.061   4.836 -0.3255 -0.2590  0.1262
  808POPS   GL112525   9.365   8.928   5.297 -0.0939  0.1677  0.1220
  808POPS   GL212526   9.410   8.739   5.490 -0.0194  0.1287  0.0134
  808POPS   C1A12527   9.325   9.135   5.698  0.1182  0.0737 -0.2928
  808POPS   D2A12528   9.126   9.419   5.933  0.0271 -0.1703  0.0075
  808POPS   C3A12529   9.089   9.665   6.352 -0.3047  0.1771 -0.0008
  808POPS   C4A12530   9.329   9.940   6.736 -0.1033 -0.0059 -0.2353
  808POPS   C1B12531   9.711   8.896   5.816  0.0829  0.2683 -0.5408
  808POPS   C2B12532  10.083   8.661   5.961 -0.1085 -0.0835  0.0625
  808POPS   C3B12533  10.317   8.213   6.052 -0.1252 -0.3363 -0.1135
  808POPS   C4B12534  10.537   7.963   6.451 -0.2037  0.0015 -0.1637
  809POPS   CNO12535   1.880  13.500   5.037 -0.3492  0.5077  0.0381
  809POPS   PO412536   1.958  13.125   4.761  0.0908 -0.2183  0.2524
  809POPS   GL112537   2.137  13.096   5.222 -0.3932  0.0124 -0.1042
  809POPS   GL212538   2.262  12.790   5.313 -0.0789  0.2467 -0.2761
  809POPS   C1A12539   1.719  13.195   5.454  0.2852  0.1697  0.1014
  809POPS   D2A12540   1.514  13.557   5.520  0.1077  0.1919  0.0761
  809POPS   C3A12541   1.898  13.767   5.663  0.0986  0.0511  0.0078
  809POPS   C4A12542   2.282  14.129   5.642 -0.1599  0.0828  0.2243
  809POPS   C1B12543   2.142  12.765   5.833 -0.0801 -0.1875 -0.0428
  809POPS   C2B12544   2.377  12.445   6.130  0.0945  0.1889  0.0638
  809POPS   C3B12545   2.814  12.485   6.182 -0.1218 -0.0575  0.1164
  809POPS   C4B12546   3.123  12.892   6.081  0.2571 -0.1130 -0.1330
  810POPS   CNO12547   5.000   3.731   4.126  0.0038  0.3767 -0.1893
  810POPS   PO412548   4.835   3.695   4.566  0.3670  0.0466  0.2251
  810POPS   GL112549   4.531   3.865   4.868 -0.1546  0.0186 -0.0970
  810POPS   GL212550   4.495   4.148   4.848  0.0465 -0.1904  0.0229
  810POPS   C1A12551   4.133   3.845   5.103 -0.5265  0.2036 -0.3662
  810POPS   D2A12552   4.011   3.545   5.434 -0.0232 -0.3301  0.4842
  810POPS   C3A12553   3.772   3.746   5.881  0.0366  0.2397  0.2299
  810POPS   C4A12554   3.488   3.992   5.897  0.0159 -0.0725 -0.0895
  810POPS   C1B12555   4.307   4.259   5.300  0.2270 -0.1968  0.1274
  810POPS   C2B12556   3.998   4.181   5.683  0.0819 -0.0183  0.1904
  810POPS   C3B12557   3.910   4.269   6.127 -0.0343 -0.0887  0.0550
  810POPS   C4B12558   4.122   4.446   6.512 -0.2919 -0.3416 -0.2710
  811POPS   CNO12559  15.705  15.910   5.044 -0.2164  0.2003 -0.1421
  811POPS   PO412560  15.965  15.477   5.118  0.3535  0.3402 -0.3074
  811POPS   GL112561  15.879  15.461   5.570  0.0375  0.0515  0.0495
  811POPS   GL212562  15.611  15.113   5.537 -0.1077  0.2413 -0.0758
  811POPS   C1A12563  15.897  15.388   6.129 -0.3869 -0.1887 -0.1726
  811POPS   D2A12564  16.286  15.549   6.513  0.2053 -0.3029  0.1043
  811POPS   C3A12565  16.151  15.567   6.972  0.2907 -0.4310  0.0946
  811POPS   C4A12566  16.257  15.246   7.368 -0.0586  0.1010  0.0806
  811POPS   C1B12567  15.538  15.080   5.905 -0.1756  0.0135 -0.1587
  811POPS   C2B12568  15.427  15.109   6.331 -0.0593  0.0660  0.1426
  811POPS   C3B12569  15.165  15.087   6.608 -0.0318  0.1407  0.0909
  811POPS   C4B12570  15.127  14.826   6.949 -0.1277 -0.1490 -0.2309
  812POPS   CNO12571  16.459   9.112   5.188  0.3089  0.0210  0.1204
  812POPS   PO412572  16.558   9.584   5.125  0.0377  0.2962 -0.2446
  812POPS   GL112573  16.591   9.599   5.469  0.0955  0.0552  0.0512
  812POPS   GL212574  16.809   9.368   5.611 -0.1473  0.1483 -0.2847
  812POPS   C1A12575  16.575   9.783   5.818  0.2231 -0.1612  0.1927
  812POPS   D2A12576  16.517   9.657   6.198  0.1224 -0.0331  0.1466
  812POPS   C3A12577  16.698   9.230   6.120 -0.1679 -0.2759  0.3292
  812POPS   C4A12578  16.826   8.896   5.899  0.0008  0.1700  0.0812
  812POPS   C1B12579  17.235   9.300   6.074  0.2855  0.1995 -0.3232
  812POPS   C2B12580  17.276   8.988   6.355  0.0487 -0.0663 -0.0699
  812POPS   C3B12581  17.116   8.907   6.817 -0.1950 -0.1385 -0.1432
  812POPS   C4B12582  17.165   8.751   7.231  0.2619 -0.2216 -0.0819
  813POPS   CNO12583  12.682  10.712   4.720  0.0250  0.1299 -0.1112
  813POPS   PO412584  12.284  10.616   4.705  0.3073  0.0171  0.0570
  813POPS   GL112585  12.447  10.576   5.146 -0.3372 -0.1174 -0.0508
  813POPS   GL212586  12.519  10.873   5.178 -0.1560 -0.2814 -0.1697
  813POPS   C1A12587  12.658  10.394   5.472  0.4235 -0.1627 -0.0939
  813POPS   D2A12588  12.517  10.432   5.924 -0.2090 -0.0787 -0.2614
  813POPS   C3A12589  12.580  10.767   6.124 -0.3057  0.1638  0.0285
  813POPS   C4A12590  12.602  11.196   6.267 -0.1890  0.1027 -0.4701
  813POPS   C1B12591  12.402  10.927   5.643  0.4253 -0.4601  0.2516
  813POPS   C2B12592  12.288  11.076   5.921  0.0907  0.2991  0.1922
  813POPS   C3B12593  12.580  11.518   5.851 -0.1212  0.0085  0.1419
  813POPS   C4B12594  12.827  11.743   5.669  0.0836 -0.0105 -0.1926
  814YOPS   CNO12595  14.851  19.562   4.814  0.1130 -0.1225  0.2427
  814YOPS   PO412596  14.893  19.275   5.046 -0.1068 -0.2578  0.2447
  814YOPS   GL112597  14.836  19.666   5.417  0.0185 -0.3173  0.0963
  814YOPS   GL212598  15.030  19.821   5.556  0.1403 -0.1860  0.2174
  814YOPS   C1A12599  14.581  20.096   5.526 -0.0538  0.1894  0.3091
  814YOPS   D2A12600  14.754  20.375   5.828 -0.0588 -0.0187  0.1280
  814YOPS   C3A12601  14.649  20.490   6.337  0.3143  0.1039 -0.2875
  814YOPS   C4A12602  14.449  20.805   6.463  0.4340 -0.4345 -0.0934
  814YOPS   C1B12603  14.844  19.901   5.957  0.1695  0.3247  0.1903
  814YOPS   C2B12604  14.660  19.819   6.311  0.0555  0.1141  0.0777
  814YOPS   D3B12605  14.559  20.047   6.508  0.2105  0.1901 -0.0358
  814YOPS   C4B12606  14.645  20.000   6.891 -0.0564  0.2340 -0.2224
  815YOPS   CNO12607   9.964   1.728   4.890  0.0521  0.1287  0.4446
  815YOPS   PO412608   9.980   1.258   4.814 -0.0634  0.0978  0.3125
  815YOPS   GL112609  10.000   1.245   5.206 -0.0600  0.0589 -0.2133
  815YOPS   GL212610  10.282   1.293   5.389 -0.1198 -0.0792  0.3460
  815YOPS   C1A12611   9.842   1.290   5.674  0.1337 -0.1643  0.1990
  815YOPS   D2A12612   9.500   1.495   5.911  0.0908 -0.1526 -0.1272
  815YOPS   C3A12613   9.275   1.681   6.239  0.1003 -0.1175  0.3495
  815YOPS   C4A12614   9.350   1.564   6.619  0.1083  0.4134  0.2050
  815YOPS   C1B12615  10.290   1.092   5.765  0.4438  0.0586  0.0223
  815YOPS   C2B12616  10.128   1.271   6.103  0.3618 -0.0140  0.0330
  815YOPS   D3B12617   9.789   1.363   6.411  0.1565 -0.1822 -0.1653
  815YOPS   C4B12618   9.794   1.339   6.816  0.0218  0.3841 -0.0335
  816YOPS   CNO12619   8.160  12.207   4.440 -0.0027 -0.0035 -0.2100
  816YOPS   PO412620   8.190  11.977   4.824 -0.0239 -0.0598  0.0008
  816YOPS   GL112621   8.018  12.094   5.185 -0.3590  0.3877  0.1466
  816YOPS   GL212622   8.178  11.841   5.341  0.0477 -0.0648 -0.0971
  816YOPS   C1A12623   7.628  12.115   5.529 -0.2613 -0.0690  0.0333
  816YOPS   D2A12624   7.346  11.964   5.882 -0.0431 -0.0990 -0.1212
  816YOPS   C3A12625   7.412  11.507   6.075 -0.1158  0.0370 -0.0437
  816YOPS   C4A12626   7.238  11.369   6.456 -0.3895  0.2005  0.1400
  816YOPS   C1B12627   8.163  12.131   5.731 -0.1002 -0.5335  0.3092
  816YOPS   C2B12628   8.389  12.567   5.937  0.1740  0.0925  0.1868
  816YOPS   D3B12629   8.483  12.700   6.301  0.0844  0.0055  0.1040
  816YOPS   C4B12630   8.694  12.605   6.603 -0.1204  0.0908  0.4478
  817YOPS   CNO12631   2.772   7.143   4.797 -0.2500 -0.2156  0.0730
  817YOPS   PO412632   3.107   7.114   5.057  0.0982 -0.1136 -0.2487
  817YOPS   GL112633   2.920   7.382   5.421  0.0534 -0.0995 -0.1639
  817YOPS   GL212634   3.218   7.445   5.405  0.1225 -0.0803  0.0170
  817YOPS   C1A12635   2.646   7.281   5.777  0.3020  0.0763 -0.0014
  817YOPS   D2A12636   2.428   7.255   6.156  0.0298 -0.3087 -0.1392
  817YOPS   C3A12637   2.318   7.199   6.580  0.1289 -0.1645  0.0227
  817YOPS   C4A12638   2.206   7.617   6.735 -0.1653 -0.0338  0.3534
  817YOPS   C1B12639   3.231   7.718   5.727  0.2437  0.0277  0.0768
  817YOPS   C2B12640   3.744   7.824   5.878 -0.3265  0.3274 -0.0784
  817YOPS   D3B12641   3.923   8.102   6.158 -0.1971 -0.0123  0.0466
  817YOPS   C4B12642   3.826   8.504   6.085  0.0172  0.0570  0.2813
  818YOPS   CNO12643  18.712   1.620   4.788  0.1334 -0.0638 -0.1626
  818YOPS   PO412644  19.032   1.822   4.887 -0.4951 -0.0814  0.0874
  818YOPS   GL112645  19.262   1.867   5.314  0.1982 -0.1921  0.1923
  818YOPS   GL212646  19.517   1.884   5.328  0.0301  0.2642  0.0628
  818YOPS   C1A12647  19.019   1.908   5.735  0.3986 -0.0734 -0.0499
  818YOPS   D2A12648  19.013   1.900   6.231  0.1429  0.0921  0.1475
  818YOPS   C3A12649  18.822   1.798   6.599  0.2617 -0.2961 -0.1293
  818YOPS   C4A12650  19.058   1.741   6.908 -0.0078  0.0894  0.1270
  818YOPS   C1B12651  19.685   1.893   5.684 -0.0290 -0.2488  0.0913
  818YOPS   C2B12652  20.149   1.922   5.845  0.0467  0.4482  0.2930
  818YOPS   D3B12653  20.467   1.580   5.991  0.3904 -0.1926  0.2477
  818YOPS   C4B12654  20.576   1.766   6.265 -0.2090  0.0145 -0.0057
  819YOPS   CNO12655   7.481  18.980   4.963 -0.1058 -0.1224  0.1670
  819YOPS   PO412656   7.190  18.964   4.630 -0.5394 -0.0659 -0.1613
  819YOPS   GL112657   6.999  18.823   4.990 -0.3329 -0.0977  0.1604
  819YOPS   GL212658   6.814  19.030   5.131  0.1601  0.2169 -0.1787
  819YOPS   C1A12659   7.084  18.705   5.424 -0.0739 -0.1602  0.0673
  819YOPS   D2A12660   6.999  18.401   5.742 -0.1448  0.1193 -0.3296
  819YOPS   C3A12661   6.792  18.156   6.063 -0.2950 -0.1584  0.3617
  819YOPS   C4A12662   7.090  18.014   6.383  0.0884 -0.2074 -0.0487
  819YOPS   C1B12663   6.498  18.718   5.029  0.0577  0.0744 -0.0844
  819YOPS   C2B12664   6.251  18.405   4.975 -0.2456 -0.2659 -0.1256
  819YOPS   D3B12665   5.924  18.085   5.029 -0.0499  0.0659  0.0810
  819YOPS   C4B12666   5.872  17.780   4.694 -0.1714 -0.4261  0.1731
  820YOPS   CNO12667  18.439  17.933   4.665 -0.2601  0.1403  0.1956
  820YOPS   PO412668  18.215  17.776   5.099  0.0677  0.0632 -0.1048
  820YOPS   GL112669  18.371  17.721   5.454  0.1079 -0.1949  0.0949
  820YOPS   GL212670  18.273  18.137   5.540 -0.3195  0.2297 -0.0605
  820YOPS   C1A12671  18.135  17.782   5.829 -0.4418  0.0477 -0.1184
  820YOPS   D2A12672  18.377  17.785   6.168  0.1189  0.0304 -0.0634
  820YOPS   C3A12673  18.479  17.571   6.527  0.6654 -0.2558 -0.0640
  820YOPS   C4A12674  18.849  17.500   6.785 -0.2263 -0.0311  0.0984
  820YOPS   C1B12675  18.385  18.254   6.010  0.1072 -0.3626 -0.2902
  820YOPS   C2B12676  18.569  18.517   6.312  0.1641  0.0320  0.0440
  820YOPS   D3B12677  18.249  18.751   6.388 -0.1959  0.1116  0.1945
  820YOPS   C4B12678  17.927  19.068   6.550 -0.1846  0.0507 -0.0481
  821YOPS   CNO12679   2.113   0.835   4.434 -0.1163 -0.1761  0.3974
  821YOPS   PO412680   2.088   1.244   4.658 -0.1301  0.0351 -0.0629
  821YOPS   GL112681   2.010   1.202   5.134  0.1374 -0.3109  0.1940
  821YOPS   GL212682   2.290   1.113   5.340  0.0342  0.3395 -0.1260
  821YOPS   C1A12683   1.875   1.117   5.627  0.0816 -0.1141  0.0460
  821YOPS   D2A12684   1.763   1.083   6.058  0.0919  0.0942  0.2295
  821YOPS   C3A12685   1.697   0.802   6.348  0.0256  0.1628 -0.2323
  821YOPS   C4A12686   1.962   0.462   6.455 -0.0128  0.2182 -0.0674
  821YOPS   C1B12687   2.507   0.726   5.645 -0.1818 -0.1361 -0.0710
  821YOPS   C2B12688   2.785   0.722   6.141 -0.1506 -0.0088  0.2933
  821YOPS   D3B12689   3.029   0.575   6.280 -0.4096 -0.2631 -0.3076
  821YOPS   C4B12690   3.034   0.255   6.657 -0.1460 -0.0347  0.1593
  822YOPS   CNO12691   4.697   6.443   4.716  0.1720  0.0451  0.2136
  822YOPS   PO412692   4.337   6.370   4.936  0.1038 -0.1366 -0.2198
  822YOPS   GL112693   4.246   6.124   5.276 -0.0711  0.2296 -0.0333
  822YOPS   GL212694   4.528   6.190   5.505 -0.1656  0.4473  0.1224
  822YOPS   C1A12695   4.059   6.234   5.717 -0.0628  0.0333  0.1374
  822YOPS   D2A12696   4.153   6.494   5.969 -0.1335 -0.1272 -0.1386
  822YOPS   C3A12697   3.985   6.787   6.316  0.1860  0.1041 -0.1508
  822YOPS   C4A12698   4.185   6.918   6.677 -0.1789 -0.0148  0.1604
  822YOPS   C1B12699   4.953   6.276   5.738 -0.0747 -0.1478 -0.1836
  822YOPS   C2B12700   5.294   6.042   5.945  0.2382 -0.1598 -0.1784
  822YOPS   D3B12701   5.670   6.158   6.245 -0.2471  0.0276 -0.0125
  822YOPS   C4B12702   5.678   5.975   6.635  0.1573  0.1597  0.0847
  823YOPS   CNO12703   7.154  17.581   4.314 -0.2248 -0.0307 -0.0518
  823YOPS   PO412704   6.972  18.008   4.453  0.0858  0.2306  0.1327
  823YOPS   GL112705   6.735  17.790   4.753  0.3523  0.1365  0.2296
  823YOPS   GL212706   7.024  17.551   4.784 -0.1828 -0.1012  0.1725
  823YOPS   C1A12707   6.503  17.862   5.007 -0.4580  0.0424 -0.4230
  823YOPS   D2A12708   6.409  18.022   5.297 -0.1377 -0.2940 -0.2200
  823YOPS   C3A12709   6.438  18.251   5.577 -0.0123  0.2120 -0.2388
  823YOPS   C4A12710   6.537  18.609   5.500  0.0810  0.1311 -0.1918
  823YOPS   C1B12711   6.896  17.633   5.218  0.2150  0.1862 -0.1582
  823YOPS   C2B12712   7.134  17.502   5.664  0.1589 -0.0163  0.3508
  823YOPS   D3B12713   7.023  17.613   6.099  0.0274  0.1086  0.1794
  823YOPS   C4B12714   6.608  17.619   6.123  0.0562 -0.0816 -0.1625
  824YOPS   CNO12715  15.606  14.696   5.270  0.2607  0.0859  0.4749
  824YOPS   PO412716  15.678  14.263   5.336  0.0781 -0.0426 -0.0812
  824YOPS   GL112717  16.013  14.266   5.632  0.1943  0.4437 -0.0101
  824YOPS   GL212718  16.050  14.557   5.531  0.1613 -0.1418 -0.1766
  824YOPS   C1A12719  16.082  14.327   6.112  0.1771  0.1898  0.2321
  824YOPS   D2A12720  16.180  14.104   6.419  0.1942  0.0435 -0.0499
  824YOPS   C3A12721  16.478  14.097   6.718  0.0439 -0.1635 -0.1210
  824YOPS   C4A12722  16.905  14.131   6.763 -0.1429 -0.0515  0.0468
  824YOPS   C1B12723  15.992  14.755   5.873  0.0397 -0.0710 -0.0438
  824YOPS   C2B12724  15.885  14.922   6.227 -0.2991 -0.0668  0.1707
  824YOPS   D3B12725  16.023  15.101   6.477 -0.1733  0.1255 -0.0942
  824YOPS   C4B12726  15.767  15.620   6.604  0.0465  0.6095 -0.0603
  825YOPS   CNO12727  12.122   3.056   4.900 -0.1481 -0.1603  0.1323
  825YOPS   PO412728  12.025   3.306   5.222 -0.5167  0.1177  0.2929
  825YOPS   GL112729  12.197   3.125   5.632  0.1928 -0.0583 -0.2759
  825YOPS   GL212730  12.044   2.855   5.828  0.1218 -0.2475 -0.2336
  825YOPS   C1A12731  12.348   3.233   6.089 -0.1171  0.3907 -0.0521
  825YOPS   D2A12732  12.219   3.390   6.513  0.1171  0.2653  0.0076
  825YOPS   C3A12733  11.887   3.402   6.728 -0.2637  0.0023  0.0206
  825YOPS   C4A12734  11.866   3.026   7.095  0.1490 -0.2408  0.0482
  825YOPS   C1B12735  11.783   2.637   6.155 -0.0654  0.0653 -0.0636
  825YOPS   C2B12736  11.656   2.224   6.258 -0.0604  0.1037 -0.1951
  825YOPS   D3B12737  11.335   1.860   6.177  0.2102 -0.0747 -0.1622
  825YOPS   C4B12738  10.975   1.904   6.436  0.1267 -0.0683 -0.0946
  826YOPS   CNO12739   3.609  15.499   4.428 -0.0969  0.2320 -0.2739
  826YOPS   PO412740   3.449  15.216   4.767  0.2257  0.2436 -0.3452
  826YOPS   GL112741   3.098  15.158   5.093 -0.0359 -0.4105  0.0256
  826YOPS   GL212742   3.216  14.973   5.329  0.0352  0.0151 -0.0484
  826YOPS   C1A12743   2.825  15.411   5.295 -0.2119  0.5106  0.0369
  826YOPS   D2A12744   2.678  15.417   5.700  0.3115 -0.1079 -0.0812
  826YOPS   C3A12745   2.879  15.528   6.124  0.2004 -0.2850  0.1835
  826YOPS   C4A12746   3.331  15.743   6.004  0.2841 -0.5134 -0.1874
  826YOPS   C1B12747   2.987  14.917   5.623  0.3039  0.0825  0.0037
  826YOPS   C2B12748   2.792  14.537   5.746 -0.0840  0.0839 -0.0828
  826YOPS   D3B12749   2.768  14.152   5.798 -0.0818  0.2688 -0.1925
  826YOPS   C4B12750   2.518  13.774   5.938  0.1473 -0.1827 -0.2253
  827YOPS   CNO12751   9.228  16.325   4.440 -0.3317  0.1884 -0.0211
  827YOPS   PO412752   9.565  16.453   4.640 -0.1902  0.1727  0.2030
  827YOPS   GL112753   9.700  16.324   5.049  0.1143  0.5073 -0.2814
  827YOPS   GL212754   9.538  16.432   5.299  0.0347  0.1867  0.0571
  827YOPS   C1A12755   9.975  16.234   5.426 -0.2267  0.2277 -0.0345
  827YOPS   D2A12756  10.043  16.403   5.873 -0.2226  0.0489  0.2637
  827YOPS   C3A12757   9.954  16.219   6.207  0.1423  0.0127 -0.1105
  827YOPS   C4A12758   9.749  16.437   6.669  0.2711 -0.2796  0.0194
  827YOPS   C1B12759   9.622  16.712   5.628  0.4597 -0.2789 -0.0102
  827YOPS   C2B12760   9.546  17.083   5.740  0.3756  0.0328  0.0079
  827YOPS   D3B12761   9.360  17.511   5.902 -0.0245  0.0178 -0.2246
  827YOPS   C4B12762   9.234  17.714   6.162  0.2351 -0.0784 -0.3820
  828YOPS   CNO12763   8.131   7.143   4.918  0.1512  0.3602  0.0751
  828YOPS   PO412764   8.455   7.030   5.092  0.2442  0.3440 -0.0947
  828YOPS   GL112765   8.581   6.916   5.467 -0.0581  0.2345  0.0558
  828YOPS   GL212766   8.488   6.531   5.393 -0.1040  0.1544  0.1571
  828YOPS   C1A12767   8.769   6.905   5.897  0.0952  0.0810 -0.1816
  828YOPS   D2A12768   9.094   6.856   6.227  0.0871 -0.2401  0.0406
  828YOPS   C3A12769   9.164   7.052   6.671 -0.3688  0.1315  0.2313
  828YOPS   C4A12770   9.605   7.091   6.829  0.1264  0.2388  0.0149
  828YOPS   C1B12771   8.450   6.403   5.888 -0.0138 -0.0634  0.0786
  828YOPS   C2B12772   8.438   6.732   6.261  0.0235  0.0071  0.0847
  828YOPS   D3B12773   8.647   6.677   6.628  0.1444  0.2425 -0.2792
  828YOPS   C4B12774   8.366   6.352   6.736  0.3750 -0.4480  0.0518
  829YOPS   CNO12775  13.474  18.955   4.560 -0.3342 -0.3653  0.0272
  829YOPS   PO412776  13.297  19.135   4.939 -0.1127 -0.2229 -0.1066
  829YOPS   GL112777  13.373  19.174   5.415  0.1534 -0.1769  0.0441
  829YOPS   GL212778  13.671  19.348   5.364  0.2055 -0.2187 -0.0220
  829YOPS   C1A12779  13.044  19.313   5.667 -0.2745  0.2157 -0.2266
  829YOPS   D2A12780  12.726  19.297   5.922  0.0777 -0.2468 -0.1373
  829YOPS   C3A12781  12.787  19.596   6.273  0.2975 -0.0798 -0.0790
  829YOPS   C4A12782  12.656  19.736   6.636  0.1483 -0.1997  0.0322
  829YOPS   C1B12783  13.484  19.565   5.770  0.1169  0.1447 -0.3469
  829YOPS   C2B12784  13.122  19.755   5.938 -0.0015  0.1557  0.0870
  829YOPS   D3B12785  12.884  20.157   6.036 -0.0653  0.2074  0.1739
  829YOPS   C4B12786  13.016  20.562   5.888  0.2682 -0.3066  0.0825
  830YOPS   CNO12787  17.786  17.521   4.833  0.4848 -0.2564  0.0319
  830YOPS   PO412788  17.658  17.057   4.775 -0.3263  0.0882  0.0169
  830YOPS   GL112789  17.829  17.151   5.367 -0.1318  0.4076  0.1050
  830YOPS   GL212790  17.979  16.868   5.470 -0.0602  0.0439 -0.2369
  830YOPS   C1A12791  18.099  17.295   5.666  0.0882  0.2274 -0.3644
  830YOPS   D2A12792  18.481  17.343   5.952  0.0823  0.1314  0.3938
  830YOPS   C3A12793  18.779  17.201   6.337 -0.0788 -0.0830  0.0122
  830YOPS   C4A12794  18.989  16.793   6.277  0.0319  0.0695 -0.0112
  830YOPS   C1B12795  17.828  16.860   5.854 -0.0616 -0.1623 -0.0206
  830YOPS   C2B12796  17.735  16.624   6.127 -0.1614 -0.1464 -0.1924
  830YOPS   D3B12797  17.747  16.422   6.528  0.0506  0.0245  0.0173
  830YOPS   C4B12798  17.835  16.690   6.896  0.3061  0.0211 -0.0129
  831YOPS   CNO12799  16.946  14.440   4.201 -0.1285  0.0495  0.1617
  831YOPS   PO412800  17.120  14.694   4.572 -0.0904 -0.0030  0.1025
  831YOPS   GL112801  17.267  14.536   5.052 -0.0014  0.1344 -0.1638
  831YOPS   GL212802  17.221  14.703   5.434 -0.1210  0.1507 -0.1705
  831YOPS   C1A12803  17.421  14.289   5.362  0.1021 -0.0908  0.1675
  831YOPS   D2A12804  17.354  13.981   5.758 -0.2013  0.2761  0.0081
  831YOPS   C3A12805  16.960  13.857   6.020  0.2091 -0.1964 -0.2009
  831YOPS   C4A12806  16.793  13.430   5.983  0.0631 -0.3020 -0.1975
  831YOPS   C1B12807  17.621  15.015   5.608 -0.1349 -0.3266  0.0570
  831YOPS   C2B12808  17.822  14.892   5.994  0.1420  0.1299  0.1594
  831YOPS   D3B12809  18.118  14.558   6.179  0.0086  0.0506  0.1613
  831YOPS   C4B12810  18.036  14.104   6.131 -0.0220 -0.0918  0.0683
  832YOPS   CNO12811   1.720  16.981   4.187  0.0768  0.0192 -0.1003
  832YOPS   PO412812   1.656  16.745   4.597  0.1155 -0.0405 -0.2479
  832YOPS   GL112813   1.814  16.727   4.955  0.0497  0.1488 -0.0504
  832YOPS   GL212814   1.930  16.959   5.085 -0.4459  0.0550  0.3385
  832YOPS   C1A12815   2.062  16.474   5.144  0.0261 -0.1431 -0.1511
  832YOPS   D2A12816   2.317  16.429   5.547 -0.1029  0.0195 -0.0556
  832YOPS   C3A12817   2.756  16.585   5.743 -0.1241 -0.2098 -0.1667
  832YOPS   C4A12818   3.083  16.460   6.053  0.0578 -0.0052  0.0986
  832YOPS   C1B12819   2.342  16.935   5.240  0.0320 -0.0892  0.1372
  832YOPS   C2B12820   2.693  17.096   5.509  0.1994  0.3090  0.2018
  832YOPS   D3B12821   2.727  17.302   5.819  0.0986  0.1471  0.1062
  832YOPS   C4B12822   2.428  17.240   6.137 -0.0386  0.0813  0.1648
  833YOPS   CNO12823  14.616   5.275   5.416 -0.4671  0.2123 -0.1501
  833YOPS   PO412824  14.475   5.638   5.561 -0.0656 -0.1134  0.0053
  833YOPS   GL112825  14.549   5.555   5.907 -0.3118  0.2398 -0.0744
  833YOPS   GL212826  14.820   5.405   6.002 -0.2431  0.2257  0.0462
  833YOPS   C1A12827  14.364   5.507   6.323 -0.0913 -0.0735 -0.0807
  833YOPS   D2A12828  14.104   5.329   6.576 -0.0266 -0.2152 -0.2497
  833YOPS   C3A12829  14.271   5.194   6.994 -0.0606 -0.2028  0.3453
  833YOPS   C4A12830  14.193   4.809   7.242  0.0174 -0.1110  0.1851
  833YOPS   C1B12831  14.680   5.030   6.263  0.2820 -0.0880 -0.2994
  833YOPS   C2B12832  14.326   4.898   6.580 -0.0355  0.0670 -0.0360
  833YOPS   D3B12833  13.991   4.812   6.754 -0.0693 -0.3109  0.0489
  833YOPS   C4B12834  13.718   5.105   6.735  0.1667 -0.1494 -0.0124
  834YOPS   CNO12835  16.635  13.906   5.093  0.0365  0.0396  0.2031
  834YOPS   PO412836  16.494  13.542   5.112 -0.0799 -0.0961 -0.0632
  834YOPS   GL112837  16.186  13.590   5.397 -0.1317 -0.1781 -0.0056
  834YOPS   GL212838  15.982  13.314   5.517 -0.1457 -0.2118  0.1886
  834YOPS   C1A12839  16.188  13.740   5.788 -0.0346 -0.2599  0.1805
  834YOPS   D2A12840  16.431  13.722   6.077  0.5557 -0.1099  0.0040
  834YOPS   C3A12841  16.634  13.641   6.476  0.0514  0.0116  0.2889
  834YOPS   C4A12842  16.536  13.551   6.912 -0.1646  0.0721 -0.1468
  834YOPS   C1B12843  16.315  13.286   5.834 -0.0691  0.3264  0.1951
  834YOPS   C2B12844  16.724  12.981   5.812  0.0113  0.1357 -0.2050
  834YOPS   D3B12845  17.119  12.931   5.967 -0.0693 -0.0325  0.1500
  834YOPS   C4B12846  17.433  13.132   5.902  0.0500 -0.2603  0.0610
  835YOPS   CNO12847   0.768   5.328   4.513 -0.3356  0.4666 -0.1757
  835YOPS   PO412848   0.830   5.680   4.727  0.0347  0.1237 -0.2248
  835YOPS   GL112849   0.960   5.981   5.092  0.0141  0.2468  0.2255
  835YOPS   GL212850   0.899   6.255   5.040  0.1789  0.1842 -0.1797
  835YOPS   C1A12851   1.266   5.927   5.437 -0.0434 -0.2046  0.0797
  835YOPS   D2A12852   1.226   5.860   5.908 -0.2490  0.1961 -0.2164
  835YOPS   C3A12853   1.116   5.701   6.259 -0.1929  0.1022  0.2042
  835YOPS   C4A12854   0.766   6.010   6.446  0.0223  0.0777 -0.1335
  835YOPS   C1B12855   0.732   6.216   5.473 -0.2500 -0.0030  0.0878
  835YOPS   C2B12856   0.635   6.158   5.916  0.0849  0.0248 -0.0699
  835YOPS   D3B12857   0.679   6.489   6.281  0.0093 -0.0634 -0.0691
  835YOPS   C4B12858   0.859   6.419   6.731  0.2193  0.0939  0.0846
  836YOPS   CNO12859  15.873  13.155   4.754  0.3001 -0.1484  0.1590
  836YOPS   PO412860  16.063  13.119   5.069  0.1205 -0.0686 -0.0505
  836YOPS   GL112861  16.005  12.765   5.484 -0.2172 -0.0630  0.0755
  836YOPS   GL212862  15.715  12.544   5.502  0.2140 -0.2066 -0.2484
  836YOPS   C1A12863  16.243  12.782   5.797 -0.0272  0.0522  0.0900
  836YOPS   D2A12864  16.341  12.865   6.195  0.1247 -0.0022 -0.2305
  836YOPS   C3A12865  16.441  13.168   6.545  0.3366  0.3816 -0.0161
  836YOPS   C4A12866  16.662  13.033   6.922  0.2116  0.4421  0.0346
  836YOPS   C1B12867  15.798  12.463   5.935  0.0892  0.0429 -0.4383
  836YOPS   C2B12868  15.891  12.599   6.345 -0.4223  0.3070 -0.1192
  836YOPS   D3B12869  15.959  12.885   6.686  0.0009  0.4244  0.0941
  836YOPS   C4B12870  16.034  13.215   6.948  0.2848  0.1911  0.1976
  837YOPS   CNO12871   0.836   7.632   5.106 -0.0387 -0.0077 -0.0700
  837YOPS   PO412872   1.116   7.192   5.200  0.1993 -0.0402 -0.2609
  837YOPS   GL112873   1.488   7.268   5.533  0.1211 -0.1803 -0.2132
  837YOPS   GL212874   1.654   6.984   5.825 -0.1639 -0.2265  0.1303
  837YOPS   C1A12875   1.480   7.581   5.800 -0.3707 -0.0021 -0.3215
  837YOPS   D2A12876   1.250   7.877   5.847  0.0702  0.1266  0.1168
  837YOPS   C3A12877   0.919   8.269   5.912 -0.4769  0.0930 -0.1260
  837YOPS   C4A12878   0.573   8.343   5.741  0.1735 -0.2635  0.0837
  837YOPS   C1B12879   1.371   6.817   5.963  0.1687 -0.1353 -0.3085
  837YOPS   C2B12880   1.079   6.890   6.268 -0.1684  0.5182 -0.0135
  837YOPS   D3B12881   0.878   6.868   6.601  0.0029  0.0320 -0.0340
  837YOPS   C4B12882   0.686   6.732   7.008  0.0056  0.0631 -0.0124
  838YOPS   CNO12883  19.602  13.152   4.869 -0.1998  0.1369 -0.0783
  838YOPS   PO412884  19.571  12.678   4.983  0.0451 -0.2670  0.0528
  838YOPS   GL112885  19.386  12.748   5.370  0.0416  0.1740 -0.1358
  838YOPS   GL212886  19.626  12.956   5.379  0.1044 -0.2645  0.1019
  838YOPS   C1A12887  19.354  12.610   5.760 -0.1491  0.3053 -0.0747
  838YOPS   D2A12888  19.707  12.696   6.008 -0.0491 -0.2310  0.1770
  838YOPS   C3A12889  19.865  12.572   6.396 -0.0937 -0.0468 -0.1061
  838YOPS   C4A12890  19.819  12.876   6.695  0.3256  0.1418 -0.2518
  838YOPS   C1B12891  19.977  13.090   5.765  0.0656 -0.0836 -0.1611
  838YOPS   C2B12892  20.384  13.267   5.624 -0.2396 -0.0234  0.1396
  838YOPS   D3B12893  20.717  13.206   5.396  0.1329 -0.1960 -0.0412
  838YOPS   C4B12894  21.100  13.020   5.675 -0.1896  0.3328 -0.1371
  839YOPS   CNO12895   8.325   3.837   4.951  0.1474  0.0171  0.1720
  839YOPS   PO412896   8.707   3.823   4.821 -0.3082 -0.1494 -0.1568
  839YOPS   GL112897   8.776   3.862   5.296  0.3582  0.0902  0.1072
  839YOPS   GL212898   8.470   3.574   5.474  0.0898  0.1150 -0.1087
  839YOPS   C1A12899   8.733   3.938   5.686  0.3502  0.1406  0.0338
  839YOPS   D2A12900   8.800   4.110   6.020 -0.0441  0.2613  0.0374
  839YOPS   C3A12901   8.795   4.502   6.222  0.0014  0.1876 -0.1841
  839YOPS   C4A12902   8.648   4.473   6.608  0.2509 -0.3693 -0.1664
  839YOPS   C1B12903   8.572   3.571   5.913  0.0775 -0.1188 -0.0134
  839YOPS   C2B12904   8.889   3.654   6.185  0.0136  0.0248 -0.0016
  839YOPS   D3B12905   9.210   3.609   6.305 -0.0469  0.1904  0.3211
  839YOPS   C4B12906   9.329   3.576   6.710  0.2023 -0.1302  0.0959
  840YOPS   CNO12907  10.853  10.199   4.454  0.1177  0.0826 -0.0504
  840YOPS   PO412908  11.016  10.203   4.852 -0.1172  0.0083 -0.1771
  840YOPS   GL112909  10.946   9.880   5.192 -0.0454  0.2504  0.4132
  840YOPS   GL212910  10.801  10.095   5.317  0.3375 -0.0034 -0.2393
  840YOPS   C1A12911  10.944   9.837   5.703  0.0073  0.1621 -0.2610
  840YOPS   D2A12912  10.793   9.823   6.201 -0.2623 -0.0290  0.2609
  840YOPS   C3A12913  10.690   9.752   6.636  0.1061 -0.0928 -0.0753
  840YOPS   C4A12914  10.342  10.016   6.785  0.1425 -0.5254  0.0277
  840YOPS   C1B12915  10.516  10.104   5.789 -0.0560 -0.1631 -0.0317
  840YOPS   C2B12916  10.203  10.335   5.961  0.1808  0.1106  0.1388
  840YOPS   D3B12917   9.810  10.241   6.036 -0.1735 -0.0635  0.0808
  840YOPS   C4B12918   9.630  10.222   6.414  0.2595 -0.0894  0.0020
  841YOPS   CNO12919   9.744  14.640   4.991 -0.0516  0.1627 -0.0392
  841YOPS   PO412920   9.790  14.927   4.591  0.1089  0.0103  0.3213
  841YOPS   GL112921  10.051  15.040   5.068  0.2481 -0.6436 -0.0102
  841YOPS   GL212922  10.008  14.916   5.403  0.1533 -0.3093  0.1189
  841YOPS   C1A12923   9.679  15.361   5.356  0.0125 -0.0228  0.0823
  841YOPS   D2A12924   9.245  15.391   5.507  0.1093  0.0074 -0.4892
  841YOPS   C3A12925   8.875  15.108   5.495 -0.3132  0.1416  0.0453
  841YOPS   C4A12926   8.740  14.811   5.775  0.1578  0.2500 -0.1576
  841YOPS   C1B12927   9.786  14.798   5.795 -0.0448 -0.3833  0.2899
  841YOPS   C2B12928   9.803  14.395   6.007  0.0017 -0.2513 -0.1127
  841YOPS   D3B12929   9.821  14.172   6.351 -0.2009  0.0835 -0.2185
  841YOPS   C4B12930  10.016  13.865   6.726  0.1678 -0.2930  0.0624
  842YOPS   CNO12931   5.666  19.788   4.759  0.1764  0.1589 -0.3288
  842YOPS   PO412932   6.043  19.585   4.639 -0.0828  0.1070 -0.1726
  842YOPS   GL112933   6.054  19.313   5.118  0.0437 -0.1457 -0.1970
  842YOPS   GL212934   6.344  19.170   5.059 -0.1435  0.1843 -0.1369
  842YOPS   C1A12935   5.917  19.345   5.476  0.0691 -0.1734  0.0641
  842YOPS   D2A12936   6.259  19.411   5.854  0.0092 -0.1424  0.1937
  842YOPS   C3A12937   6.564  19.284   6.149 -0.0524 -0.2313  0.3899
  842YOPS   C4A12938   6.417  19.124   6.479  0.2831 -0.1568 -0.0785
  842YOPS   C1B12939   6.296  19.014   5.537 -0.0203 -0.0747  0.0545
  842YOPS   C2B12940   6.124  18.923   6.049  0.1228  0.1192 -0.0253
  842YOPS   D3B12941   5.677  18.958   6.189 -0.0527  0.2677 -0.0153
  842YOPS   C4B12942   5.472  19.263   6.416 -0.0187  0.1110  0.2260
  843YOPS   CNO12943  13.619  15.959   4.866 -0.0886  0.2092 -0.0056
  843YOPS   PO412944  13.567  15.970   5.244 -0.0063 -0.3164  0.1328
  843YOPS   GL112945  13.851  16.079   5.589  0.0787 -0.0591 -0.0230
  843YOPS   GL212946  14.018  15.891   5.692 -0.0171 -0.0305 -0.3166
  843YOPS   C1A12947  13.825  16.202   6.061 -0.0156  0.1475 -0.1027
  843YOPS   D2A12948  13.591  16.068   6.424 -0.3322  0.0495 -0.0292
  843YOPS   C3A12949  13.504  16.297   6.749  0.0106 -0.2159 -0.0122
  843YOPS   C4A12950  13.405  16.184   7.186 -0.0588  0.0389 -0.2584
  843YOPS   C1B12951  13.970  15.707   6.165  0.0260  0.0449  0.0465
  843YOPS   C2B12952  13.766  15.636   6.548  0.1279 -0.1698 -0.2397
  843YOPS   D3B12953  13.565  15.815   6.893 -0.0344 -0.1581  0.2837
  843YOPS   C4B12954  13.813  15.767   7.197 -0.4212  0.0231 -0.3763
  844POPE   NH312955   1.641  11.485   4.610 -0.0904  0.1946  0.0778
  844POPE   PO412956   1.470  11.857   4.787 -0.0579  0.1915 -0.1331
  844POPE   GL112957   1.486  11.827   5.252 -0.0899  0.2552 -0.0188
  844POPE   GL212958   1.660  12.069   5.320  0.0506 -0.4460  0.2459
  844POPE   C1A12959   1.204  12.043   5.617  0.1885 -0.2564 -0.1549
  844POPE   D2A12960   1.318  12.464   5.849 -0.0473  0.2068  0.4780
  844POPE   C3A12961   1.425  12.546   6.206  0.0487 -0.2973  0.2470
  844POPE   C4A12962   1.509  12.608   6.698 -0.1708 -0.2663  0.3837
  844POPE   C1B12963   1.859  12.249   5.604  0.2969 -0.3807 -0.1182
  844POPE   C2B12964   1.910  12.293   6.055  0.2644  0.1839 -0.0308
  844POPE   C3B12965   1.922  12.660   6.421  0.1763  0.2049 -0.1764
  844POPE   C4B12966   2.224  12.871   6.728 -0.0489  0.0662 -0.2113
  845POPE   NH312967  16.861   1.075   5.443 -0.1657  0.0300  0.1050
  845POPE   PO412968  16.536   1.307   5.450 -0.2046  0.0178 -0.1426
  845POPE   GL112969  16.465   1.451   5.817  0.2487 -0.2781 -0.2710
  845POPE   GL212970  16.759   1.310   5.895 -0.0727 -0.2678 -0.0065
  845POPE   C1A12971  16.622   1.774   6.035 -0.0460 -0.3323 -0.2035
  845POPE   D2A12972  16.595   2.037   6.406  0.3125 -0.1096 -0.0865
  845POPE   C3A12973  16.735   2.429   6.565 -0.0981  0.1146  0.0271
  845POPE   C4A12974  16.595   2.911   6.527  0.2846  0.2127  0.0093
  845POPE   C1B12975  16.740   1.304   6.331  0.0848  0.1921  0.0855
  845POPE   C2B12976  16.897   1.543   6.717 -0.0619  0.1183  0.0075
  845POPE   C3B12977  17.130   1.153   7.125  0.1722  0.2507  0.2891
  845POPE   C4B12978  17.418   0.918   7.186 -0.0537  0.0018  0.1905
  846POPE   NH312979   2.499   1.436   5.043  0.0206 -0.0737 -0.0778
  846POPE   PO412980   2.727   1.843   4.882 -0.1152 -0.1402  0.2503
  846POPE   GL112981   2.964   1.701   5.289  0.2875  0.0958 -0.2569
  846POPE   GL212982   3.010   1.381   5.296  0.3199 -0.1551  0.0177
  846POPE   C1A12983   3.157   1.679   5.670 -0.0302 -0.2828 -0.2420
  846POPE   D2A12984   3.151   1.521   6.136  0.0415 -0.2080 -0.1848
  846POPE   C3A12985   2.828   1.278   6.091  0.2812  0.0018  0.1522
  846POPE   C4A12986   2.518   1.196   5.826 -0.2813 -0.0802 -0.0421
  846POPE   C1B12987   3.107   1.165   5.689 -0.3046 -0.0996  0.1911
  846POPE   C2B12988   3.296   1.063   6.168 -0.1900 -0.4750  0.1384
  846POPE   C3B12989   3.587   0.734   6.317  0.4269 -0.1741 -0.1265
  846POPE   C4B12990   3.717   0.481   6.693  0.1475  0.0932 -0.0124
  847POPE   NH312991   8.450  19.083   4.710  0.3550 -0.1423 -0.2594
  847POPE   PO412992   8.632  18.772   4.765 -0.1121  0.1743  0.0053
  847POPE   GL112993   8.647  18.559   5.120  0.2220 -0.0644 -0.0764
  847POPE   GL212994   9.029  18.718   5.352  0.1223  0.0206 -0.1892
  847POPE   C1A12995   8.683  18.112   5.310  0.1094 -0.2199  0.0617
  847POPE   D2A12996   8.481  18.050   5.744 -0.1462 -0.2007 -0.2478
  847POPE   C3A12997   8.476  18.430   6.000  0.0342 -0.0548  0.0353
  847POPE   C4A12998   8.463  18.648   6.324 -0.0402 -0.4246 -0.1592
  847POPE   C1B12999   9.159  18.421   5.561 -0.2390 -0.0213 -0.0046
  847POPE   C2B13000   9.473  18.194   5.756  0.0583 -0.0280  0.1004
  847POPE   C3B13001   9.416  18.220   6.203 -0.0762  0.0492 -0.0117
  847POPE   C4B13002   9.269  18.294   6.556  0.1028  0.0782 -0.1395
  848POPE   NH313003  11.497   9.950   4.642 -0.2288 -0.0356 -0.0567
  848POPE   PO413004  11.466  10.433   4.891  0.1367  0.1366  0.1663
  848POPE   GL113005  11.492  10.406   5.292  0.3469  0.0001 -0.1572
  848POPE   GL213006  11.534  10.612   5.451 -0.1810 -0.1688 -0.0241
  848POPE   C1A13007  11.329  10.110   5.609  0.0931 -0.0131 -0.1095
  848POPE   D2A13008  11.374   9.871   5.973 -0.2510 -0.1195 -0.2612
  848POPE   C3A13009  11.896  10.043   5.991  0.5461 -0.0316  0.1113
  848POPE   C4A13010  12.184   9.983   5.804 -0.0480  0.0367  0.1337
  848POPE   C1B13011  11.506  10.540   5.854 -0.1298 -0.1379  0.0300
  848POPE   C2B13012  11.420  10.774   6.235  0.4976  0.1690  0.0311
  848POPE   C3B13013  11.143  11.037   6.430 -0.0735 -0.0325  0.0266
  848POPE   C4B13014  10.782  11.271   6.588  0.0102  0.0193 -0.0065
  849POPE   NH313015   3.481   6.908   4.763  0.0200 -0.0891  0.0430
  849POPE   PO413016   3.222   6.610   4.939  0.1902  0.4766 -0.2411
  849POPE   GL113017   3.399   6.669   5.251 -0.0468 -0.4591 -0.0296
  849POPE   GL213018   3.558   6.983   5.280 -0.2735  0.2182 -0.2180
  849POPE   C1A13019   3.606   6.479   5.609 -0.2626 -0.2752 -0.0762
  849POPE   D2A13020   3.778   6.806   5.853 -0.2012 -0.0385 -0.0200
  849POPE   C3A13021   4.172   7.010   5.902  0.0587 -0.2016 -0.0491
  849POPE   C4A13022   4.588   7.139   5.999  0.1613  0.0573  0.0849
  849POPE   C1B13023   3.737   7.356   5.633  0.0577  0.2865  0.0787
  849POPE   C2B13024   3.890   7.345   6.042  0.1818  0.1089 -0.1330
  849POPE   C3B13025   3.846   7.276   6.426  0.2652 -0.0404 -0.1154
  849POPE   C4B13026   3.542   7.385   6.785  0.1651  0.0613  0.0795
  850POPE   NH313027   7.433   9.136   4.999  0.1178 -0.4311  0.0389
  850POPE   PO413028   7.614   8.757   4.896 -0.4213  0.4963  0.0719
  850POPE   GL113029   7.747   8.824   5.329 -0.0903 -0.1290  0.0599
  850POPE   GL213030   7.578   9.118   5.495  0.2693  0.0660  0.4272
  850POPE   C1A13031   7.893   8.814   5.694 -0.2189  0.0379  0.4908
  850POPE   D2A13032   7.859   8.668   6.186  0.0621  0.0433  0.1516
  850POPE   C3A13033   8.136   8.559   6.475  0.0959 -0.2330  0.0425
  850POPE   C4A13034   8.281   8.210   6.373  0.1086 -0.4593 -0.0605
  850POPE   C1B13035   7.510   8.934   5.968  0.7605  0.0583 -0.3953
  850POPE   C2B13036   7.297   8.870   6.435 -0.3492  0.0027  0.2550
  850POPE   C3B13037   7.043   8.839   6.747  0.0411 -0.0079 -0.0537
  850POPE   C4B13038   6.887   9.187   6.907  0.0834  0.0700 -0.0239
  851POPE   NH313039   7.160  16.205   4.268 -0.1332  0.0495 -0.2610
  851POPE   PO413040   7.295  15.873   4.496 -0.2639 -0.0288 -0.4197
  851POPE   GL113041   7.111  16.036   4.847 -0.1639 -0.2328  0.0622
  851POPE   GL213042   6.967  16.303   4.780 -0.1149 -0.0383 -0.3043
  851POPE   C1A13043   6.770  15.934   5.092  0.1107 -0.0101  0.2781
  851POPE   D2A13044   6.701  15.947   5.508  0.2058  0.0200 -0.2563
  851POPE   C3A13045   6.398  15.797   5.770  0.3930 -0.0640 -0.0057
  851POPE   C4A13046   6.182  15.812   6.062 -0.0206  0.1391  0.2726
  851POPE   C1B13047   6.680  16.431   5.153  0.1106 -0.3383  0.2730
  851POPE   C2B13048   6.423  16.715   5.411 -0.2657 -0.3105 -0.2647
  851POPE   C3B13049   6.420  16.853   5.785  0.3960 -0.1648  0.0865
  851POPE   C4B13050   6.646  16.654   6.082  0.1103  0.1168  0.0706
  852POPE   NH313051   3.601   8.677   4.774  0.1080 -0.0133  0.1061
  852POPE   PO413052   3.291   9.088   4.811 -0.2972 -0.1116  0.1035
  852POPE   GL113053   3.305   8.931   5.115  0.2581 -0.2833  0.0814
  852POPE   GL213054   3.241   8.521   5.137 -0.1417  0.2529  0.0174
  852POPE   C1A13055   2.960   8.870   5.344  0.0623  0.0597 -0.1584
  852POPE   D2A13056   2.773   9.163   5.656 -0.0140 -0.0923  0.0273
  852POPE   C3A13057   2.739   9.579   5.672  0.1462  0.0985  0.0062
  852POPE   C4A13058   2.702  10.038   5.563 -0.2111 -0.1345 -0.1142
  852POPE   C1B13059   3.008   8.352   5.423  0.1291 -0.1527  0.1626
  852POPE   C2B13060   2.708   8.558   5.732  0.0412  0.2497  0.0301
  852POPE   C3B13061   2.636   8.623   6.119  0.0266  0.0623  0.1420
  852POPE   C4B13062   2.633   8.702   6.605 -0.0324  0.1333 -0.0833
  853POPE   NH313063  13.721   9.400   5.096  0.1706  0.2948 -0.1264
  853POPE   PO413064  13.287   9.403   5.215  0.0949 -0.0907  0.0455
  853POPE   GL113065  13.525   9.300   5.588 -0.0731  0.3563  0.0294
  853POPE   GL213066  13.301   9.260   5.846 -0.0068  0.2440 -0.2657
  853POPE   C1A13067  13.730   9.019   5.714  0.3532 -0.1327  0.0312
  853POPE   D2A13068  13.704   8.670   5.986  0.0456  0.1300 -0.0815
  853POPE   C3A13069  13.374   8.766   6.377 -0.2710  0.1993  0.3871
  853POPE   C4A13070  13.280   8.435   6.729 -0.0621 -0.2831 -0.1149
  853POPE   C1B13071  13.412   9.236   6.151 -0.3179  0.1834 -0.3380
  853POPE   C2B13072  13.541   9.254   6.553  0.1151  0.0767  0.1339
  853POPE   C3B13073  13.789   9.040   6.696 -0.1345 -0.1157 -0.0762
  853POPE   C4B13074  14.194   8.938   6.828  0.1104 -0.0056 -0.3058
  854POPE   NH313075   1.901  18.445   4.905  0.1957  0.2406  0.0579
  854POPE   PO413076   2.318  18.375   4.845  0.1177  0.0200 -0.1059
  854POPE   GL113077   2.223  18.380   5.344 -0.2952  0.3207  0.4789
  854POPE   GL213078   2.507  18.371   5.533 -0.4375  0.1699 -0.0909
  854POPE   C1A13079   1.829  18.408   5.628 -0.0714  0.1716 -0.0808
  854POPE   D2A13080   1.592  18.249   5.928 -0.4962 -0.0110  0.1411
  854POPE   C3A13081   1.636  18.443   6.234  0.0477 -0.0621  0.2726
  854POPE   C4A13082   1.567  18.746   6.508  0.1422  0.1285  0.1065
  854POPE   C1B13083   2.606  18.274   6.030  0.1436  0.0776 -0.1331
  854POPE   C2B13084   2.602  18.319   6.402  0.2797  0.1089 -0.1390
  854POPE   C3B13085   2.559  18.393   6.830  0.0973 -0.0609  0.0827
  854POPE   C4B13086   2.458  18.881   7.003  0.0026  0.0767  0.2140
  855POPE   NH313087  15.033   7.807   5.315  0.1044  0.1185  0.1031
  855POPE   PO413088  15.452   7.560   5.276 -0.0771 -0.0051  0.1125
  855POPE   GL113089  15.251   7.582   5.741 -0.0719 -0.0552 -0.3278
  855POPE   GL213090  15.482   7.414   5.975  0.0059 -0.0393 -0.0751
  855POPE   C1A13091  15.058   7.682   6.120 -0.0464  0.4313 -0.3696
  855POPE   D2A13092  15.010   7.691   6.531 -0.1620  0.0052  0.0139
  855POPE   C3A13093  14.769   8.142   6.795  0.2335 -0.0030 -0.1712
  855POPE   C4A13094  14.639   8.581   6.990  0.2355  0.0316 -0.1391
  855POPE   C1B13095  15.434   7.357   6.365 -0.0688 -0.0477  0.1042
  855POPE   C2B13096  15.536   7.682   6.684  0.1106 -0.0590 -0.4650
  855POPE   C3B13097  15.244   7.978   6.937  0.1183 -0.1868 -0.0955
  855POPE   C4B13098  14.915   8.229   7.307  0.0433 -0.3719 -0.1162
  856POPE   NH313099   5.087   6.917   4.590  0.0742 -0.1027 -0.1750
  856POPE   PO413100   4.858   7.231   4.840 -0.1225 -0.3525  0.0970
  856POPE   GL113101   4.737   7.220   5.176  0.0816  0.4253  0.0796
  856POPE   GL213102   4.524   6.913   5.289  0.0382  0.1205 -0.3886
  856POPE   C1A13103   4.821   7.157   5.592 -0.3294 -0.3368 -0.0982
  856POPE   D2A13104   4.693   6.755   5.749 -0.0417  0.2508  0.0654
  856POPE   C3A13105   4.546   6.709   6.203  0.0243  0.1828 -0.2340
  856POPE   C4A13106   4.391   6.508   6.521  0.0538 -0.1501  0.1612
  856POPE   C1B13107   4.316   7.290   5.492 -0.5231 -0.0499  0.0686
  856POPE   C2B13108   4.112   7.708   5.464 -0.0604  0.1424 -0.1448
  856POPE   C3B13109   4.138   8.132   5.715 -0.3246 -0.2017  0.3277
  856POPE   C4B13110   4.350   8.344   6.023 -0.3175  0.0203 -0.0645
  857POPE   NH313111   4.737  15.330   4.236 -0.0819  0.2046  0.0652
  857POPE   PO413112   4.578  15.643   4.513  0.0678  0.0977  0.1670
  857POPE   GL113113   4.409  15.621   4.873  0.1669 -0.2524 -0.1020
  857POPE   GL213114   4.219  15.366   4.860 -0.1196 -0.2383 -0.1026
  857POPE   C1A13115   4.277  15.769   5.311 -0.0684  0.1706  0.4269
  857POPE   D2A13116   4.212  15.775   5.795  0.0713 -0.0348 -0.2064
  857POPE   C3A13117   3.846  15.844   6.014 -0.1775  0.0570  0.0555
  857POPE   C4A13118   3.545  16.164   5.925  0.2199 -0.2625 -0.2358
  857POPE   C1B13119   4.109  15.263   5.243 -0.2788  0.1038 -0.0052
  857POPE   C2B13120   4.427  15.257   5.699 -0.0682  0.0559  0.0345
  857POPE   C3B13121   4.657  15.620   5.623 -0.1624 -0.2917  0.0169
  857POPE   C4B13122   4.679  16.061   5.468 -0.0333 -0.1125 -0.2378
  858POPE   NH313123  14.074   6.455   5.391 -0.0214  0.2270  0.2158
  858POPE   PO413124  13.908   6.768   5.147  0.1275 -0.0584 -0.0919
  858POPE   GL113125  13.839   6.876   5.589  0.1309 -0.3420  0.2426
  858POPE   GL213126  14.015   7.117   5.668 -0.0402 -0.0186 -0.5523
  858POPE   C1A13127  13.727   6.677   5.950 -0.4220  0.2582 -0.0479
  858POPE   D2A13128  13.612   6.240   6.171 -0.1145  0.0177  0.1351
  858POPE   C3A13129  13.309   6.037   6.355 -0.2524 -0.0066  0.0751
  858POPE   C4A13130  13.265   5.932   6.665  0.1001 -0.2355 -0.0839
  858POPE   C1B13131  14.010   7.055   6.113 -0.0581  0.0408 -0.0289
  858POPE   C2B13132  13.821   7.261   6.480 -0.0909 -0.0617 -0.0014
  858POPE   C3B13133  13.850   7.522   6.874 -0.0076  0.2374 -0.0210
  858POPE   C4B13134  13.662   7.433   7.303 -0.0059 -0.3696 -0.4646
  859POPE   NH313135   9.020   8.696   4.643 -0.1430  0.2913  0.0790
  859POPE   PO413136   8.858   8.312   4.766 -0.0969  0.1167 -0.2137
  859POPE   GL113137   9.070   8.367   5.158  0.1215  0.2424 -0.1896
  859POPE   GL213138   8.894   8.216   5.286  0.0447 -0.2228 -0.0026
  859POPE   C1A13139   9.036   8.503   5.701 -0.0789 -0.0477  0.2117
  859POPE   D2A13140   8.775   8.396   6.123 -0.4027 -0.3432  0.0375
  859POPE   C3A13141   8.994   8.498   6.517 -0.1333  0.5551  0.2272
  859POPE   C4A13142   9.016   8.157   6.854 -0.2181 -0.0016 -0.0576
  859POPE   C1B13143   8.549   8.438   5.545  0.0194 -0.4598 -0.3335
  859POPE   C2B13144   8.301   8.613   5.937 -0.2071  0.3115  0.0062
  859POPE   C3B13145   8.503   8.927   6.269 -0.1639 -0.0642  0.3223
  859POPE   C4B13146   8.788   8.953   6.588  0.3308 -0.0138 -0.1012
  860POPE   NH313147   8.767  11.866   4.835  0.1734  0.1796 -0.2959
  860POPE   PO413148   8.839  11.456   4.701  0.1592 -0.3152 -0.0460
  860POPE   GL113149   9.058  11.254   4.891 -0.0998 -0.1739  0.1475
  860POPE   GL213150   9.259  11.621   5.158 -0.3160  0.0415 -0.2055
  860POPE   C1A13151   9.047  11.035   5.230  0.0422  0.3332  0.0533
  860POPE   D2A13152   9.157  11.057   5.589 -0.2292  0.0084  0.1714
  860POPE   C3A13153   9.475  11.295   5.846  0.0695  0.0288 -0.0074
  860POPE   C4A13154   9.931  11.212   5.996  0.4177  0.2347 -0.2071
  860POPE   C1B13155   9.558  11.822   5.477  0.3116 -0.2065  0.0498
  860POPE   C2B13156   9.730  11.753   5.894 -0.0008 -0.0314 -0.5333
  860POPE   C3B13157   9.578  11.604   6.264 -0.0924 -0.0278 -0.1094
  860POPE   C4B13158   9.048  11.635   6.421 -0.1761  0.0701 -0.0849
  861POPE   NH313159   8.718  16.762   4.810 -0.5010 -0.0658  0.1420
  861POPE   PO413160   8.876  16.405   4.772  0.0521  0.2961 -0.2248
  861POPE   GL113161   8.725  16.163   5.113 -0.0801 -0.0662  0.0257
  861POPE   GL213162   8.837  15.860   5.243  0.0302  0.0442 -0.1736
  861POPE   C1A13163   8.453  16.241   5.396  0.1888  0.4454 -0.6131
  861POPE   D2A13164   8.007  16.147   5.704 -0.1992 -0.1404  0.2851
  861POPE   C3A13165   7.574  16.234   5.649  0.2515 -0.0535  0.0685
  861POPE   C4A13166   7.259  16.435   5.900 -0.0187 -0.1239 -0.5277
  861POPE   C1B13167   8.819  15.640   5.606 -0.3875  0.0182 -0.2734
  861POPE   C2B13168   8.850  15.298   5.950  0.0837  0.0294 -0.2575
  861POPE   C3B13169   8.773  15.359   6.352 -0.0704 -0.2422  0.1554
  861POPE   C4B13170   8.602  15.482   6.798  0.2145  0.2163  0.2588
  862POPE   NH313171   8.699  12.649   5.220 -0.1270 -0.1274  0.0368
  862POPE   PO413172   8.329  12.889   5.144 -0.2254 -0.1417  0.5502
  862POPE   GL113173   8.469  12.940   5.636 -0.1733  0.1657 -0.0399
  862POPE   GL213174   8.268  13.101   5.673  0.0169  0.4551 -0.1203
  862POPE   C1A13175   8.784  12.940   5.978  0.0207 -0.1619 -0.1687
  862POPE   D2A13176   8.988  12.832   6.275  0.2062 -0.0852  0.0255
  862POPE   C3A13177   9.135  12.807   6.739  0.2147  0.0890 -0.4056
  862POPE   C4A13178   9.006  13.243   7.024  0.1460 -0.1524 -0.1206
  862POPE   C1B13179   8.321  13.120   6.057  0.3074  0.2175  0.0118
  862POPE   C2B13180   8.132  12.915   6.491  0.3419  0.1528 -0.1905
  862POPE   C3B13181   8.034  12.551   6.721  0.1123  0.1547  0.2690
  862POPE   C4B13182   7.966  12.007   6.611  0.1548 -0.0649 -0.2413
  863POPE   NH313183   8.055  17.249   4.466  0.2132  0.0553 -0.0517
  863POPE   PO413184   8.207  17.652   4.714  0.0907  0.1082  0.2443
  863POPE   GL113185   8.244  17.734   5.193 -0.2386  0.1376 -0.0708
  863POPE   GL213186   8.541  17.655   5.225  0.0459  0.2838  0.0845
  863POPE   C1A13187   8.149  17.857   5.468  0.2972 -0.0569 -0.3511
  863POPE   D2A13188   8.053  17.781   5.874  0.4253 -0.0325 -0.2076
  863POPE   C3A13189   8.157  17.322   5.852 -0.0814 -0.0706  0.3605
  863POPE   C4A13190   8.317  17.011   5.952  0.2593 -0.2331 -0.2468
  863POPE   C1B13191   8.750  17.437   5.527 -0.0214 -0.2661 -0.0507
  863POPE   C2B13192   8.629  17.517   5.935 -0.3120  0.3659 -0.0297
  863POPE   C3B13193   8.340  17.498   6.284  0.1538  0.2050  0.0695
  863POPE   C4B13194   8.155  17.317   6.553  0.0755  0.0038 -0.1348
  864POPE   NH313195   9.145   5.190   4.908 -0.2052  0.5361  0.0698
  864POPE   PO413196   9.319   5.444   5.084  0.2306 -0.0282 -0.0873
  864POPE   GL113197   9.214   5.137   5.378  0.2418 -0.4266 -0.0516
  864POPE   GL213198   8.884   5.021   5.452  0.2657  0.2601  0.0965
  864POPE   C1A13199   9.343   5.054   5.765  0.2269 -0.0397  0.2210
  864POPE   D2A13200   9.434   5.096   6.137 -0.5022 -0.0475 -0.0680
  864POPE   C3A13201   9.750   4.849   6.392 -0.1405 -0.1093 -0.1662
  864POPE   C4A13202   9.902   4.876   6.786 -0.0170 -0.1706 -0.0123
  864POPE   C1B13203   8.904   4.959   5.969  0.0982 -0.1835  0.4180
  864POPE   C2B13204   8.934   4.943   6.395 -0.0816 -0.0391 -0.1698
  864POPE   C3B13205   8.959   4.973   6.749  0.2791 -0.1399 -0.3535
  864POPE   C4B13206   8.800   5.066   7.038  0.5031  0.1209 -0.0930
  865POPE   NH313207   6.841   4.656   5.044  0.4807  0.0316  0.1493
  865POPE   PO413208   6.623   5.083   4.903 -0.0354  0.2142  0.1915
  865POPE   GL113209   6.746   5.091   5.314  0.2556 -0.1885 -0.0951
  865POPE   GL213210   6.967   4.792   5.550  0.2634  0.0611  0.1500
  865POPE   C1A13211   6.908   5.240   5.695 -0.3087 -0.0611 -0.1694
  865POPE   D2A13212   6.909   5.490   6.036 -0.1358  0.0369 -0.2010
  865POPE   C3A13213   6.482   5.508   6.105  0.0631  0.0989  0.1574
  865POPE   C4A13214   6.137   5.655   5.812  0.4105  0.3480 -0.0183
  865POPE   C1B13215   6.894   4.823   5.956  0.0755 -0.0936 -0.0865
  865POPE   C2B13216   6.710   5.110   6.250  0.1194 -0.0527  0.5301
  865POPE   C3B13217   6.439   5.158   6.578  0.3603  0.1238  0.2084
  865POPE   C4B13218   6.466   5.290   6.945 -0.1338 -0.1946 -0.0305
  866POPE   NH313219   8.027   1.335   5.107 -0.3744  0.2848  0.1888
  866POPE   PO413220   7.794   0.994   5.095 -0.0202 -0.0086  0.0237
  866POPE   GL113221   7.654   1.237   5.477 -0.2436 -0.0359  0.3820
  866POPE   GL213222   7.369   1.445   5.554  0.0726 -0.2517  0.3120
  866POPE   C1A13223   7.684   1.301   6.028  0.1299 -0.0235  0.2914
  866POPE   D2A13224   7.555   0.974   6.298 -0.1233 -0.0997 -0.0985
  866POPE   C3A13225   7.163   0.770   6.239 -0.0774 -0.3085  0.0645
  866POPE   C4A13226   6.911   0.590   6.633 -0.1253  0.0886 -0.1884
  866POPE   C1B13227   7.248   1.099   5.891  0.2402 -0.0229 -0.0056
  866POPE   C2B13228   7.546   0.786   5.819 -0.1038 -0.2875  0.0771
  866POPE   C3B13229   7.859   0.507   5.706 -0.0607 -0.2525 -0.0407
  866POPE   C4B13230   8.257   0.420   5.586  0.1412  0.2685  0.1836
  867POPE   NH313231   7.889  11.015   4.518  0.1578  0.1846  0.3450
  867POPE   PO413232   8.223  10.950   4.941  0.1543  0.2058  0.0439
  867POPE   GL113233   8.547  11.010   5.206 -0.1052 -0.0847 -0.2888
  867POPE   GL213234   8.310  11.285   5.425 -0.3541  0.0824  0.1905
  867POPE   C1A13235   8.628  11.070   5.711 -0.2936  0.0420 -0.1740
  867POPE   D2A13236   8.967  11.013   6.082 -0.0918  0.0174 -0.5028
  867POPE   C3A13237   8.782  10.681   6.251 -0.2752 -0.1702 -0.0624
  867POPE   C4A13238   8.541  10.358   6.412 -0.2648 -0.0421  0.1750
  867POPE   C1B13239   8.355  11.579   5.702 -0.0093 -0.0953  0.3145
  867POPE   C2B13240   8.659  11.382   6.105  0.0619 -0.0311  0.1011
  867POPE   C3B13241   8.573  11.137   6.497  0.1748  0.1306 -0.2490
  867POPE   C4B13242   8.653  10.928   7.001  0.0196 -0.0194 -0.0679
  868POPE   NH313243   5.183  16.261   4.465  0.1257  0.2217  0.3001
  868POPE   PO413244   5.667  16.256   4.419  0.0228 -0.0333 -0.1901
  868POPE   GL113245   5.464  16.492   4.832  0.1442  0.3329 -0.0329
  868POPE   GL213246   5.614  16.376   5.039  0.0273 -0.0802 -0.2619
  868POPE   C1A13247   5.218  16.671   5.257 -0.4452  0.2855 -0.0194
  868POPE   D2A13248   5.082  16.472   5.624 -0.1511  0.1006  0.0203
  868POPE   C3A13249   4.977  16.335   6.061 -0.1618  0.0801  0.0700
  868POPE   C4A13250   5.264  16.066   6.287  0.0628 -0.0792 -0.1609
  868POPE   C1B13251   5.984  16.449   5.385 -0.2661  0.0466 -0.2758
  868POPE   C2B13252   5.980  16.572   5.762 -0.4961 -0.0683 -0.2817
  868POPE   C3B13253   6.114  16.776   6.212 -0.2924  0.2556 -0.0743
  868POPE   C4B13254   6.247  17.127   6.312 -0.0962  0.0545  0.1173
  869POPE   NH313255  14.481  14.571   5.028  0.1267 -0.2864 -0.1536
  869POPE   PO413256  14.613  14.376   5.369 -0.0826  0.1690  0.3258
  869POPE   GL113257  14.813  14.151   5.682  0.0802 -0.4225  0.1803
  869POPE   GL213258  14.956  14.439   5.786  0.1678  0.0075  0.1264
  869POPE   C1A13259  14.698  14.162   6.188 -0.2102  0.2430  0.0792
  869POPE   D2A13260  14.239  14.053   6.113 -0.0131 -0.2020 -0.1789
  869POPE   C3A13261  13.912  14.309   6.017  0.4204 -0.2164 -0.1058
  869POPE   C4A13262  13.512  14.269   5.771  0.2181 -0.0343  0.0141
  869POPE   C1B13263  15.163  14.123   6.064  0.2078  0.0017  0.1650
  869POPE   C2B13264  15.260  14.154   6.480  0.0584 -0.0487 -0.0140
  869POPE   C3B13265  15.306  14.249   6.897  0.0676  0.0724 -0.0774
  869POPE   C4B13266  14.952  14.479   7.247  0.0245  0.0565 -0.2471
  870POPE   NH313267   8.773  19.653   4.492 -0.1898 -0.0607 -0.0981
  870POPE   PO413268   8.740  19.662   4.970 -0.4442  0.0003 -0.0491
  870POPE   GL113269   8.696  19.736   5.338 -0.1777  0.0759 -0.0633
  870POPE   GL213270   8.965  19.864   5.544  0.0650  0.1073 -0.2690
  870POPE   C1A13271   8.544  19.867   5.816 -0.2473 -0.4579  0.1384
  870POPE   D2A13272   8.424  20.106   6.217 -0.0730  0.0010 -0.0432
  870POPE   C3A13273   8.037  20.167   6.225  0.0720 -0.0957  0.3784
  870POPE   C4A13274   7.725  20.414   6.208 -0.0759 -0.0261  0.0161
  870POPE   C1B13275   9.376  19.817   5.760 -0.0827  0.1107 -0.1325
  870POPE   C2B13276   9.691  19.724   6.117  0.1695 -0.0796 -0.1283
  870POPE   C3B13277   9.871  19.912   6.463 -0.0666  0.2787 -0.0687
  870POPE   C4B13278   9.993  19.804   6.822 -0.3047  0.0130 -0.4335
  871POPE   NH313279  10.154  10.127   4.986  0.3729  0.3554  0.2558
  871POPE   PO413280   9.806   9.914   4.949 -0.0159  0.0472  0.1239
  871POPE   GL113281  10.086   9.824   5.372 -0.0877  0.0452  0.0724
  871POPE   GL213282  10.395   9.722   5.294 -0.3244 -0.0665  0.0984
  871POPE   C1A13283  10.114   9.863   5.882 -0.0609  0.1562 -0.1056
  871POPE   D2A13284  10.206   9.935   6.322 -0.1461 -0.1206  0.1644
  871POPE   C3A13285  10.497  10.315   6.439  0.1390  0.0138 -0.1655
  871POPE   C4A13286  10.710  10.684   6.472  0.1404  0.1712 -0.0357
  871POPE   C1B13287  10.504   9.594   5.703  0.2822 -0.2505 -0.1688
  871POPE   C2B13288  10.415   9.532   6.061  0.1063  0.0254 -0.2053
  871POPE   C3B13289  10.743   9.345   6.355 -0.1582  0.0021 -0.0771
  871POPE   C4B13290  11.165   9.479   6.320  0.2737  0.0456  0.4083
  872POPE   NH313291  11.283  17.724   4.476 -0.0428 -0.2279 -0.2149
  872POPE   PO413292  11.054  17.357   4.646 -0.0644  0.2887  0.1835
  872POPE   GL113293  10.789  17.399   4.985  0.4042 -0.0010  0.1812
  872POPE   GL213294  10.897  17.238   5.195 -0.1626  0.1000  0.0667
  872POPE   C1A13295  10.663  17.689   5.278  0.0597 -0.0163  0.1589
  872POPE   D2A13296  10.310  17.851   5.379 -0.0042  0.2298  0.1847
  872POPE   C3A13297  10.165  17.869   5.817  0.0351  0.3779 -0.0999
  872POPE   C4A13298  10.344  17.760   6.175 -0.0053  0.0327 -0.0896
  872POPE   C1B13299  10.678  17.083   5.522  0.0616  0.0538 -0.1508
  872POPE   C2B13300  10.762  16.992   6.001  0.1986 -0.3746  0.0958
  872POPE   C3B13301  11.108  17.206   6.205  0.1757 -0.1215  0.1321
  872POPE   C4B13302  11.358  17.307   6.586  0.5776  0.3625 -0.1313
  873POPE   NH313303   5.683  15.127   4.704 -0.0431  0.0882 -0.1922
  873POPE   PO413304   5.195  15.128   4.558  0.2627  0.0084 -0.3964
  873POPE   GL113305   5.226  15.002   5.000 -0.2073  0.0952 -0.0413
  873POPE   GL213306   4.982  14.961   5.096 -0.1616  0.0292  0.2257
  873POPE   C1A13307   5.275  15.027   5.500  0.0875 -0.0585 -0.3192
  873POPE   D2A13308   5.219  14.848   5.805 -0.1275  0.1250  0.0433
  873POPE   C3A13309   5.353  14.961   6.253 -0.1759 -0.2036 -0.0524
  873POPE   C4A13310   5.344  14.995   6.650  0.0451  0.0535 -0.1172
  873POPE   C1B13311   4.877  14.687   5.452 -0.6383  0.0794 -0.4746
  873POPE   C2B13312   4.580  14.756   5.597  0.2316 -0.1984 -0.0940
  873POPE   C3B13313   4.285  14.737   5.910  0.0654 -0.0773  0.4427
  873POPE   C4B13314   4.317  14.999   6.158 -0.2942  0.0198  0.0106
  874YOPE   NH313315  11.659   7.439   4.929 -0.1022  0.2926 -0.0286
  874YOPE   PO413316  11.370   7.770   4.817  0.1825 -0.1340  0.3084
  874YOPE   GL113317  11.407   7.809   5.161  0.0323 -0.2862 -0.2316
  874YOPE   GL213318  11.218   7.929   5.382  0.1262  0.0419 -0.0300
  874YOPE   C1A13319  11.706   7.866   5.519 -0.1715  0.1988 -0.3912
  874YOPE   D2A13320  11.984   7.867   5.769 -0.3211  0.0299  0.0976
  874YOPE   C3A13321  12.075   8.286   6.015  0.0892  0.0656 -0.0799
  874YOPE   C4A13322  12.092   8.325   6.428  0.1645  0.0647  0.2370
  874YOPE   C1B13323  10.961   8.163   5.661  0.1914 -0.3434  0.0958
  874YOPE   C2B13324  10.897   8.089   6.098 -0.1678 -0.3719  0.3449
  874YOPE   D3B13325  10.861   8.302   6.612  0.3112 -0.2492 -0.0134
  874YOPE   C4B13326  10.672   8.308   7.025  0.0823 -0.0600  0.1654
  875YOPE   NH313327   1.317  15.120   5.091  0.0203 -0.0304 -0.0139
  875YOPE   PO413328   1.576  14.981   4.774 -0.0247  0.0823 -0.4558
  875YOPE   GL113329   1.594  14.720   5.048  0.0737 -0.1406  0.1166
  875YOPE   GL213330   1.924  14.624   5.243  0.1988 -0.2990 -0.0296
  875YOPE   C1A13331   1.463  14.500   5.386  0.0042 -0.3747 -0.0030
  875YOPE   D2A13332   1.466  14.669   5.842  0.0394  0.2301 -0.0354
  875YOPE   C3A13333   1.910  14.792   6.064 -0.1865  0.1629 -0.0866
  875YOPE   C4A13334   2.234  14.978   6.359  0.0424  0.0048 -0.1725
  875YOPE   C1B13335   1.792  14.881   5.532 -0.3745 -0.1206  0.2923
  875YOPE   C2B13336   1.951  15.219   5.815  0.2751 -0.2976 -0.4453
  875YOPE   D3B13337   1.940  15.371   6.173  0.5002 -0.1375  0.0367
  875YOPE   C4B13338   2.302  15.506   6.292  0.0478 -0.1572  0.2908
  876YOPE   NH313339   2.994  19.446   4.960 -0.4289  0.1332 -0.0609
  876YOPE   PO413340   3.217  19.211   4.705 -0.1672 -0.2538  0.2041
  876YOPE   GL113341   3.326  19.142   5.148 -0.1295  0.3798  0.2215
  876YOPE   GL213342   3.514  19.271   5.296  0.1214 -0.2234 -0.0471
  876YOPE   C1A13343   3.189  19.052   5.619  0.0710 -0.0452  0.2664
  876YOPE   D2A13344   3.161  18.664   5.692 -0.1801 -0.0244 -0.0431
  876YOPE   C3A13345   3.290  18.432   6.044 -0.1130 -0.1829 -0.4420
  876YOPE   C4A13346   3.513  18.042   6.058 -0.0559 -0.0994 -0.1266
  876YOPE   C1B13347   3.918  19.387   5.582  0.1333 -0.2978 -0.1202
  876YOPE   C2B13348   4.210  19.701   5.829 -0.1425 -0.0555  0.2853
  876YOPE   D3B13349   4.287  19.969   6.151 -0.1567  0.2340 -0.0752
  876YOPE   C4B13350   4.079  20.327   6.383  0.1167 -0.0915 -0.1789
  877YOPE   NH313351  15.810  11.940   5.435 -0.2695  0.1550 -0.3926
  877YOPE   PO413352  15.393  12.184   5.358 -0.0324  0.0278  0.1959
  877YOPE   GL113353  15.366  11.849   5.695  0.2211  0.2017  0.0454
  877YOPE   GL213354  15.274  11.557   5.575  0.2428 -0.0802  0.1162
  877YOPE   C1A13355  15.440  11.690   6.121 -0.4114 -0.1822  0.2050
  877YOPE   D2A13356  15.174  11.541   6.395  0.1212  0.0425 -0.0007
  877YOPE   C3A13357  14.828  11.644   6.702  0.0906 -0.0992  0.1697
  877YOPE   C4A13358  14.636  11.362   6.911 -0.1728 -0.3776  0.1931
  877YOPE   C1B13359  15.007  11.631   5.948 -0.1905 -0.0923  0.3073
  877YOPE   C2B13360  14.728  11.862   6.220 -0.1579 -0.2721 -0.0724
  877YOPE   D3B13361  14.403  11.501   6.400 -0.1582  0.1981 -0.1225
  877YOPE   C4B13362  14.077  11.421   6.100 -0.1752  0.1320 -0.1077
  878YOPE   NH313363  16.506   3.066   5.584  0.1659 -0.1101  0.1931
  878YOPE   PO413364  16.698   3.533   5.462 -0.0717  0.0220 -0.1499
  878YOPE   GL113365  16.883   3.644   5.863  0.1697 -0.0796 -0.0791
  878YOPE   GL213366  17.037   3.420   6.009 -0.1044 -0.3784 -0.0027
  878YOPE   C1A13367  17.044   4.137   6.030  0.1658  0.0145 -0.1737
  878YOPE   D2A13368  17.000   4.474   6.276 -0.0706  0.0460  0.1514
  878YOPE   C3A13369  17.235   4.661   6.635  0.0942 -0.2349  0.0500
  878YOPE   C4A13370  17.475   4.712   6.986  0.0772 -0.5022  0.3754
  878YOPE   C1B13371  16.861   3.070   6.123 -0.3408 -0.0130  0.1879
  878YOPE   C2B13372  17.079   2.579   6.179  0.1843  0.0228  0.1108
  878YOPE   D3B13373  17.426   2.417   6.492  0.1715  0.2082 -0.0979
  878YOPE   C4B13374  17.878   2.286   6.612 -0.0152  0.1961  0.2998
  879YOPE   NH313375  17.858   4.903   4.700 -0.1781 -0.4599 -0.1452
  879YOPE   PO413376  17.452   4.506   4.990 -0.0786  0.2477 -0.4127
  879YOPE   GL113377  17.755   4.653   5.261 -0.2283  0.3576 -0.1141
  879YOPE   GL213378  17.987   4.518   5.468 -0.0617 -0.2917  0.2270
  879YOPE   C1A13379  17.692   4.954   5.578  0.3120  0.0811 -0.0605
  879YOPE   D2A13380  17.471   4.820   5.963 -0.0717  0.4383  0.0968
  879YOPE   C3A13381  17.368   4.988   6.296  0.0942  0.1126 -0.0132
  879YOPE   C4A13382  17.365   5.134   6.659  0.2098 -0.1594  0.2323
  879YOPE   C1B13383  17.894   4.616   5.834 -0.1552 -0.0767  0.1797
  879YOPE   C2B13384  17.801   4.691   6.272  0.1733 -0.0847  0.0983
  879YOPE   D3B13385  17.741   4.470   6.653  0.0794 -0.1140 -0.2087
  879YOPE   C4B13386  17.744   4.167   7.049 -0.0119 -0.3885  0.4050
  880YOPE   NH313387   3.307  14.582   5.014 -0.2595 -0.0954 -0.2929
  880YOPE   PO413388   3.709  14.518   4.830 -0.1247  0.0567  0.0982
  880YOPE   GL113389   3.872  14.508   5.244 -0.0062  0.2751 -0.0477
  880YOPE   GL213390   3.687  14.510   5.436  0.2606 -0.1020 -0.1448
  880YOPE   C1A13391   4.107  14.836   5.447  0.0254  0.0668 -0.1363
  880YOPE   D2A13392   3.983  15.223   5.754  0.2303  0.1376  0.2011
  880YOPE   C3A13393   3.791  15.564   5.612 -0.0653  0.2882  0.0718
  880YOPE   C4A13394   3.827  15.923   5.373  0.0913 -0.1895  0.2768
  880YOPE   C1B13395   3.609  14.785   5.687  0.0133 -0.3548 -0.0557
  880YOPE   C2B13396   3.470  15.198   5.690  0.1299 -0.1089 -0.0795
  880YOPE   D3B13397   3.306  15.637   5.560 -0.0257 -0.1274  0.0419
  880YOPE   C4B13398   2.953  15.901   5.633  0.0150  0.1393 -0.0303
  881YOPE   NH313399  18.594   8.844   4.892 -0.1233  0.0063 -0.0133
  881YOPE   PO413400  18.601   9.321   4.812 -0.0045 -0.1349  0.0656
  881YOPE   GL113401  18.481   9.210   5.205 -0.4006 -0.2753 -0.2836
  881YOPE   GL213402  18.539   8.894   5.402  0.1055  0.2167  0.4127
  881YOPE   C1A13403  18.757   9.325   5.506 -0.2007 -0.0038 -0.0885
  881YOPE   D2A13404  18.708   9.523   5.894 -0.2434 -0.0117 -0.2489
  881YOPE   C3A13405  18.839   9.251   6.343  0.1912 -0.0664 -0.2700
  881YOPE   C4A13406  18.943   9.292   6.734  0.0073 -0.0866  0.2016
  881YOPE   C1B13407  18.299   9.153   5.740 -0.0507 -0.1247  0.2385
  881YOPE   C2B13408  18.257   9.355   6.102  0.1695 -0.1116  0.1225
  881YOPE   D3B13409  18.412   9.515   6.466  0.0694 -0.0550  0.1998
  881YOPE   C4B13410  18.517   9.744   6.831  0.1455  0.3975  0.1469
  882YOPE   NH313411  16.827   8.627   5.221 -0.0257  0.0890  0.0822
  882YOPE   PO413412  17.341   8.535   5.369  0.2276 -0.0249 -0.0495
  882YOPE   GL113413  17.536   8.831   5.654  0.0789  0.2510 -0.0899
  882YOPE   GL213414  17.380   8.825   5.922  0.1157  0.1178 -0.1827
  882YOPE   C1A13415  17.839   8.975   5.899 -0.2301 -0.0785  0.1417
  882YOPE   D2A13416  17.807   8.980   6.299 -0.1426  0.0255  0.1402
  882YOPE   C3A13417  18.011   9.163   6.607 -0.1375 -0.2315  0.1868
  882YOPE   C4A13418  17.996   9.108   7.064  0.0258  0.0386 -0.2609
  882YOPE   C1B13419  17.135   8.495   6.288  0.0005 -0.0617  0.0580
  882YOPE   C2B13420  17.029   8.362   6.704 -0.0026  0.3304  0.0564
  882YOPE   D3B13421  17.278   8.289   7.057  0.0500  0.0911 -0.2922
  882YOPE   C4B13422  17.693   8.090   7.117  0.0703  0.0832 -0.1439
  883YOPE   NH313423   7.339  10.056   5.138 -0.1082  0.0770 -0.0692
  883YOPE   PO413424   7.659  10.457   5.237 -0.2100  0.2166  0.1095
  883YOPE   GL113425   7.623  10.546   5.666  0.1470 -0.0143  0.1320
  883YOPE   GL213426   7.302  10.249   5.604  0.0347 -0.1897  0.1440
  883YOPE   C1A13427   7.852  10.636   6.210  0.2630 -0.0974 -0.3004
  883YOPE   D2A13428   8.092  10.308   6.412 -0.0420 -0.0934 -0.1367
  883YOPE   C3A13429   7.843   9.941   6.431 -0.2346 -0.0782  0.0829
  883YOPE   C4A13430   7.731   9.592   6.593 -0.0309  0.1304  0.1295
  883YOPE   C1B13431   6.988   9.995   5.753  0.0329 -0.3678 -0.2844
  883YOPE   C2B13432   6.657  10.096   6.022 -0.2314  0.1668  0.0169
  883YOPE   D3B13433   6.207  10.013   6.155 -0.0783 -0.0992  0.0286
  883YOPE   C4B13434   6.049   9.846   6.545 -0.1786  0.2763 -0.0172
  884YOPE   NH313435  10.434   1.569   4.938 -0.5755  0.1115 -0.2011
  884YOPE   PO413436  10.737   1.946   4.899  0.2366  0.3077  0.0347
  884YOPE   GL113437  10.806   1.933   5.349 -0.0501  0.4332  0.2734
  884YOPE   GL213438  10.700   2.186   5.450 -0.1882 -0.1096 -0.1137
  884YOPE   C1A13439  10.971   1.701   5.650 -0.1547 -0.2937  0.1840
  884YOPE   D2A13440  11.259   1.475   5.871  0.2067  0.0013 -0.2148
  884YOPE   C3A13441  11.207   1.442   6.342 -0.3300  0.1785 -0.1482
  884YOPE   C4A13442  11.302   1.728   6.751  0.3421  0.2686 -0.0806
  884YOPE   C1B13443  10.611   2.198   5.813  0.2164 -0.2089 -0.2812
  884YOPE   C2B13444  10.713   2.339   6.248 -0.2294  0.0387  0.0070
  884YOPE   D3B13445  10.972   2.525   6.601  0.2711  0.1871 -0.4042
  884YOPE   C4B13446  11.356   2.404   6.666  0.3453 -0.1028 -0.0634
  885YOPE   NH313447  10.848   4.953   4.756 -0.0306  0.3803  0.0873
  885YOPE   PO413448  10.751   4.562   5.015 -0.0542 -0.0756  0.2924
  885YOPE   GL113449  10.770   4.571   5.379  0.1706 -0.1004  0.3165
  885YOPE   GL213450  11.117   4.410   5.497 -0.0930  0.3590  0.1086
  885YOPE   C1A13451  10.844   4.977   5.754  0.0639  0.0085  0.0876
  885YOPE   D2A13452  10.618   5.172   6.050  0.3054  0.2478  0.1186
  885YOPE   C3A13453  10.839   5.394   6.361  0.4280  0.0741 -0.1986
  885YOPE   C4A13454  10.793   5.802   6.641  0.1033  0.3434  0.1602
  885YOPE   C1B13455  10.788   4.383   5.838  0.3961 -0.0649 -0.3116
  885YOPE   C2B13456  10.478   4.105   5.863  0.1220 -0.1566  0.0693
  885YOPE   D3B13457  10.171   3.818   5.743 -0.3810 -0.3639  0.0145
  885YOPE   C4B13458  10.024   3.464   5.607 -0.0212 -0.0880 -0.1022
  886YOPE   NH313459  12.962   1.754   5.159 -0.2682 -0.1616 -0.3570
  886YOPE   PO413460  12.504   1.956   5.294  0.0049  0.3855 -0.0415
  886YOPE   GL113461  12.611   2.058   5.690 -0.0232  0.2505  0.2912
  886YOPE   GL213462  12.682   2.342   5.846 -0.1536  0.0719  0.3198
  886YOPE   C1A13463  12.572   1.995   6.199 -0.3585 -0.1330  0.2052
  886YOPE   D2A13464  12.289   1.927   6.563 -0.0116  0.0173  0.0552
  886YOPE   C3A13465  12.249   1.975   6.997  0.2280  0.2622 -0.0715
  886YOPE   C4A13466  12.199   2.201   7.387  0.3655 -0.2679 -0.0345
  886YOPE   C1B13467  12.998   2.356   6.172  0.0375 -0.2269  0.3490
  886YOPE   C2B13468  12.976   2.224   6.552 -0.1792  0.2954 -0.0441
  886YOPE   D3B13469  12.725   2.105   6.904  0.0813  0.0482 -0.0618
  886YOPE   C4B13470  12.579   1.865   7.355 -0.1147  0.3096  0.1973
  887YOPE   NH313471  15.355   3.216   5.184  0.0691 -0.0904 -0.0272
  887YOPE   PO413472  15.032   3.217   5.509  0.2338  0.1607  0.0954
  887YOPE   GL113473  15.044   2.783   5.728 -0.0136 -0.1106 -0.1622
  887YOPE   GL213474  15.054   2.460   5.571 -0.1345  0.1403  0.1709
  887YOPE   C1A13475  15.034   2.760   6.182  0.3159  0.2102 -0.3202
  887YOPE   D2A13476  14.725   2.774   6.602 -0.1993 -0.0369  0.0008
  887YOPE   C3A13477  14.992   3.007   6.971  0.1962 -0.0371 -0.0246
  887YOPE   C4A13478  15.196   2.913   7.384  0.0190  0.0943  0.0258
  887YOPE   C1B13479  14.972   2.182   5.976  0.2236 -0.0142 -0.3114
  887YOPE   C2B13480  15.055   2.029   6.419 -0.0768 -0.0161  0.3253
  887YOPE   D3B13481  15.076   1.941   6.890  0.1131  0.2287  0.0359
  887YOPE   C4B13482  15.221   1.805   7.294  0.1333 -0.3466 -0.2450
  888YOPE   NH313483   3.155   7.566   4.909  0.1171 -0.0499 -0.1413
  888YOPE   PO413484   3.123   7.985   4.760  0.0787  0.2230 -0.0534
  888YOPE   GL113485   2.790   8.019   5.049  0.2097  0.0508  0.2639
  888YOPE   GL213486   2.986   7.869   5.305  0.1144 -0.0362 -0.0734
  888YOPE   C1A13487   2.514   8.187   5.334  0.1271 -0.3024  0.0325
  888YOPE   D2A13488   2.224   8.436   5.557 -0.5031 -0.1088 -0.0295
  888YOPE   C3A13489   2.187   8.387   6.051  0.0516 -0.2024 -0.0115
  888YOPE   C4A13490   2.124   8.055   6.288  0.3463  0.2106 -0.2518
  888YOPE   C1B13491   2.820   7.923   5.681  0.1714 -0.2615 -0.0229
  888YOPE   C2B13492   2.901   8.207   6.007 -0.0702  0.0475 -0.4530
  888YOPE   D3B13493   3.117   8.454   6.302 -0.2751  0.0278 -0.3639
  888YOPE   C4B13494   3.408   8.740   6.391 -0.1665  0.1368  0.0572
  889YOPE   NH313495  18.542   6.766   5.512 -0.0723 -0.0879  0.2114
  889YOPE   PO413496  18.893   6.988   5.450  0.0697  0.1097 -0.2095
  889YOPE   GL113497  19.171   7.057   5.676 -0.1268 -0.0092  0.0052
  889YOPE   GL213498  19.057   6.806   6.019 -0.2719  0.0503  0.0074
  889YOPE   C1A13499  19.473   7.029   6.012  0.0620 -0.0519  0.1233
  889YOPE   D2A13500  19.584   6.895   6.474  0.3626  0.0993  0.1294
  889YOPE   C3A13501  19.933   7.010   6.627 -0.1262  0.2819  0.0011
  889YOPE   C4A13502  20.344   7.132   6.713 -0.0142  0.3671 -0.2021
  889YOPE   C1B13503  19.060   7.010   6.466  0.0097 -0.1973  0.1039
  889YOPE   C2B13504  18.908   7.467   6.447  0.1960  0.2561  0.1943
  889YOPE   D3B13505  18.925   7.956   6.500 -0.4035  0.0584 -0.2555
  889YOPE   C4B13506  19.219   8.233   6.751 -0.0889 -0.1227  0.0729
  890YOPE   NH313507   6.424  19.641   5.001  0.1072  0.0646  0.2460
  890YOPE   PO413508   6.881  19.452   4.895 -0.1239  0.3267  0.1531
  890YOPE   GL113509   6.747  19.534   5.359  0.1838  0.1600 -0.1090
  890YOPE   GL213510   6.629  19.789   5.436  0.2044 -0.0465  0.0354
  890YOPE   C1A13511   6.729  19.237   5.670  0.3233 -0.0783  0.1955
  890YOPE   D2A13512   6.742  18.834   5.939 -0.1148  0.1945 -0.0912
  890YOPE   C3A13513   6.456  18.540   6.220  0.0423  0.0495 -0.2270
  890YOPE   C4A13514   6.273  18.106   6.212  0.3490  0.3169 -0.0835
  890YOPE   C1B13515   6.939  20.066   5.746 -0.0685 -0.0555  0.1791
  890YOPE   C2B13516   6.948  20.132   6.180 -0.1455 -0.0461  0.0202
  890YOPE   D3B13517   6.735  20.058   6.571  0.1849  0.1612 -0.0820
  890YOPE   C4B13518   6.445  20.102   6.846  0.0699 -0.2622 -0.0074
  891YOPE   NH313519  19.032  14.463   4.440 -0.0859  0.1262 -0.3926
  891YOPE   PO413520  18.785  14.451   4.712 -0.0457 -0.1694  0.0462
  891YOPE   GL113521  18.804  14.482   5.214 -0.3139 -0.0376  0.0334
  891YOPE   GL213522  19.035  14.336   5.382 -0.1675  0.1458 -0.2162
  891YOPE   C1A13523  18.693  14.864   5.478 -0.0095  0.0808  0.1072
  891YOPE   D2A13524  18.390  15.280   5.519  0.0913  0.0431 -0.1694
  891YOPE   C3A13525  18.008  15.335   5.763 -0.2538  0.0995  0.2313
  891YOPE   C4A13526  17.614  15.642   5.866  0.1268  0.0965 -0.3489
  891YOPE   C1B13527  18.934  14.372   5.738 -0.0291  0.4627 -0.0760
  891YOPE   C2B13528  18.706  14.114   6.031 -0.0386  0.1415 -0.0337
  891YOPE   D3B13529  18.523  14.090   6.478  0.1009 -0.1586 -0.2579
  891YOPE   C4B13530  18.528  13.865   6.795  0.0968  0.3619 -0.0023
  892YOPE   NH313531  13.305  13.081   4.806 -0.3518 -0.0175 -0.0760
  892YOPE   PO413532  13.354  13.377   4.956 -0.1914 -0.1430  0.0519
  892YOPE   GL113533  13.454  13.442   5.319  0.2632  0.0305  0.1078
  892YOPE   GL213534  13.506  13.261   5.483  0.0202 -0.0985  0.0747
  892YOPE   C1A13535  13.382  13.743   5.679  0.1033 -0.2319 -0.0170
  892YOPE   D2A13536  13.100  13.934   5.963  0.2307 -0.0296 -0.0644
  892YOPE   C3A13537  12.801  13.678   6.196 -0.3580 -0.0678  0.1978
  892YOPE   C4A13538  12.763  13.389   6.590  0.0871 -0.1159  0.0979
  892YOPE   C1B13539  13.634  12.892   5.699 -0.1218 -0.0039 -0.2883
  892YOPE   C2B13540  13.460  12.347   5.815  0.1784 -0.1472 -0.0325
  892YOPE   D3B13541  13.194  11.980   5.993 -0.2370 -0.0844  0.0768
  892YOPE   C4B13542  12.923  11.680   6.194 -0.5771  0.1999 -0.3078
  893YOPE   NH313543  10.422  12.635   4.764  0.3743 -0.2412  0.3403
  893YOPE   PO413544   9.912  12.715   4.949  0.0155 -0.0104  0.2108
  893YOPE   GL113545  10.129  12.762   5.352  0.0795  0.2940  0.0366
  893YOPE   GL213546  10.425  12.670   5.265 -0.2543  0.0959  0.1164
  893YOPE   C1A13547  10.105  12.448   5.610 -0.2459  0.1407 -0.0387
  893YOPE   D2A13548  10.165  12.280   5.988  0.0228  0.1329  0.2130
  893YOPE   C3A13549  10.439  11.991   6.261  0.1380 -0.3063  0.0574
  893YOPE   C4A13550  10.621  11.670   6.320  0.2133  0.0588 -0.1740
  893YOPE   C1B13551  10.698  12.343   5.439 -0.1770  0.1359  0.1831
  893YOPE   C2B13552  10.658  12.036   5.721  0.4074  0.0682  0.1886
  893YOPE   D3B13553  10.859  11.692   5.825  0.3745  0.0480 -0.0095
  893YOPE   C4B13554  11.047  11.458   6.106 -0.0111  0.1004 -0.0129
  894YOPE   NH313555  15.600  13.026   5.339  0.0623  0.4535  0.2490
  894YOPE   PO413556  15.612  13.372   5.156  0.1938  0.0540  0.1168
  894YOPE   GL113557  15.514  13.477   5.543  0.1098  0.1800 -0.1222
  894YOPE   GL213558  15.350  13.299   5.671  0.2582  0.1167 -0.0977
  894YOPE   C1A13559  15.633  13.823   5.900  0.2543  0.0067  0.0197
  894YOPE   D2A13560  15.639  13.963   6.323 -0.1950 -0.2236 -0.2510
  894YOPE   C3A13561  15.555  13.743   6.699 -0.0434  0.0770  0.2080
  894YOPE   C4A13562  15.533  13.452   7.039  0.0186  0.4180 -0.0355
  894YOPE   C1B13563  15.275  13.525   6.033 -0.0250  0.2457 -0.3646
  894YOPE   C2B13564  15.100  13.655   6.383 -0.2391 -0.2919  0.0396
  894YOPE   D3B13565  14.992  13.761   6.757 -0.3072  0.1574 -0.1512
  894YOPE   C4B13566  15.141  13.870   7.261  0.0116  0.1309  0.3221
  895YOPE   NH313567  10.219  14.715   4.693 -0.0095  0.1565 -0.0768
  895YOPE   PO413568  10.535  14.397   4.775  0.2527  0.1491  0.2541
  895YOPE   GL113569  10.358  14.144   5.266  0.1730  0.1521 -0.1128
  895YOPE   GL213570  10.475  13.948   5.350 -0.2021  0.3073 -0.3210
  895YOPE   C1A13571  10.147  14.108   5.706  0.3386 -0.2431 -0.0516
  895YOPE   D2A13572   9.898  13.836   5.881  0.1199 -0.1276 -0.1574
  895YOPE   C3A13573   9.462  13.917   5.774  0.1100  0.0136 -0.1488
  895YOPE   C4A13574   9.209  14.043   5.525 -0.0450  0.2281 -0.0917
  895YOPE   C1B13575  10.644  13.917   5.806 -0.0366 -0.1033 -0.1282
  895YOPE   C2B13576  10.747  13.857   6.149 -0.1399 -0.0261 -0.1449
  895YOPE   D3B13577  11.096  14.031   6.375  0.2492 -0.4516  0.1321
  895YOPE   C4B13578  11.549  13.992   6.460 -0.2458  0.3474  0.1049
  896YOPE   NH313579   9.907  10.946   4.561 -0.1361  0.2833  0.0124
  896YOPE   PO413580  10.079  10.806   4.985  0.1246 -0.1652  0.0201
  896YOPE   GL113581   9.726  10.637   5.306  0.0477  0.2568 -0.0761
  896YOPE   GL213582   9.701  10.268   5.332  0.0323 -0.3105  0.1318
  896YOPE   C1A13583   9.724  10.716   5.721  0.0432 -0.4755 -0.1125
  896YOPE   D2A13584   9.612  10.865   6.112 -0.2238  0.2230  0.1693
  896YOPE   C3A13585   9.937  10.667   6.449 -0.0498  0.5471  0.1577
  896YOPE   C4A13586   9.938  10.437   6.794 -0.0445  0.0198 -0.1102
  896YOPE   C1B13587   9.583  10.240   5.631  0.1031 -0.0790 -0.0653
  896YOPE   C2B13588   9.310  10.450   6.005 -0.1430 -0.1272 -0.0379
  896YOPE   D3B13589   9.315  10.718   6.423 -0.0670  0.0246  0.0097
  896YOPE   C4B13590   9.575  10.905   6.780  0.3547  0.3521  0.3440
  897YOPE   NH313591  19.459   2.136   4.897 -0.3600 -0.1233 -0.0291
  897YOPE   PO413592  19.801   2.193   5.034  0.2066 -0.0286 -0.1534
  897YOPE   GL113593  20.181   2.374   5.302 -0.6238  0.1101  0.0996
  897YOPE   GL213594  19.928   2.338   5.490  0.2405  0.3522  0.0016
  897YOPE   C1A13595  20.221   2.765   5.570  0.1247 -0.1630 -0.3332
  897YOPE   D2A13596  20.050   2.779   5.938  0.0444  0.0755  0.1229
  897YOPE   C3A13597  20.207   2.499   6.188  0.1705 -0.3049 -0.0808
  897YOPE   C4A13598  20.213   2.158   6.431 -0.1386  0.0376 -0.2625
  897YOPE   C1B13599  19.783   2.360   5.924  0.0209 -0.0517  0.0095
  897YOPE   C2B13600  19.636   2.497   6.418 -0.0051  0.1944 -0.3092
  897YOPE   D3B13601  19.776   2.612   6.827 -0.0142 -0.0792  0.1387
  897YOPE   C4B13602  19.642   2.533   7.296 -0.0980  0.1559 -0.2130
  898YOPE   NH313603  10.003  16.681   4.770 -0.0852 -0.0227  0.3877
  898YOPE   PO413604  10.160  17.087   4.573  0.1976 -0.0863 -0.1253
  898YOPE   GL113605  10.262  17.399   4.896  0.1038 -0.0336  0.1808
  898YOPE   GL213606  10.349  17.742   4.928  0.0302  0.0178  0.0563
  898YOPE   C1A13607  10.328  17.294   5.289  0.0379 -0.3239  0.2049
  898YOPE   D2A13608  10.355  17.404   5.726 -0.0905  0.4155 -0.1733
  898YOPE   C3A13609  10.315  17.165   6.156  0.0777  0.0866  0.0068
  898YOPE   C4A13610  10.158  17.034   6.579  0.0521 -0.2108  0.0055
  898YOPE   C1B13611   9.941  17.592   5.207  0.0097 -0.0141  0.0512
  898YOPE   C2B13612   9.901  17.352   5.507  0.1274  0.1014  0.0514
  898YOPE   D3B13613   9.830  17.360   6.019 -0.2474  0.3811 -0.2070
  898YOPE   C4B13614   9.837  17.416   6.560 -0.1979 -0.0554 -0.2300
  899YOPE   NH313615  14.032   1.755   4.932 -0.0440  0.0762 -0.2407
  899YOPE   PO413616  13.686   1.609   5.015 -0.0257 -0.0811 -0.0226
  899YOPE   GL113617  13.588   1.327   5.226  0.1102 -0.0268 -0.6828
  899YOPE   GL213618  13.324   1.401   5.410  0.0120 -0.4835  0.0390
  899YOPE   C1A13619  13.627   0.981   5.498 -0.1844  0.2188 -0.1990
  899YOPE   D2A13620  13.525   0.768   5.947  0.0469  0.2098  0.1802
  899YOPE   C3A13621  13.357   0.496   6.274  0.2336  0.4001  0.0445
  899YOPE   C4A13622  13.132   0.074   6.484 -0.1111  0.2408  0.2673
  899YOPE   C1B13623  13.214   1.194   5.863  0.1483  0.0090  0.0114
  899YOPE   C2B13624  13.091   0.981   6.223 -0.3092 -0.0449 -0.2166
  899YOPE   D3B13625  12.924   0.626   6.465 -0.3240 -0.1613 -0.0322
  899YOPE   C4B13626  12.681   0.272   6.509  0.0952 -0.3985 -0.3471
  900YOPE   NH313627   6.606   1.281   5.036 -0.1659 -0.0280  0.3156
  900YOPE   PO413628   7.093   1.509   4.752  0.2256 -0.1504  0.3031
  900YOPE   GL113629   7.031   1.657   5.249 -0.2580 -0.3099 -0.1126
  900YOPE   GL213630   6.706   1.545   5.413  0.0963  0.2536  0.0921
  900YOPE   C1A13631   7.071   1.789   5.685  0.0007  0.1317  0.1672
  900YOPE   D2A13632   6.946   2.008   6.064 -0.1807  0.0633  0.3495
  900YOPE   C3A13633   6.898   1.817   6.470 -0.4362 -0.0077 -0.2252
  900YOPE   C4A13634   6.891   2.110   6.796 -0.0893  0.1220  0.0309
  900YOPE   C1B13635   6.706   1.365   5.872 -0.2968 -0.2173  0.1032
  900YOPE   C2B13636   6.756   0.950   6.013  0.2560 -0.0828 -0.0725
  900YOPE   D3B13637   6.521   0.967   6.246 -0.0563 -0.0750  0.0573
  900YOPE   C4B13638   6.248   0.950   6.576 -0.1510  0.3291  0.2111
  901YOPE   NH313639   3.977  11.818   5.101 -0.0644 -0.0705  0.1502
  901YOPE   PO413640   4.088  12.263   5.145 -0.0316  0.2184 -0.2339
  901YOPE   GL113641   3.825  12.303   5.381  0.3985  0.1859  0.1023
  901YOPE   GL213642   3.729  11.972   5.457  0.2023  0.0022  0.2931
  901YOPE   C1A13643   3.808  12.246   5.835 -0.2016 -0.0750 -0.2072
  901YOPE   D2A13644   3.667  11.994   6.308 -0.1514  0.1898 -0.0079
  901YOPE   C3A13645   4.063  12.010   6.537  0.1238 -0.0938 -0.0542
  901YOPE   C4A13646   4.425  12.000   6.413 -0.3454  0.0780  0.0099
  901YOPE   C1B13647   3.547  11.704   5.744 -0.1214  0.2421 -0.0106
  901YOPE   C2B13648   3.366  11.455   6.027  0.0079  0.2128 -0.0805
  901YOPE   D3B13649   3.168  11.301   6.361 -0.3112 -0.0628 -0.0810
  901YOPE   C4B13650   3.364  11.085   6.712  0.1522  0.2733  0.0228
  902YOPE   NH313651  16.612  15.713   5.268  0.1949 -0.3290  0.0495
  902YOPE   PO413652  16.613  16.123   5.098 -0.3341  0.2361  0.0354
  902YOPE   GL113653  16.660  16.152   5.614  0.1196 -0.4031 -0.1836
  902YOPE   GL213654  16.836  16.529   5.724 -0.0378  0.1908  0.5962
  902YOPE   C1A13655  16.352  16.398   5.886  0.3353 -0.0837 -0.1443
  902YOPE   D2A13656  16.356  16.365   6.320 -0.0724 -0.4502 -0.3157
  902YOPE   C3A13657  16.577  16.173   6.557 -0.1529  0.0927 -0.0722
  902YOPE   C4A13658  16.531  15.902   6.796  0.1440  0.0676 -0.1578
  902YOPE   C1B13659  17.101  16.603   6.034 -0.2348 -0.3581 -0.3251
  902YOPE   C2B13660  17.336  16.746   6.406 -0.0966  0.1742 -0.1759
  902YOPE   D3B13661  17.265  16.918   6.766  0.0413  0.1100  0.0736
  902YOPE   C4B13662  17.468  16.847   7.207  0.1806  0.1616  0.3210
  903YOPE   NH313663   2.711  18.238   5.133 -0.2419 -0.0668  0.1160
  903YOPE   PO413664   2.915  18.532   5.276  0.1724  0.2101  0.1723
  903YOPE   GL113665   3.144  18.200   5.382 -0.2006 -0.1384  0.1390
  903YOPE   GL213666   3.517  18.321   5.469  0.1031 -0.1029 -0.0195
  903YOPE   C1A13667   3.052  18.108   5.757  0.0484  0.2608 -0.0356
  903YOPE   D2A13668   2.997  18.089   6.235  0.1063 -0.0130  0.5121
  903YOPE   C3A13669   3.038  17.770   6.414 -0.1341  0.2613 -0.1618
  903YOPE   C4A13670   3.169  17.499   6.563 -0.0974  0.0226  0.1085
  903YOPE   C1B13671   3.896  18.278   5.644  0.0034 -0.3001  0.1458
  903YOPE   C2B13672   4.315  18.367   5.830 -0.2923 -0.0447  0.4037
  903YOPE   D3B13673   4.648  18.108   6.117 -0.3117  0.2971  0.0762
  903YOPE   C4B13674   5.205  18.126   6.222  0.3760 -0.0211  0.1782
  904YOPE   NH313675  16.341   7.750   4.927 -0.1649  0.2384 -0.3409
  904YOPE   PO413676  16.436   7.469   5.326  0.3972 -0.0108  0.2592
  904YOPE   GL113677  16.375   7.346   5.698 -0.2131  0.0898  0.0409
  904YOPE   GL213678  16.636   7.311   5.831 -0.1277  0.1863 -0.0286
  904YOPE   C1A13679  16.177   7.314   6.115 -0.0004 -0.2796  0.1143
  904YOPE   D2A13680  16.369   7.318   6.565  0.3783 -0.0397  0.0771
  904YOPE   C3A13681  16.378   6.841   6.739 -0.4526  0.2121 -0.1656
  904YOPE   C4A13682  16.433   6.701   7.166 -0.1309 -0.1088 -0.2009
  904YOPE   C1B13683  16.575   7.652   6.084 -0.3809 -0.0708 -0.2568
  904YOPE   C2B13684  16.662   7.866   6.405 -0.1427  0.0629 -0.2846
  904YOPE   D3B13685  16.557   8.218   6.715  0.0105 -0.3086  0.2467
  904YOPE   C4B13686  16.638   8.657   6.999  0.0910  0.1040  0.0969
  905YOPE   NH313687  18.156  10.502   4.773  0.0123 -0.1897  0.3323
  905YOPE   PO413688  18.090  10.193   5.080  0.3231  0.0159 -0.0636
  905YOPE   GL113689  18.351   9.916   5.339  0.0845 -0.2314  0.1306
  905YOPE   GL213690  18.257   9.627   5.482 -0.2720 -0.1531  0.1771
  905YOPE   C1A13691  18.361  10.077   5.724  0.2028  0.0900 -0.0176
  905YOPE   D2A13692  18.292   9.850   6.122  0.0627 -0.0619 -0.0220
  905YOPE   C3A13693  18.765   9.894   6.380 -0.0927 -0.0534  0.3216
  905YOPE   C4A13694  19.163   9.752   6.487  0.3138  0.0592  0.1410
  905YOPE   C1B13695  17.958   9.557   5.818  0.0506  0.1458  0.1434
  905YOPE   C2B13696  17.781   9.509   6.219 -0.4169  0.1686 -0.2913
  905YOPE   D3B13697  17.463   9.522   6.494 -0.3887  0.1000  0.0697
  905YOPE   C4B13698  17.068   9.366   6.582 -0.0882  0.0233  0.0889
  906YOPE   NH313699  17.477  16.155   4.999 -0.0291 -0.2720  0.2088
  906YOPE   PO413700  17.924  16.124   5.026 -0.0204  0.0873  0.0966
  906YOPE   GL113701  18.071  16.216   5.412 -0.0225  0.2255  0.3719
  906YOPE   GL213702  17.944  16.397   5.631 -0.1039  0.0193 -0.1318
  906YOPE   C1A13703  18.072  15.896   5.742  0.2744 -0.1053 -0.2485
  906YOPE   D2A13704  18.094  15.717   6.107  0.0556  0.3845  0.0336
  906YOPE   C3A13705  17.822  15.350   6.223  0.2529  0.0903  0.0378
  906YOPE   C4A13706  18.051  14.969   6.422  0.2842 -0.0233 -0.2391
  906YOPE   C1B13707  18.125  16.354   5.945 -0.4945  0.2403 -0.0796
  906YOPE   C2B13708  18.204  16.232   6.373 -0.1784  0.2904  0.0429
  906YOPE   D3B13709  18.566  16.094   6.680  0.1414 -0.0889 -0.0655
  906YOPE   C4B13710  18.868  16.208   7.001 -0.2475  0.1099  0.1316
  907YOPE   NH313711  14.816   6.874   5.484 -0.2291  0.1776  0.1023
  907YOPE   PO413712  14.991   7.308   5.384 -0.0317  0.1100  0.0157
  907YOPE   GL113713  14.940   7.224   5.836 -0.1821  0.1840 -0.0955
  907YOPE   GL213714  15.022   7.016   5.919 -0.0498 -0.2072  0.0132
  907YOPE   C1A13715  14.581   7.417   6.192 -0.3395 -0.0454  0.0203
  907YOPE   D2A13716  14.529   7.428   6.599  0.0003  0.3006 -0.1064
  907YOPE   C3A13717  14.358   7.697   6.927  0.0926 -0.4257  0.0496
  907YOPE   C4A13718  14.134   7.741   7.367  0.4824 -0.1758 -0.1388
  907YOPE   C1B13719  15.002   7.198   6.407 -0.0633  0.0393 -0.3678
  907YOPE   C2B13720  15.156   7.180   6.805 -0.0999  0.2961  0.3092
  907YOPE   D3B13721  15.094   6.967   7.143  0.0193  0.1478 -0.0371
  907YOPE   C4B13722  15.029   6.527   7.181 -0.1177 -0.2070 -0.3228
  908YOPE   NH313723  10.942   7.943   4.937 -0.0360  0.5544  0.0390
  908YOPE   PO413724  10.538   7.982   5.021  0.1468 -0.2664 -0.0948
  908YOPE   GL113725  10.630   8.209   5.229 -0.2495  0.3634 -0.2123
  908YOPE   GL213726  10.838   8.473   5.182 -0.0218 -0.2039  0.4762
  908YOPE   C1A13727  10.485   8.446   5.534  0.1332  0.0480 -0.0287
  908YOPE   D2A13728  10.364   8.834   5.624 -0.0691 -0.0391 -0.2452
  908YOPE   C3A13729  10.654   9.135   5.921  0.1122 -0.1104 -0.2414
  908YOPE   C4A13730  11.002   9.012   6.095  0.1736  0.0253 -0.1010
  908YOPE   C1B13731  10.889   8.745   5.525 -0.0977 -0.2769  0.0404
  908YOPE   C2B13732  10.944   8.635   5.846  0.0333  0.2950  0.1761
  908YOPE   D3B13733  10.589   8.618   6.135  0.0202  0.0042 -0.0582
  908YOPE   C4B13734  10.424   8.457   6.444  0.0578 -0.0370 -0.0498
  909YOPE   NH313735   0.485   0.986   5.324  0.1891 -0.3124  0.3931
  909YOPE   PO413736   0.561   1.539   5.172  0.0844  0.0991  0.0422
  909YOPE   GL113737   0.572   1.939   5.421  0.0474 -0.0436  0.2322
  909YOPE   GL213738   0.805   1.860   5.691  0.0401  0.0758  0.2616
  909YOPE   C1A13739   0.470   2.310   5.701 -0.1355 -0.0010  0.2907
  909YOPE   D2A13740   0.705   2.722   5.836  0.0672  0.0925  0.0941
  909YOPE   C3A13741   0.453   3.188   5.839 -0.0851  0.1370 -0.0745
  909YOPE   C4A13742   0.495   3.623   5.579  0.0609  0.1506 -0.2043
  909YOPE   C1B13743   1.281   1.914   5.914 -0.2138  0.2526  0.0958
  909YOPE   C2B13744   1.399   2.090   6.327 -0.1527  0.3443  0.2191
  909YOPE   D3B13745   1.222   2.391   6.481 -0.1917  0.1185  0.0001
  909YOPE   C4B13746   1.044   2.935   6.444  0.0219  0.2207 -0.0018
  910YOPE   NH313747  16.138  11.584   4.911  0.2719 -0.1951 -0.3063
  910YOPE   PO413748  16.268  11.795   5.267 -0.1420 -0.1052  0.1578
  910YOPE   GL113749  16.052  11.466   5.473 -0.2616  0.1731 -0.1185
  910YOPE   GL213750  15.734  11.500   5.638  0.1570  0.0781  0.0854
  910YOPE   C1A13751  16.186  11.188   5.757 -0.0275  0.1714 -0.1717
  910YOPE   D2A13752  16.121  10.998   6.092  0.0796 -0.0890  0.0424
  910YOPE   C3A13753  16.453  10.919   6.456  0.0869  0.0932  0.4431
  910YOPE   C4A13754  16.536  10.502   6.622 -0.0655  0.2287 -0.2394
  910YOPE   C1B13755  15.919  11.474   6.033  0.2838  0.0387  0.1048
  910YOPE   C2B13756  15.811  11.514   6.500 -0.0088  0.2226 -0.3676
  910YOPE   D3B13757  15.530  11.811   6.594 -0.2843  0.2108  0.0842
  910YOPE   C4B13758  15.145  12.002   6.694 -0.0160 -0.0089  0.2477
  911YOPE   NH313759   7.191  13.400   5.027 -0.0943 -0.1926 -0.3599
  911YOPE   PO413760   7.270  13.049   4.934 -0.0572  0.0860 -0.0580
  911YOPE   GL113761   7.245  13.064   5.461 -0.0912 -0.1859 -0.1380
  911YOPE   GL213762   7.431  13.406   5.456  0.0984 -0.0147 -0.1187
  911YOPE   C1A13763   7.107  13.012   5.933 -0.0419  0.3705 -0.0004
  911YOPE   D2A13764   6.961  13.235   6.369 -0.0156 -0.2076 -0.1301
  911YOPE   C3A13765   7.111  13.047   6.813 -0.2283 -0.0671 -0.0059
  911YOPE   C4A13766   6.877  12.610   6.905  0.2946 -0.1676  0.1438
  911YOPE   C1B13767   7.552  13.864   5.696  0.0491  0.3405 -0.1705
  911YOPE   C2B13768   7.570  14.177   6.060 -0.1811  0.1629 -0.0531
  911YOPE   D3B13769   7.502  14.484   6.376 -0.4794  0.1779  0.3310
  911YOPE   C4B13770   7.098  14.698   6.282 -0.2102  0.0249  0.2947
  912YOPE   NH313771  16.214  18.094   5.043 -0.0657 -0.3485  0.1215
  912YOPE   PO413772  16.588  18.075   5.114 -0.2189  0.3161 -0.1340
  912YOPE   GL113773  16.603  18.035   5.495 -0.1224  0.1442  0.1462
  912YOPE   GL213774  16.657  18.333   5.519  0.1301  0.1146  0.1849
  912YOPE   C1A13775  16.567  17.814   5.863 -0.0238  0.2284 -0.1266
  912YOPE   D2A13776  16.313  17.861   6.290  0.0401  0.0846  0.3944
  912YOPE   C3A13777  15.842  17.857   6.391 -0.1947 -0.1891  0.1064
  912YOPE   C4A13778  15.456  17.843   6.521  0.1570  0.0090 -0.1632
  912YOPE   C1B13779  16.530  18.304   6.017 -0.0873 -0.0188 -0.0349
  912YOPE   C2B13780  16.262  18.399   6.344  0.1246 -0.1476 -0.0119
  912YOPE   D3B13781  15.899  18.325   6.585 -0.2629  0.1035  0.1796
  912YOPE   C4B13782  15.864  18.014   6.870  0.0240 -0.0086 -0.1973
  913YOPE   NH313783  11.177   4.769   5.122  0.1515  0.1662 -0.1825
  913YOPE   PO413784  11.198   5.236   5.152 -0.3268  0.0210  0.0607
  913YOPE   GL113785  11.055   5.425   5.627 -0.0666 -0.0346  0.2006
  913YOPE   GL213786  11.337   5.362   5.861 -0.0683 -0.2509  0.1705
  913YOPE   C1A13787  10.970   5.909   5.785  0.2713  0.0850  0.0480
  913YOPE   D2A13788  10.914   5.969   6.184  0.1412 -0.2117  0.0270
  913YOPE   C3A13789  11.226   5.776   6.406  0.0466  0.2748  0.2021
  913YOPE   C4A13790  11.588   5.739   6.603  0.0870  0.6251 -0.0029
  913YOPE   C1B13791  11.277   5.232   6.356  0.2791  0.1558 -0.0797
  913YOPE   C2B13792  11.177   5.368   6.673 -0.0468  0.1269 -0.2490
  913YOPE   D3B13793  11.187   5.737   6.920  0.1254  0.0872  0.1026
  913YOPE   C4B13794  11.147   6.179   6.787 -0.7580 -0.2012 -0.1192
  914YOPE   NH313795   4.639  13.497   4.907  0.0267  0.1815  0.0798
  914YOPE   PO413796   4.967  13.308   5.071 -0.2127 -0.0394 -0.3201
  914YOPE   GL113797   4.963  13.187   5.543 -0.1356 -0.2244 -0.1771
  914YOPE   GL213798   4.955  12.884   5.426 -0.1755  0.0575  0.1012
  914YOPE   C1A13799   5.147  13.320   5.998 -0.0364 -0.0543 -0.1514
  914YOPE   D2A13800   5.404  13.379   6.185  0.1403 -0.0732 -0.0077
  914YOPE   C3A13801   5.667  13.664   6.098  0.5596  0.0032  0.0386
  914YOPE   C4A13802   5.615  13.993   5.821  0.1206 -0.0268 -0.1643
  914YOPE   C1B13803   5.005  12.795   5.886  0.0236 -0.4020 -0.3293
  914YOPE   C2B13804   4.965  13.020   6.343  0.1887 -0.2657  0.0305
  914YOPE   D3B13805   5.288  13.138   6.663  0.1914 -0.2810  0.1026
  914YOPE   C4B13806   5.212  13.616   6.898  0.3554 -0.4095  0.4260
  915YOPE   NH313807  18.096  16.972   4.999 -0.0112 -0.1451  0.1703
  915YOPE   PO413808  18.351  16.616   5.250 -0.0033 -0.2111  0.1483
  915YOPE   GL113809  18.379  16.561   5.588 -0.0828 -0.6118  0.1840
  915YOPE   GL213810  18.671  16.614   5.613 -0.0804  0.1918 -0.2627
  915YOPE   C1A13811  18.409  16.841   5.999  0.2395 -0.2181 -0.1727
  915YOPE   D2A13812  18.261  16.758   6.376  0.2084 -0.1645 -0.2023
  915YOPE   C3A13813  18.405  17.104   6.609  0.1325  0.0355 -0.1896
  915YOPE   C4A13814  18.383  17.333   6.921  0.1045  0.0378  0.2933
  915YOPE   C1B13815  18.941  16.660   5.784  0.1067  0.2110 -0.1988
  915YOPE   C2B13816  19.355  16.653   5.708  0.1107 -0.1208  0.0664
  915YOPE   D3B13817  19.812  16.662   5.541  0.0019  0.1190 -0.0510
  915YOPE   C4B13818  20.068  16.915   5.352  0.0428  0.0506 -0.1426
  916YOPE   NH313819  17.232  17.289   4.714 -0.0858 -0.1143 -0.0664
  916YOPE   PO413820  16.921  17.127   5.080  0.2511 -0.2210  0.1664
  916YOPE   GL113821  17.105  17.034   5.486  0.0588 -0.0456 -0.1128
  916YOPE   GL213822  17.399  16.972   5.554 -0.4238  0.2807 -0.3798
  916YOPE   C1A13823  16.956  17.241   5.887  0.0112  0.0935  0.1711
  916YOPE   D2A13824  16.689  17.422   6.187  0.0169 -0.1968  0.1513
  916YOPE   C3A13825  16.659  17.542   6.569 -0.0808  0.0079  0.1196
  916YOPE   C4A13826  16.715  17.437   7.026  0.0438 -0.0604  0.0987
  916YOPE   C1B13827  17.382  17.026   5.983 -0.0635  0.2060  0.1697
  916YOPE   C2B13828  17.674  17.096   6.385  0.1698 -0.0050 -0.1793
  916YOPE   D3B13829  17.830  17.370   6.685  0.2417  0.0216 -0.2040
  916YOPE   C4B13830  18.039  17.697   6.719  0.0809 -0.4010 -0.0775
  917YOPE   NH313831  15.523   0.695   5.318  0.1017  0.0312  0.1156
  917YOPE   PO413832  15.143   0.934   5.369 -0.0320 -0.1065  0.1490
  917YOPE   GL113833  14.931   0.990   5.736 -0.0300 -0.1649  0.0769
  917YOPE   GL213834  14.628   1.013   5.785 -0.0144  0.1118  0.0896
  917YOPE   C1A13835  14.923   0.934   6.179  0.2474  0.0307  0.2019
  917YOPE   D2A13836  15.112   0.950   6.582 -0.2663 -0.2226  0.0200
  917YOPE   C3A13837  15.501   1.211   6.382  0.1575  0.1611 -0.0127
  917YOPE   C4A13838  15.823   1.362   6.107 -0.1061 -0.1500  0.2797
  917YOPE   C1B13839  14.306   0.721   5.975  0.1262  0.0083 -0.1478
  917YOPE   C2B13840  14.332   0.281   6.056 -0.0015  0.0556 -0.1903
  917YOPE   D3B13841  14.162  -0.052   6.309  0.0530  0.1330  0.0755
  917YOPE   C4B13842  14.084  -0.013   6.696  0.0059 -0.0450 -0.1728
  918YOPE   NH313843  13.249   5.273   5.640  0.2561 -0.4731 -0.0767
  918YOPE   PO413844  13.494   4.852   5.600 -0.1289 -0.0156 -0.1562
  918YOPE   GL113845  13.370   4.466   5.870 -0.1174  0.0836  0.0815
  918YOPE   GL213846  13.151   4.342   5.782  0.0314 -0.2835  0.0670
  918YOPE   C1A13847  13.325   4.225   6.251 -0.1871 -0.3366 -0.2121
  918YOPE   D2A13848  13.058   3.973   6.370 -0.0920  0.1618 -0.2094
  918YOPE   C3A13849  13.117   3.628   6.684  0.0875  0.3364 -0.1452
  918YOPE   C4A13850  13.013   3.289   7.035 -0.2194  0.2585  0.0386
  918YOPE   C1B13851  12.898   4.362   6.086 -0.0935  0.0556  0.5109
  918YOPE   C2B13852  12.640   4.769   6.170 -0.2981  0.1846  0.1165
  918YOPE   D3B13853  12.320   5.030   6.023 -0.2274  0.1879  0.2537
  918YOPE   C4B13854  12.210   5.392   5.879  0.1090 -0.0138 -0.1230
  919YOPE   NH313855   5.673   1.345   4.563 -0.0513  0.0675  0.0528
  919YOPE   PO413856   5.881   1.664   4.515 -0.2459  0.1142 -0.0435
  919YOPE   GL113857   5.823   1.627   4.992 -0.0158 -0.0094  0.1463
  919YOPE   GL213858   5.486   1.766   5.063  0.0568 -0.2033  0.2656
  919YOPE   C1A13859   5.947   1.849   5.280  0.4198  0.2247  0.2391
  919YOPE   D2A13860   5.868   2.201   5.627 -0.2481 -0.0950  0.0877
  919YOPE   C3A13861   5.961   2.198   6.045 -0.0709  0.4180  0.0645
  919YOPE   C4A13862   5.879   1.991   6.427  0.2346  0.0061 -0.1769
  919YOPE   C1B13863   5.510   1.736   5.457  0.2039 -0.2461  0.1173
  919YOPE   C2B13864   5.600   1.859   5.920  0.0951  0.1322  0.0205
  919YOPE   D3B13865   5.542   1.714   6.296  0.0245  0.1864 -0.2143
  919YOPE   C4B13866   5.479   1.601   6.602  0.0342 -0.0602  0.2497
  920YOPE   NH313867  16.915  11.502   5.049 -0.2213  0.0320 -0.0114
  920YOPE   PO413868  17.285  11.197   5.229  0.0787 -0.2467 -0.0513
  920YOPE   GL113869  17.349  11.038   5.618 -0.3618 -0.0174 -0.1420
  920YOPE   GL213870  17.722  10.937   5.579 -0.0410  0.1432 -0.1262
  920YOPE   C1A13871  17.452  11.142   6.156 -0.0786 -0.1143  0.1369
  920YOPE   D2A13872  17.438  11.035   6.519  0.1376 -0.3409  0.2087
  920YOPE   C3A13873  17.299  11.351   6.650 -0.0997  0.0406  0.1280
  920YOPE   C4A13874  17.090  11.507   6.969  0.1701  0.1415  0.1749
  920YOPE   C1B13875  17.954  10.656   5.663  0.2441  0.1657 -0.3551
  920YOPE   C2B13876  17.944  10.363   6.040  0.0799 -0.2872  0.0128
  920YOPE   D3B13877  18.138  10.332   6.431 -0.0668  0.3303 -0.0248
  920YOPE   C4B13878  18.490  10.259   6.640  0.0124 -0.1622  0.1645
  921YOPE   NH313879  11.843  19.870   4.881  0.0309 -0.1302  0.1509
  921YOPE   PO413880  11.878  20.265   5.128  0.0295 -0.1055  0.0908
  921YOPE   GL113881  11.653  20.112   5.413 -0.5382  0.1612 -0.2158
  921YOPE   GL213882  11.555  19.816   5.356  0.1964  0.0955 -0.1539
  921YOPE   C1A13883  11.536  20.308   5.862  0.1733  0.1212 -0.0655
  921YOPE   D2A13884  11.585  20.431   6.245  0.0820 -0.2692 -0.0141
  921YOPE   C3A13885  11.195  20.319   6.454 -0.0401 -0.4216 -0.2606
  921YOPE   C4A13886  10.765  20.280   6.735  0.0323 -0.3215  0.6147
  921YOPE   C1B13887  11.417  19.795   5.756 -0.1867  0.1600 -0.3776
  921YOPE   C2B13888  11.046  20.039   5.913  0.1536 -0.2291  0.0826
  921YOPE   D3B13889  10.714  19.942   6.298  0.1181  0.2953 -0.0828
  921YOPE   C4B13890  10.470  19.748   6.595 -0.0676 -0.0125 -0.1012
  922YOPE   NH313891   9.814  13.142   5.182 -0.4949 -0.0525 -0.1773
  922YOPE   PO413892   9.366  13.137   5.122 -0.2142  0.0867  0.1333
  922YOPE   GL113893   9.081  12.931   5.351  0.1706 -0.2359  0.3637
  922YOPE   GL213894   9.000  13.089   5.598  0.5049  0.2564 -0.1685
  922YOPE   C1A13895   9.283  12.757   5.786  0.2842  0.2686  0.0012
  922YOPE   D2A13896   9.620  12.595   6.132  0.1090  0.0486 -0.0079
  922YOPE   C3A13897   9.589  12.481   6.518 -0.2226  0.1823 -0.3608
  922YOPE   C4A13898   9.820  12.586   6.922 -0.2549 -0.0009  0.0041
  922YOPE   C1B13899   9.168  13.235   6.005  0.3746 -0.0099  0.0960
  922YOPE   C2B13900   9.606  13.453   6.229  0.2420 -0.1011 -0.1258
  922YOPE   D3B13901   9.978  13.521   6.377  0.0865 -0.2066  0.0136
  922YOPE   C4B13902  10.242  13.713   6.245 -0.1130 -0.2204 -0.0894
  923YOPE   NH313903  14.264  10.069   5.099 -0.1707 -0.2481  0.1943
  923YOPE   PO413904  14.146   9.651   5.082 -0.0997  0.0208  0.4778
  923YOPE   GL113905  14.432   9.814   5.493  0.4885 -0.1145  0.0767
  923YOPE   GL213906  14.205  10.045   5.591  0.1657 -0.0509 -0.0409
  923YOPE   C1A13907  14.402   9.621   5.922 -0.1013  0.4203  0.1969
  923YOPE   D2A13908  14.270   9.799   6.419 -0.1337  0.0533 -0.3738
  923YOPE   C3A13909  14.412  10.085   6.686  0.0732 -0.0423 -0.1634
  923YOPE   C4A13910  14.313  10.377   7.069 -0.2332  0.0106  0.0376
  923YOPE   C1B13911  14.179  10.105   6.023 -0.0773  0.1686 -0.1464
  923YOPE   C2B13912  14.341  10.427   6.307 -0.2691 -0.0991 -0.1145
  923YOPE   D3B13913  14.295  10.735   6.624  0.1689  0.2479 -0.0708
  923YOPE   C4B13914  14.294  11.000   7.018  0.0457  0.0263 -0.0654
  924YOPE   NH313915  10.073   7.808   4.892  0.0198  0.5737  0.0839
  924YOPE   PO413916   9.812   8.146   4.891 -0.2950  0.3953 -0.1353
  924YOPE   GL113917  10.016   8.146   5.273 -0.0987  0.0533  0.1494
  924YOPE   GL213918  10.241   7.860   5.352 -0.1409 -0.3650 -0.1443
  924YOPE   C1A13919   9.781   8.169   5.657 -0.3624  0.0323  0.0357
  924YOPE   D2A13920   9.562   8.401   5.813  0.1677 -0.2043 -0.0166
  924YOPE   C3A13921   9.359   8.271   6.214  0.3722 -0.4104  0.1038
  924YOPE   C4A13922   9.002   8.033   6.342 -0.2231 -0.1265 -0.0509
  924YOPE   C1B13923  10.508   7.895   5.691 -0.1533 -0.3947  0.0262
  924YOPE   C2B13924  10.667   7.643   5.974  0.1592  0.0870  0.0087
  924YOPE   D3B13925  10.589   7.434   6.425  0.1520 -0.0584 -0.1177
  924YOPE   C4B13926  10.390   7.500   6.739 -0.0891 -0.0115  0.0605
  925YOPE   NH313927  16.414  17.604   5.157 -0.0134 -0.0029 -0.1982
  925YOPE   PO413928  16.050  17.681   4.857  0.1262  0.3367  0.0295
  925YOPE   GL113929  15.689  17.741   5.088 -0.2532  0.2036 -0.2696
  925YOPE   GL213930  15.577  17.916   4.836  0.0895  0.0761 -0.0433
  925YOPE   C1A13931  15.528  17.610   5.540  0.1236 -0.2191  0.1127
  925YOPE   D2A13932  15.618  17.217   5.590  0.1454  0.1631  0.1125
  925YOPE   C3A13933  15.621  17.099   5.995 -0.2916  0.0964  0.0811
  925YOPE   C4A13934  15.753  17.044   6.422 -0.1819 -0.4153  0.3081
  925YOPE   C1B13935  15.363  18.132   5.240 -0.2968  0.0679  0.2007
  925YOPE   C2B13936  15.128  18.331   5.552 -0.0992 -0.0907  0.2644
  925YOPE   D3B13937  15.040  18.274   6.010 -0.0662  0.1535  0.0716
  925YOPE   C4B13938  15.039  18.102   6.384 -0.3306 -0.2282  0.0146
  926YOPE   NH313939  10.538   2.409   5.034  0.1416 -0.2542 -0.0175
  926YOPE   PO413940  10.270   2.091   5.124 -0.1946  0.0014  0.0351
  926YOPE   GL113941  10.265   1.914   5.406 -0.0723  0.2965 -0.3690
  926YOPE   GL213942   9.989   1.782   5.432 -0.0679 -0.1080 -0.3189
  926YOPE   C1A13943  10.437   1.642   5.692 -0.0437 -0.2343  0.2994
  926YOPE   D2A13944  10.475   1.851   6.146 -0.0534  0.2192  0.2910
  926YOPE   C3A13945  10.261   2.189   6.156  0.2879  0.0078 -0.1882
  926YOPE   C4A13946   9.931   2.400   6.247 -0.1080  0.2910  0.0801
  926YOPE   C1B13947  10.026   1.779   5.889  0.1010 -0.0980 -0.0284
  926YOPE   C2B13948   9.877   1.866   6.259 -0.0143 -0.2360 -0.1722
  926YOPE   D3B13949   9.546   2.040   6.463  0.2972  0.1144  0.2006
  926YOPE   C4B13950   9.435   2.427   6.470 -0.0259  0.2622 -0.3502
  927YOPE   NH313951  18.047   9.207   4.837 -0.0710  0.3626 -0.1433
  927YOPE   PO413952  18.126   8.808   5.047 -0.0777  0.0550 -0.1753
  927YOPE   GL113953  18.101   8.673   5.553 -0.1895 -0.0923 -0.3188
  927YOPE   GL213954  18.129   8.295   5.576 -0.3158 -0.2170 -0.2897
  927YOPE   C1A13955  18.450   8.695   5.837  0.0514  0.1232  0.2767
  927YOPE   D2A13956  18.695   8.970   5.978  0.0851  0.2590  0.3351
  927YOPE   C3A13957  19.131   8.860   6.052 -0.0210 -0.1424  0.1976
  927YOPE   C4A13958  19.189   8.408   6.199 -0.0172 -0.2784  0.1623
  927YOPE   C1B13959  18.233   8.031   5.955  0.0385  0.0999  0.1102
  927YOPE   C2B13960  18.453   7.924   6.369  0.1255 -0.0313 -0.2187
  927YOPE   D3B13961  18.340   7.696   6.770 -0.0740 -0.2723 -0.2033
  927YOPE   C4B13962  18.163   7.217   6.860 -0.0139  0.0599 -0.0889
  928YOPE   NH313963  13.431   9.665   4.814  0.4358 -0.6243 -0.1764
  928YOPE   PO413964  13.751   9.902   4.898 -0.0061 -0.1404  0.2551
  928YOPE   GL113965  13.649   9.807   5.364  0.0199 -0.0618 -0.1264
  928YOPE   GL213966  13.627  10.079   5.359  0.1685 -0.2464 -0.2666
  928YOPE   C1A13967  13.344   9.845   5.654  0.1064  0.0098 -0.1070
  928YOPE   D2A13968  13.198   9.749   6.016 -0.1267 -0.0303  0.2286
  928YOPE   C3A13969  12.951   9.467   6.152 -0.1058 -0.0712  0.2182
  928YOPE   C4A13970  13.025   9.151   6.485  0.1998  0.1234 -0.1438
  928YOPE   C1B13971  13.573  10.190   5.864  0.3728 -0.0541  0.0375
  928YOPE   C2B13972  13.397  10.097   6.293 -0.0920  0.1016 -0.1786
  928YOPE   D3B13973  13.255   9.644   6.536 -0.1264  0.1240 -0.1121
  928YOPE   C4B13974  13.190   9.362   6.911 -0.1565 -0.0561  0.0154
  929YOPE   NH313975   8.881   6.960   4.762  0.3987 -0.1469  0.2139
  929YOPE   PO413976   9.214   6.555   4.876  0.2228 -0.1185 -0.3117
  929YOPE   GL113977   9.088   6.769   5.231  0.1614  0.1666 -0.2610
  929YOPE   GL213978   8.989   6.509   5.431 -0.1111 -0.3481  0.0557
  929YOPE   C1A13979   9.138   7.070   5.575 -0.1625  0.0445 -0.2342
  929YOPE   D2A13980   9.516   7.092   5.892  0.1439 -0.0541 -0.5478
  929YOPE   C3A13981   9.901   7.298   5.860  0.1128  0.2137  0.3593
  929YOPE   C4A13982  10.373   7.248   5.818 -0.2050 -0.0825  0.5868
  929YOPE   C1B13983   8.987   6.436   5.866 -0.3244  0.0332 -0.0271
  929YOPE   C2B13984   8.846   6.240   6.260  0.1462  0.0867 -0.1545
  929YOPE   D3B13985   8.378   6.079   6.346  0.2185 -0.0172 -0.1036
  929YOPE   C4B13986   7.933   6.116   6.630 -0.0176 -0.1263 -0.0617
  930YOPE   NH313987  19.333   4.660   5.044 -0.1231  0.2633 -0.3032
  930YOPE   PO413988  19.817   4.776   4.950  0.1329  0.0750 -0.2715
  930YOPE   GL113989  19.707   4.905   5.335  0.1229  0.0092  0.3606
  930YOPE   GL213990  19.378   4.908   5.620  0.0956 -0.3003  0.1421
  930YOPE   C1A13991  19.875   5.093   5.781 -0.2775  0.0447 -0.2491
  930YOPE   D2A13992  19.840   5.025   6.311  0.2393 -0.0425 -0.1549
  930YOPE   C3A13993  20.109   4.771   6.503 -0.1714 -0.0153 -0.1086
  930YOPE   C4A13994  20.251   4.357   6.521 -0.0830  0.0353  0.1564
  930YOPE   C1B13995  19.612   4.758   5.978  0.3441 -0.1094 -0.0686
  930YOPE   C2B13996  19.419   4.313   6.064  0.0719 -0.2049  0.0566
  930YOPE   D3B13997  19.298   4.247   6.488 -0.0152 -0.3318 -0.0455
  930YOPE   C4B13998  19.080   4.166   6.794 -0.3293  0.0215  0.0356
  931YOPE   NH313999   4.943  10.982   4.884 -0.1495  0.3616  0.0292
  931YOPE   PO414000   5.007  10.520   4.811  0.0172  0.0813 -0.1381
  931YOPE   GL114001   5.211  10.447   5.213  0.1807 -0.0611 -0.0631
  931YOPE   GL214002   5.458  10.635   5.346 -0.0546  0.1399  0.2976
  931YOPE   C1A14003   5.034  10.623   5.716 -0.0632  0.1734  0.1511
  931YOPE   D2A14004   5.203  10.393   5.955 -0.1377 -0.1206 -0.2191
  931YOPE   C3A14005   4.822  10.295   6.140  0.4785  0.1688 -0.1788
  931YOPE   C4A14006   4.519   9.989   6.352  0.1598 -0.3243 -0.3618
  931YOPE   C1B14007   5.631  10.456   5.707  0.0637  0.1233 -0.2727
  931YOPE   C2B14008   5.784  10.458   6.262 -0.0280 -0.2438  0.2853
  931YOPE   D3B14009   5.614  10.315   6.683  0.1110 -0.0464  0.1815
  931YOPE   C4B14010   5.862  10.073   7.032  0.0178 -0.0254  0.1816
  932YOPE   NH314011   7.720   4.615   5.134  0.3063 -0.5248  0.1440
  932YOPE   PO414012   8.098   4.978   5.041 -0.3643 -0.0677  0.2371
  932YOPE   GL114013   8.260   5.144   5.443  0.4090  0.3014 -0.5193
  932YOPE   GL214014   8.046   5.373   5.612 -0.2146 -0.3797 -0.1099
  932YOPE   C1A14015   8.525   5.281   5.834  0.1939  0.0720 -0.0095
  932YOPE   D2A14016   8.381   5.584   6.221  0.3751 -0.4868 -0.0482
  932YOPE   C3A14017   7.901   5.682   6.391 -0.1557  0.3197  0.2915
  932YOPE   C4A14018   7.513   5.869   6.533  0.4020 -0.1043 -0.2005
  932YOPE   C1B14019   8.039   5.637   5.860  0.1605  0.2588  0.0385
  932YOPE   C2B14020   7.990   6.140   6.081  0.2291  0.4259 -0.0823
  932YOPE   D3B14021   7.926   6.587   6.274 -0.2378  0.1494 -0.4090
  932YOPE   C4B14022   7.833   6.677   6.704 -0.1272 -0.1273 -0.1266
  933YOPE   NH314023  17.294  10.712   5.233  0.1516 -0.3880 -0.2864
  933YOPE   PO414024  17.593  10.418   4.925 -0.0489  0.1595 -0.0175
  933YOPE   GL114025  17.730  10.291   5.387  0.2007  0.1314  0.0838
  933YOPE   GL214026  17.452  10.450   5.605  0.3013  0.3458  0.2006
  933YOPE   C1A14027  17.677   9.937   5.783 -0.0224 -0.0736 -0.0294
  933YOPE   D2A14028  17.536  10.027   6.165 -0.2763  0.2575  0.0643
  933YOPE   C3A14029  17.156   9.796   6.280 -0.0434 -0.1276 -0.0383
  933YOPE   C4A14030  17.036   9.695   5.880 -0.2482 -0.2831  0.0991
  933YOPE   C1B14031  17.550  10.600   5.932 -0.2022 -0.1409 -0.2100
  933YOPE   C2B14032  17.649  10.468   6.469 -0.0421  0.3264  0.2481
  933YOPE   D3B14033  17.597  10.071   6.679 -0.5002 -0.4425 -0.1443
  933YOPE   C4B14034  17.665  10.060   7.102 -0.1397 -0.1871  0.1518
  934YOPE   NH314035   8.240   6.657   4.870  0.3583 -0.4143  0.2106
  934YOPE   PO414036   7.931   6.353   4.732 -0.0624 -0.2052 -0.4923
  934YOPE   GL114037   8.011   6.330   5.182 -0.1482  0.0504  0.1739
  934YOPE   GL214038   7.843   6.635   5.136  0.0550 -0.0612 -0.1356
  934YOPE   C1A14039   8.126   6.099   5.534  0.0404  0.3116  0.2522
  934YOPE   D2A14040   8.419   5.887   5.778  0.1287  0.0599  0.1872
  934YOPE   C3A14041   8.888   5.886   5.900 -0.0804 -0.2921  0.3525
  934YOPE   C4A14042   9.359   5.674   5.940 -0.0654 -0.3745  0.3840
  934YOPE   C1B14043   7.656   6.271   5.424  0.1961 -0.0556  0.0579
  934YOPE   C2B14044   7.642   6.061   5.740 -0.1725  0.0931 -0.1250
  934YOPE   D3B14045   7.571   5.790   5.996 -0.1413 -0.2418 -0.1549
  934YOPE   C4B14046   7.507   5.430   6.293 -0.2134 -0.1010 -0.0113
  935YOPE   NH314047  19.635   3.743   4.799  0.1990 -0.3721 -0.1417
  935YOPE   PO414048  19.880   3.392   5.096  0.2016 -0.3009  0.0892
  935YOPE   GL114049  19.835   3.221   5.514 -0.1731  0.0974  0.0525
  935YOPE   GL214050  19.707   2.904   5.441  0.0480 -0.0670  0.2563
  935YOPE   C1A14051  19.797   3.301   6.010  0.0655 -0.0733  0.2817
  935YOPE   D2A14052  20.005   3.282   6.342  0.0197 -0.3713  0.2988
  935YOPE   C3A14053  19.891   3.069   6.742  0.1522 -0.4344 -0.1235
  935YOPE   C4A14054  19.514   3.003   6.990  0.0637 -0.2214  0.2438
  935YOPE   C1B14055  19.580   2.849   5.850 -0.0475  0.0661  0.0413
  935YOPE   C2B14056  19.580   2.973   6.361  0.0309  0.2012  0.1221
  935YOPE   D3B14057  19.301   2.793   6.651  0.0551 -0.2465 -0.1441
  935YOPE   C4B14058  19.085   2.597   6.979  0.2631  0.1114 -0.2674
  936YOPE   NH314059   0.073   9.802   4.160 -0.0400  0.0233 -0.2092
  936YOPE   PO414060   0.133   9.691   4.615  0.2255 -0.1682 -0.2296
  936YOPE   GL114061   0.228   9.838   4.959 -0.1440 -0.2957 -0.0581
  936YOPE   GL214062  -0.044   9.702   5.219  0.1660  0.1505 -0.0205
  936YOPE   C1A14063   0.450   9.718   5.293  0.0563 -0.0383 -0.2478
  936YOPE   D2A14064   0.346   9.768   5.720 -0.3265 -0.0769 -0.3079
  936YOPE   C3A14065   0.667   9.602   5.971  0.0331  0.0062 -0.1263
  936YOPE   C4A14066   0.949   9.550   6.360  0.0898 -0.4180 -0.0991
  936YOPE   C1B14067  -0.179   9.626   5.759  0.1602 -0.0350  0.1569
  936YOPE   C2B14068  -0.330   9.547   6.152 -0.0384 -0.2264 -0.1070
  936YOPE   D3B14069  -0.583   9.212   6.410  0.1446 -0.3307  0.0849
  936YOPE   C4B14070  -0.532   9.058   6.885  0.1545  0.3285 -0.0701
  937YOPE   NH314071   0.029   5.617   5.052  0.0173  0.1050 -0.0930
  937YOPE   PO414072  -0.073   5.906   4.937  0.4092 -0.0710  0.0109
  937YOPE   GL114073  -0.287   5.845   5.467 -0.1476  0.4336  0.0096
  937YOPE   GL214074  -0.096   5.598   5.520 -0.0884  0.0810  0.0386
  937YOPE   C1A14075  -0.145   6.138   5.861  0.3023 -0.1215 -0.2075
  937YOPE   D2A14076  -0.304   6.064   6.221  0.1535  0.1299 -0.0110
  937YOPE   C3A14077  -0.254   6.246   6.541 -0.1924 -0.0689  0.1695
  937YOPE   C4A14078  -0.150   6.529   6.863 -0.2312 -0.2459  0.1035
  937YOPE   C1B14079  -0.433   5.419   5.805  0.1821  0.0733 -0.0020
  937YOPE   C2B14080  -0.591   5.179   6.147  0.0731 -0.1760 -0.2447
  937YOPE   D3B14081  -0.527   4.913   6.546 -0.2644  0.0968 -0.0001
  937YOPE   C4B14082  -0.126   5.012   6.828  0.3558  0.4871 -0.0066
  938YOPE   NH314083  16.563  12.231   5.069 -0.0215 -0.0656 -0.3081
  938YOPE   PO414084  16.989  12.022   5.043  0.2001  0.1103 -0.2429
  938YOPE   GL114085  16.912  12.050   5.435  0.3320 -0.0313 -0.0642
  938YOPE   GL214086  16.718  11.787   5.482 -0.4215 -0.1724 -0.1297
  938YOPE   C1A14087  17.111  11.965   5.822 -0.5044  0.1964  0.2604
  938YOPE   D2A14088  17.385  11.599   6.229  0.2970  0.2159  0.1039
  938YOPE   C3A14089  17.495  11.773   6.713  0.0257  0.0927 -0.1468
  938YOPE   C4A14090  17.414  11.819   7.229 -0.1163  0.1183 -0.1736
  938YOPE   C1B14091  16.444  11.570   5.861 -0.0755  0.3179  0.1077
  938YOPE   C2B14092  16.387  11.437   6.235  0.2392 -0.2992 -0.3099
  938YOPE   D3B14093  16.357  11.378   6.687 -0.1419  0.0567 -0.1511
  938YOPE   C4B14094  16.108  11.425   6.975  0.1377 -0.1650 -0.1135
  939YOPE   NH314095   8.739   1.826   5.238 -0.4140 -0.2216 -0.0317
  939YOPE   PO414096   8.284   1.806   5.105 -0.1443  0.0854 -0.0175
  939YOPE   GL114097   8.251   1.674   5.428  0.1714  0.1493 -0.0829
  939YOPE   GL214098   8.381   1.925   5.667 -0.2089 -0.2036  0.0744
  939YOPE   C1A14099   7.866   1.715   5.599 -0.2475 -0.0503 -0.2722
  939YOPE   D2A14100   7.523   1.843   5.949  0.0572 -0.0807 -0.1290
  939YOPE   C3A14101   7.243   1.540   6.195 -0.0159  0.0298 -0.0759
  939YOPE   C4A14102   7.114   1.368   6.574  0.0133  0.0744 -0.1504
  939YOPE   C1B14103   8.403   2.277   5.924 -0.2798 -0.2710  0.0487
  939YOPE   C2B14104   8.356   2.383   6.365  0.1550  0.0728 -0.1990
  939YOPE   D3B14105   8.575   2.300   6.731 -0.0343  0.1713 -0.1668
  939YOPE   C4B14106   8.344   2.067   7.004 -0.0550  0.1414  0.0102
  940YOPE   NH314107   7.746  11.722   4.910  0.3437  0.1973  0.0997
  940YOPE   PO414108   7.916  11.314   5.111  0.0586 -0.2592  0.0819
  940YOPE   GL114109   7.655  11.582   5.456 -0.1666  0.1854 -0.3076
  940YOPE   GL214110   7.572  11.199   5.533 -0.0940  0.1684  0.1434
  940YOPE   C1A14111   7.877  11.700   5.773  0.4751  0.3238  0.1969
  940YOPE   D2A14112   7.795  11.921   6.137  0.0879  0.5428  0.1089
  940YOPE   C3A14113   7.924  12.320   6.267 -0.3009  0.1903  0.2501
  940YOPE   C4A14114   7.748  12.726   6.363  0.1593  0.1787  0.2334
  940YOPE   C1B14115   7.408  10.979   5.932  0.3284 -0.1403 -0.0273
  940YOPE   C2B14116   7.609  11.034   6.355 -0.3231 -0.1634 -0.3272
  940YOPE   D3B14117   7.517  11.033   6.741  0.2397 -0.2994 -0.0260
  940YOPE   C4B14118   7.763  10.874   7.107 -0.0065  0.0197  0.1936
  941YOPE   NH314119   7.199  11.342   5.244  0.2384  0.0514 -0.0931
  941YOPE   PO414120   7.190  11.761   5.016  0.2393  0.1610  0.2972
  941YOPE   GL114121   6.952  11.932   5.413  0.1073  0.1000 -0.1465
  941YOPE   GL214122   6.811  12.146   5.143  0.4968 -0.0756 -0.2470
  941YOPE   C1A14123   6.707  12.071   5.826 -0.0101 -0.0100  0.0624
  941YOPE   D2A14124   6.934  12.151   6.175 -0.2918 -0.2786  0.2862
  941YOPE   C3A14125   7.032  12.548   6.370  0.1230  0.0837 -0.2041
  941YOPE   C4A14126   7.260  12.871   6.366 -0.1024  0.1493  0.0163
  941YOPE   C1B14127   6.455  12.279   5.422  0.2113  0.0827 -0.2374
  941YOPE   C2B14128   6.065  12.520   5.532 -0.2274  0.2815  0.0040
  941YOPE   D3B14129   5.652  12.544   5.879 -0.3275 -0.0402  0.5170
  941YOPE   C4B14130   5.656  12.400   6.360 -0.2887 -0.1287 -0.0085
  942YOPE   NH314131   7.886   7.526   5.214 -0.0490  0.1383 -0.0867
  942YOPE   PO414132   7.550   7.788   5.173  0.0916 -0.0228 -0.1591
  942YOPE   GL114133   7.652   7.800   5.610 -0.2822  0.2336 -0.1419
  942YOPE   GL214134   7.394   7.917   5.708  0.3092  0.0156 -0.0314
  942YOPE   C1A14135   7.853   7.731   6.063 -0.2644  0.1200 -0.0389
  942YOPE   D2A14136   8.318   7.657   6.160  0.0375  0.0300 -0.0954
  942YOPE   C3A14137   8.535   7.802   6.581  0.0238  0.0811 -0.1470
  942YOPE   C4A14138   8.883   7.675   6.863 -0.1949 -0.2034 -0.2583
  942YOPE   C1B14139   7.317   7.604   6.036 -0.0004 -0.1112 -0.6370
  942YOPE   C2B14140   7.400   7.396   6.452 -0.1190  0.2999 -0.2588
  942YOPE   D3B14141   7.697   7.250   6.783  0.2292  0.0430  0.2117
  942YOPE   C4B14142   7.938   7.271   7.223 -0.1706  0.0633 -0.1417
  943YOPE   NH314143   5.769   9.752   4.861 -0.0062 -0.1525  0.2158
  943YOPE   PO414144   5.899  10.093   5.037  0.1462 -0.0804  0.1888
  943YOPE   GL114145   6.033  10.166   5.310  0.0210 -0.0149 -0.0233
  943YOPE   GL214146   6.098  10.431   5.363  0.0640  0.1669  0.3242
  943YOPE   C1A14147   5.894  10.011   5.732 -0.0128 -0.1610  0.0562
  943YOPE   D2A14148   5.724   9.823   6.062 -0.1357 -0.1969  0.1727
  943YOPE   C3A14149   5.321   9.942   6.113  0.1343  0.2955 -0.0211
  943YOPE   C4A14150   5.209  10.212   6.498 -0.0795  0.2164  0.3239
  943YOPE   C1B14151   6.134  10.548   5.672 -0.1767  0.2644 -0.3486
  943YOPE   C2B14152   6.214  10.569   6.080  0.0572 -0.5557 -0.0578
  943YOPE   D3B14153   6.438  10.476   6.370 -0.0692 -0.1355 -0.0008
  943YOPE   C4B14154   6.730  10.571   6.653  0.2181 -0.1640 -0.0634
  944POPC   NC314155   6.206  13.831   5.093 -0.0979  0.0860 -0.3016
  944POPC   PO414156   6.495  14.025   5.095  0.0108 -0.5349  0.3336
  944POPC   GL114157   6.565  13.921   5.538 -0.0105 -0.2934 -0.0680
  944POPC   GL214158   6.419  13.665   5.673 -0.3837 -0.0370  0.1227
  944POPC   C1A14159   6.677  13.988   5.974  0.3029 -0.1662  0.1163
  944POPC   D2A14160   7.092  14.072   6.199 -0.1568  0.0931 -0.0569
  944POPC   C3A14161   7.161  14.256   6.584  0.1352  0.2327 -0.3007
  944POPC   C4A14162   7.382  14.127   6.948  0.0371  0.0422 -0.2801
  944POPC   C1B14163   6.170  13.448   5.978  0.3277 -0.0426  0.1093
  944POPC   C2B14164   5.906  13.248   6.315  0.2849  0.0856 -0.5168
  944POPC   C3B14165   5.614  13.549   6.595 -0.1765  0.2694  0.2753
  944POPC   C4B14166   5.214  13.802   6.464 -0.1830  0.0505  0.0630
  945POPC   NC314167   8.725  13.851   5.107 -0.1317 -0.0105 -0.3151
  945POPC   PO414168   8.928  13.443   4.975  0.1394 -0.0122 -0.1077
  945POPC   GL114169   8.646  13.381   5.250 -0.2079  0.0471 -0.1740
  945POPC   GL214170   8.332  13.499   5.338  0.0263  0.0480 -0.2462
  945POPC   C1A14171   8.715  13.472   5.739  0.0092  0.1646 -0.0349
  945POPC   D2A14172   8.800  13.535   6.171 -0.2295 -0.0103 -0.0826
  945POPC   C3A14173   8.385  13.484   6.379  0.4568 -0.0759  0.0206
  945POPC   C4A14174   8.025  13.903   6.350  0.1277 -0.1714  0.0645
  945POPC   C1B14175   8.313  13.797   5.701 -0.0520  0.1693  0.0281
  945POPC   C2B14176   8.406  13.864   6.066  0.0556 -0.2293  0.0456
  945POPC   C3B14177   8.647  14.011   6.386  0.1697  0.1254 -0.2634
  945POPC   C4B14178   9.077  14.062   6.649  0.2691 -0.0711  0.1030
  946POPC   NC314179   5.568   8.112   4.236  0.1116  0.0431 -0.3946
  946POPC   PO414180   5.266   8.019   4.543 -0.0957 -0.2996  0.1687
  946POPC   GL114181   5.479   8.186   4.909 -0.1118 -0.1397  0.2545
  946POPC   GL214182   5.655   8.437   5.040  0.1845 -0.2760 -0.0548
  946POPC   C1A14183   5.542   8.086   5.384  0.1944  0.1886 -0.0570
  946POPC   D2A14184   5.266   7.979   5.764  0.3897  0.1339 -0.2877
  946POPC   C3A14185   5.060   7.592   5.864  0.4539 -0.2863 -0.0694
  946POPC   C4A14186   4.977   7.244   6.255 -0.0716  0.3218  0.1921
  946POPC   C1B14187   5.591   8.667   5.372  0.0851 -0.0177 -0.0625
  946POPC   C2B14188   5.712   8.501   5.661  0.1182  0.3158  0.0087
  946POPC   C3B14189   5.487   8.375   6.059 -0.2314  0.0915 -0.1027
  946POPC   C4B14190   5.475   8.132   6.449  0.2397 -0.0953  0.0019
  947POPC   NC314191  18.173   6.589   5.040 -0.2269  0.1030 -0.0751
  947POPC   PO414192  18.146   6.477   5.480  0.1092  0.0792  0.3313
  947POPC   GL114193  18.471   6.304   5.787  0.0592  0.3249  0.0052
  947POPC   GL214194  18.692   6.104   5.587  0.1775  0.2123 -0.1040
  947POPC   C1A14195  18.691   6.488   6.122 -0.0253  0.2413  0.1080
  947POPC   D2A14196  18.760   6.519   6.549 -0.1298 -0.2296  0.1402
  947POPC   C3A14197  18.389   6.653   6.815 -0.2163  0.2479 -0.0696
  947POPC   C4A14198  18.273   6.806   7.132 -0.1366  0.1188  0.0143
  947POPC   C1B14199  18.761   5.925   6.066  0.1032 -0.3894 -0.0057
  947POPC   C2B14200  18.902   6.075   6.502 -0.3288 -0.0858 -0.1819
  947POPC   C3B14201  18.653   6.247   6.910  0.0461  0.1723 -0.0672
  947POPC   C4B14202  18.320   6.378   7.323 -0.0879 -0.1827  0.0557
  948POPC   NC314203  16.487   0.293   5.030 -0.2169  0.0503  0.2694
  948POPC   PO414204  16.843   0.502   5.354 -0.1314 -0.1384 -0.0951
  948POPC   GL114205  16.877   0.646   5.679  0.4901  0.4332 -0.1526
  948POPC   GL214206  16.798   0.497   6.003  0.1857 -0.2693  0.0299
  948POPC   C1A14207  17.084   0.894   6.072  0.2672 -0.4343  0.0241
  948POPC   D2A14208  17.567   1.027   6.091 -0.0482 -0.0981 -0.0527
  948POPC   C3A14209  17.683   1.450   5.941  0.1576 -0.1064 -0.3699
  948POPC   C4A14210  17.808   1.908   5.812  0.3303 -0.3435  0.4106
  948POPC   C1B14211  16.753   0.566   6.422  0.0711  0.0452  0.0148
  948POPC   C2B14212  16.789   0.878   6.805  0.0796 -0.0078 -0.1554
  948POPC   C3B14213  16.520   0.917   7.205  0.2351  0.1292 -0.0372
  948POPC   C4B14214  16.483   0.838   7.637 -0.1073 -0.0761 -0.0561
  949POPC   NC314215   8.142   8.813   4.889  0.0378  0.1671 -0.1658
  949POPC   PO414216   8.547   8.754   4.888 -0.1909  0.2763 -0.1751
  949POPC   GL114217   8.868   8.937   5.056 -0.1621  0.0287  0.0269
  949POPC   GL214218   8.838   8.809   5.339 -0.0673  0.0802  0.1716
  949POPC   C1A14219   8.937   9.292   5.413  0.0683  0.4544  0.0449
  949POPC   D2A14220   8.830   9.777   5.580 -0.2915 -0.0623  0.2794
  949POPC   C3A14221   9.166   9.984   5.746 -0.1252  0.0231  0.2151
  949POPC   C4A14222   9.386   9.931   6.039  0.3182 -0.0044 -0.3076
  949POPC   C1B14223   8.785   8.914   5.779 -0.0132 -0.0570  0.0661
  949POPC   C2B14224   9.064   8.865   6.155 -0.2450  0.1451  0.0570
  949POPC   C3B14225   9.510   8.788   6.321  0.3798 -0.1496 -0.1164
  949POPC   C4B14226   9.892   8.699   6.464  0.1972 -0.1091 -0.1550
  950POPC   NC314227  11.732  18.303   4.808 -0.5189 -0.2781  0.1386
  950POPC   PO414228  12.005  18.149   5.033  0.0821  0.1134 -0.0501
  950POPC   GL114229  12.076  18.091   5.398 -0.2725  0.1629  0.0877
  950POPC   GL214230  12.111  17.732   5.432  0.0593  0.1705 -0.2945
  950POPC   C1A14231  12.051  18.428   5.694 -0.0991  0.0887 -0.2558
  950POPC   D2A14232  12.069  18.905   5.675 -0.2311  0.2789 -0.1624
  950POPC   C3A14233  12.150  19.368   5.775 -0.1193  0.2539  0.0165
  950POPC   C4A14234  11.916  19.750   5.693  0.2469 -0.0565  0.0366
  950POPC   C1B14235  12.070  17.955   5.847  0.2286 -0.3337 -0.1069
  950POPC   C2B14236  11.935  18.160   6.200  0.0114 -0.1718  0.2023
  950POPC   C3B14237  12.114  18.232   6.691 -0.2837 -0.1619 -0.1047
  950POPC   C4B14238  12.266  18.392   7.092  0.2062 -0.0139  0.3058
  951POPC   NC314239  17.987   2.362   4.869 -0.2730 -0.1162 -0.1737
  951POPC   PO414240  17.765   2.126   5.050 -0.0534  0.1803  0.3610
  951POPC   GL114241  18.061   2.057   5.338 -0.2067 -0.0921 -0.2500
  951POPC   GL214242  18.221   1.788   5.322 -0.0610  0.1281  0.0853
  951POPC   C1A14243  18.438   2.379   5.361 -0.0908 -0.3076 -0.5002
  951POPC   D2A14244  18.693   2.436   5.756  0.2024 -0.2238 -0.1123
  951POPC   C3A14245  18.710   2.689   6.017  0.1238  0.0687  0.1006
  951POPC   C4A14246  19.155   2.896   6.137 -0.0874 -0.2164  0.0531
  951POPC   C1B14247  18.517   1.954   5.705  0.0720  0.3089 -0.0308
  951POPC   C2B14248  18.563   2.012   6.117 -0.0385 -0.0889  0.2264
  951POPC   C3B14249  18.609   2.329   6.392  0.0052  0.3620 -0.0333
  951POPC   C4B14250  18.261   2.565   6.309 -0.2220  0.3194 -0.0792
  952POPC   NC314251  17.584   0.723   5.395  0.1588 -0.1563 -0.2141
  952POPC   PO414252  17.760   0.362   5.473  0.1164  0.0728 -0.0234
  952POPC   GL114253  17.910   0.293   5.896  0.1430 -0.0351  0.1573
  952POPC   GL214254  17.928   0.580   6.022 -0.1302 -0.1933 -0.0546
  952POPC   C1A14255  17.871   0.134   6.381 -0.3082 -0.0478  0.0210
  952POPC   D2A14256  17.859   0.233   6.784 -0.1340 -0.0404  0.0162
  952POPC   C3A14257  17.749  -0.066   7.147 -0.0948  0.4954 -0.0600
  952POPC   C4A14258  17.880   0.013   7.557  0.2728 -0.1058  0.0202
  952POPC   C1B14259  17.783   0.650   6.377 -0.2175  0.2764  0.4058
  952POPC   C2B14260  17.746   0.727   6.794 -0.2649  0.1009  0.0345
  952POPC   C3B14261  17.869   0.812   7.210 -0.3561 -0.2727  0.2483
  952POPC   C4B14262  18.245   0.922   7.546  0.3620  0.1017 -0.2212
  953POPC   NC314263   0.782   7.507   4.454  0.1993  0.0528 -0.4440
  953POPC   PO414264   0.438   7.510   4.565  0.0417  0.2528  0.1818
  953POPC   GL114265   0.350   7.671   4.941 -0.0287  0.1765 -0.0585
  953POPC   GL214266   0.052   7.623   5.223 -0.0377 -0.2036  0.1719
  953POPC   C1A14267   0.586   7.923   5.314 -0.4126  0.0306 -0.0893
  953POPC   D2A14268   0.737   7.854   5.748  0.0807  0.0672  0.1077
  953POPC   C3A14269   0.526   7.518   5.918 -0.3034 -0.1982 -0.0884
  953POPC   C4A14270   0.570   7.181   5.712  0.0370  0.3850  0.0664
  953POPC   C1B14271   0.172   7.719   5.598  0.3294 -0.1390 -0.1663
  953POPC   C2B14272   0.080   7.499   6.072  0.0781  0.1445 -0.0808
  953POPC   C3B14273  -0.118   7.405   6.447  0.1524 -0.1444 -0.1567
  953POPC   C4B14274  -0.434   7.270   6.775 -0.0064  0.2583  0.2175
  954POPC   NC314275   4.488  16.584   4.082 -0.0400 -0.2171 -0.0599
  954POPC   PO414276   4.831  16.618   4.402  0.0357 -0.1318 -0.1364
  954POPC   GL114277   4.951  16.829   4.805 -0.0791  0.2003  0.2210
  954POPC   GL214278   5.184  17.024   4.779 -0.1049  0.1835  0.2573
  954POPC   C1A14279   4.873  17.121   5.160  0.5418  0.2947  0.2130
  954POPC   D2A14280   4.942  17.440   5.448  0.0495  0.1289 -0.0221
  954POPC   C3A14281   4.530  17.527   5.771  0.2170 -0.1317  0.1320
  954POPC   C4A14282   4.498  17.601   6.172 -0.1071  0.1508  0.4927
  954POPC   C1B14283   5.365  17.209   5.212 -0.1046 -0.0182  0.0320
  954POPC   C2B14284   5.413  17.484   5.570 -0.0975 -0.0847 -0.0143
  954POPC   C3B14285   5.808  17.557   5.794 -0.0189  0.3154 -0.1366
  954POPC   C4B14286   6.189  17.339   5.830  0.1656 -0.2483 -0.1201
  955POPC   NC314287  12.088   6.938   5.055 -0.0768  0.1403 -0.2082
  955POPC   PO414288  12.131   7.314   5.109 -0.1738 -0.1471  0.0465
  955POPC   GL114289  12.249   7.091   5.515 -0.0210  0.2742  0.0015
  955POPC   GL214290  12.604   7.008   5.465  0.2197  0.0503  0.1579
  955POPC   C1A14291  12.370   6.887   5.928 -0.2782  0.4440 -0.1492
  955POPC   D2A14292  12.360   6.465   5.988  0.0131 -0.0711  0.2140
  955POPC   C3A14293  12.176   6.373   6.380 -0.1884  0.2142 -0.2916
  955POPC   C4A14294  12.059   6.025   6.656  0.1992 -0.2344 -0.0605
  955POPC   C1B14295  12.451   7.343   5.839 -0.0150  0.1863 -0.1234
  955POPC   C2B14296  12.561   7.568   6.136  0.0795  0.0197  0.1120
  955POPC   C3B14297  12.898   7.725   6.244 -0.3565 -0.5444 -0.0300
  955POPC   C4B14298  13.310   7.613   6.023  0.1054  0.1164  0.0493
  956POPC   NC314299  13.882   4.622   5.316 -0.0537 -0.1177 -0.1159
  956POPC   PO414300  13.783   4.251   5.626 -0.1281 -0.1255  0.3497
  956POPC   GL114301  14.124   4.567   5.763 -0.1683 -0.1689 -0.1891
  956POPC   GL214302  14.034   4.692   5.762 -0.1931  0.2110 -0.1166
  956POPC   C1A14303  14.375   4.599   6.102  0.3348 -0.1297 -0.1014
  956POPC   D2A14304  14.632   4.520   6.433  0.1853 -0.0132 -0.0604
  956POPC   C3A14305  14.708   4.587   6.898 -0.1144 -0.3413 -0.1662
  956POPC   C4A14306  14.701   4.908   7.154  0.1597 -0.0524 -0.0273
  956POPC   C1B14307  13.916   4.765   6.253 -0.0178 -0.1687 -0.3476
  956POPC   C2B14308  13.606   4.604   6.479  0.1272  0.1105  0.1242
  956POPC   C3B14309  13.337   4.801   6.749 -0.2001 -0.2179 -0.0308
  956POPC   C4B14310  13.212   5.082   7.138  0.1603  0.1051  0.3278
  957POPC   NC314311  17.254  12.454   5.053  0.1919 -0.1776  0.0281
  957POPC   PO414312  16.839  12.643   5.172  0.0816 -0.1998 -0.0802
  957POPC   GL114313  17.263  12.601   5.530 -0.4701  0.1735 -0.0085
  957POPC   GL214314  17.404  12.314   5.568  0.2137  0.3881 -0.0687
  957POPC   C1A14315  17.511  12.593   5.923  0.0669 -0.3519 -0.2319
  957POPC   D2A14316  17.516  12.677   6.445 -0.2998  0.2410  0.4278
  957POPC   C3A14317  17.496  12.351   6.681 -0.3784  0.0411 -0.0685
  957POPC   C4A14318  17.197  12.135   6.879  0.0485 -0.1804 -0.0840
  957POPC   C1B14319  17.571  11.844   5.693  0.2506  0.1797 -0.0922
  957POPC   C2B14320  17.754  11.450   5.818  0.0585 -0.0356 -0.0686
  957POPC   C3B14321  17.958  11.136   6.089  0.1202 -0.0302 -0.1079
  957POPC   C4B14322  17.907  11.229   6.475 -0.0513  0.2097  0.1958
  958POPC   NC314323  11.099  14.286   4.810  0.0764  0.2296 -0.0357
  958POPC   PO414324  11.502  14.518   4.943  0.0027  0.0695 -0.1485
  958POPC   GL114325  11.430  14.674   5.295  0.1700  0.2750  0.1109
  958POPC   GL214326  11.091  14.754   5.188 -0.0745  0.1926 -0.0819
  958POPC   C1A14327  11.457  14.772   5.691 -0.1419  0.1530  0.1495
  958POPC   D2A14328  11.320  15.010   6.061  0.2917  0.3002 -0.1271
  958POPC   C3A14329  11.585  14.907   6.399 -0.1845  0.2489 -0.0306
  958POPC   C4A14330  11.817  14.803   6.070 -0.0060 -0.0781 -0.1469
  958POPC   C1B14331  10.932  14.941   5.637  0.0113  0.0559  0.3820
  958POPC   C2B14332  10.664  14.857   6.001 -0.1604 -0.3303 -0.1282
  958POPC   C3B14333  10.419  14.941   6.410 -0.3045 -0.3371 -0.3619
  958POPC   C4B14334  10.334  14.756   6.872 -0.4722 -0.3446  0.0553
  959POPC   NC314335   7.413   9.942   4.675  0.5976 -0.2915 -0.1889
  959POPC   PO414336   7.142   9.650   4.917  0.0734  0.1080  0.0508
  959POPC   GL114337   7.118   9.471   5.284 -0.0736 -0.0739  0.2063
  959POPC   GL214338   7.317   9.612   5.415 -0.1184  0.1486  0.0843
  959POPC   C1A14339   7.124   9.108   5.666  0.1097 -0.0033 -0.0188
  959POPC   D2A14340   7.011   9.020   6.077  0.0497  0.1404  0.1729
  959POPC   C3A14341   6.763   8.607   6.299 -0.3152  0.4507 -0.0398
  959POPC   C4A14342   6.636   8.510   6.706 -0.2539 -0.0278 -0.1178
  959POPC   C1B14343   7.456   9.667   5.772  0.5050  0.0256  0.2710
  959POPC   C2B14344   7.381   9.828   6.162  0.0455 -0.5706  0.0814
  959POPC   C3B14345   7.258   9.892   6.654  0.2593  0.4120  0.1771
  959POPC   C4B14346   7.087   9.670   7.020  0.3032  0.2914  0.0598
  960POPC   NC314347  13.305  10.195   4.966 -0.1961  0.0366 -0.1494
  960POPC   PO414348  13.548  10.582   4.996  0.0084  0.1094 -0.3375
  960POPC   GL114349  13.621  10.817   5.392 -0.1493  0.0287 -0.0576
  960POPC   GL214350  13.484  10.518   5.471  0.4088  0.0631 -0.0489
  960POPC   C1A14351  13.987  11.011   5.634 -0.1800  0.2698 -0.2660
  960POPC   D2A14352  14.237  10.903   6.073  0.1000 -0.2231  0.0501
  960POPC   C3A14353  13.977  10.740   6.273  0.1401 -0.1041 -0.3381
  960POPC   C4A14354  13.862  10.295   6.311 -0.0650 -0.1941  0.1878
  960POPC   C1B14355  13.106  10.516   5.702  0.0006  0.0967  0.0389
  960POPC   C2B14356  13.040  10.440   6.204  0.3097  0.0011  0.1046
  960POPC   C3B14357  12.888  10.785   6.524  0.1203  0.0902  0.1286
  960POPC   C4B14358  12.701  10.997   6.785  0.0982 -0.0581  0.1104
  961POPC   NC314359  18.165  14.476   4.632 -0.3827  0.1534 -0.1998
  961POPC   PO414360  18.001  13.979   4.681  0.1378  0.1852  0.0815
  961POPC   GL114361  17.933  14.056   5.128  0.3039 -0.1764  0.0185
  961POPC   GL214362  17.664  13.847   5.346  0.2865  0.0026  0.0836
  961POPC   C1A14363  17.881  14.351   5.552  0.2380  0.3207  0.1664
  961POPC   D2A14364  17.671  14.421   5.936 -0.1897 -0.1234  0.4645
  961POPC   C3A14365  17.662  14.538   6.284 -0.4360  0.1590  0.0589
  961POPC   C4A14366  17.754  14.220   6.563  0.0094 -0.0671 -0.0171
  961POPC   C1B14367  17.722  13.625   5.632 -0.2385  0.0796 -0.0192
  961POPC   C2B14368  17.526  13.644   6.091 -0.0483 -0.1229 -0.0145
  961POPC   C3B14369  17.137  13.461   6.304 -0.1949  0.1047  0.2884
  961POPC   C4B14370  17.016  13.590   6.735  0.1300 -0.0973 -0.0255
  962POPC   NC314371   7.962  19.222   4.793  0.0829  0.1116 -0.3313
  962POPC   PO414372   8.292  19.538   4.665 -0.1549  0.1511 -0.0115
  962POPC   GL114373   8.214  19.579   5.049  0.1192  0.1135 -0.2108
  962POPC   GL214374   8.351  19.381   5.133  0.1163 -0.1030 -0.1463
  962POPC   C1A14375   8.141  19.798   5.388  0.3033 -0.1229 -0.4162
  962POPC   D2A14376   8.019  19.681   5.728 -0.2305 -0.0654  0.2373
  962POPC   C3A14377   8.271  19.536   6.053 -0.1400  0.1286 -0.1839
  962POPC   C4A14378   8.266  19.263   6.414 -0.0118 -0.0971  0.4794
  962POPC   C1B14379   8.357  19.355   5.500  0.0829 -0.1479 -0.0943
  962POPC   C2B14380   8.333  19.082   5.723  0.1805  0.0539  0.0440
  962POPC   C3B14381   8.102  18.743   5.968 -0.0692  0.0347  0.0922
  962POPC   C4B14382   7.937  18.313   5.871 -0.2844 -0.0909  0.3648
  963POPC   NC314383   9.554   2.978   4.225  0.4192  0.0112  0.2123
  963POPC   PO414384   9.888   3.000   4.641 -0.0565  0.0481  0.1126
  963POPC   GL114385   9.839   2.843   5.077 -0.0891  0.1400  0.3626
  963POPC   GL214386   9.541   2.754   5.255 -0.2520  0.2539 -0.0128
  963POPC   C1A14387   9.977   2.885   5.595  0.3249  0.0345 -0.1992
  963POPC   D2A14388   9.837   2.978   5.941  0.1275 -0.0927 -0.0767
  963POPC   C3A14389   9.895   3.437   6.153 -0.0163  0.1638  0.0277
  963POPC   C4A14390   9.834   3.541   6.610 -0.2871  0.3708  0.1399
  963POPC   C1B14391   9.450   2.734   5.692 -0.4351 -0.0552  0.2109
  963POPC   C2B14392   9.257   2.742   6.169 -0.1750 -0.1189  0.1298
  963POPC   C3B14393   8.953   2.683   6.521 -0.2094 -0.3528 -0.1468
  963POPC   C4B14394   8.513   2.825   6.495  0.0611 -0.0002 -0.0931
  964POPC   NC314395  19.606   9.458   4.821 -0.0123 -0.3363 -0.0702
  964POPC   PO414396  19.116   9.553   4.759 -0.0961 -0.1145 -0.1493
  964POPC   GL114397  19.175   9.355   5.099  0.1511  0.1538  0.0627
  964POPC   GL214398  18.994   9.038   5.123 -0.0349  0.1746  0.1672
  964POPC   C1A14399  19.452   9.386   5.502 -0.0187  0.0191 -0.2605
  964POPC   D2A14400  19.684   9.056   5.808 -0.1439 -0.0842  0.1351
  964POPC   C3A14401  20.071   9.287   5.901  0.2097  0.1678 -0.2922
  964POPC   C4A14402  20.391   9.146   6.289  0.0837  0.4162  0.1390
  964POPC   C1B14403  19.103   9.015   5.575 -0.0941 -0.1479 -0.2431
  964POPC   C2B14404  19.148   9.307   5.935 -0.2248 -0.1104 -0.0095
  964POPC   C3B14405  19.171   9.702   5.832  0.0551  0.0631 -0.1191
  964POPC   C4B14406  19.455  10.019   6.002 -0.0949 -0.1115  0.1289
  965POPC   NC314407   3.281  13.058   4.518  0.0885  0.1368  0.0595
  965POPC   PO414408   3.065  13.402   4.638 -0.1917  0.1677 -0.3305
  965POPC   GL114409   2.809  13.195   4.983  0.0340 -0.2007  0.1521
  965POPC   GL214410   2.503  13.437   5.033 -0.0112  0.1364  0.3690
  965POPC   C1A14411   2.747  13.052   5.393 -0.1940  0.0125 -0.2308
  965POPC   D2A14412   2.661  12.903   5.805  0.1483 -0.5312 -0.2731
  965POPC   C3A14413   2.704  13.298   5.995 -0.0699 -0.1320 -0.1452
  965POPC   C4A14414   2.935  13.412   6.387  0.4479  0.5280 -0.0720
  965POPC   C1B14415   2.321  13.475   5.529  0.2282  0.1080  0.2428
  965POPC   C2B14416   2.096  13.384   5.847 -0.0109  0.3684 -0.1873
  965POPC   C3B14417   2.167  13.663   6.247 -0.0535  0.0023 -0.1051
  965POPC   C4B14418   2.106  13.990   6.575  0.2141 -0.2466 -0.2571
  966POPC   NC314419   3.800  18.216   4.303 -0.0942 -0.3375 -0.1165
  966POPC   PO414420   3.962  17.978   4.705 -0.5143  0.1828  0.0313
  966POPC   GL114421   4.071  17.866   5.113  0.3090  0.3703  0.2871
  966POPC   GL214422   4.035  18.205   5.130  0.3467 -0.2231  0.1317
  966POPC   C1A14423   4.156  17.829   5.493  0.3579  0.2010  0.1631
  966POPC   D2A14424   4.041  17.812   5.919 -0.0307  0.0305  0.1008
  966POPC   C3A14425   4.038  18.157   6.215  0.1530 -0.1412 -0.1836
  966POPC   C4A14426   4.036  18.224   6.722  0.4672 -0.1268  0.0135
  966POPC   C1B14427   4.237  18.524   5.315  0.1587 -0.0452 -0.3085
  966POPC   C2B14428   4.686  18.511   5.528  0.2545 -0.3735 -0.1044
  966POPC   C3B14429   4.686  18.653   5.874  0.0819  0.0874  0.0396
  966POPC   C4B14430   4.947  18.618   6.077 -0.1657  0.1443  0.2326
  967POPC   NC314431  10.336  13.886   4.819 -0.3622 -0.1954  0.2972
  967POPC   PO414432  10.080  13.623   5.149  0.2680 -0.1984  0.2403
  967POPC   GL114433  10.217  13.256   5.420 -0.0512  0.1015 -0.2286
  967POPC   GL214434  10.320  13.502   5.600  0.1665 -0.1785  0.1384
  967POPC   C1A14435  10.518  12.995   5.679  0.2015  0.2492  0.2152
  967POPC   D2A14436  10.299  12.748   5.957 -0.1529 -0.4583 -0.3729
  967POPC   C3A14437   9.905  12.806   5.788 -0.2939 -0.2067 -0.2532
  967POPC   C4A14438   9.657  13.050   5.838 -0.1250  0.3206 -0.0226
  967POPC   C1B14439  10.078  13.294   5.908 -0.0627  0.0739 -0.1520
  967POPC   C2B14440  10.424  13.221   6.234  0.1675  0.2251 -0.2795
  967POPC   C3B14441  10.429  13.566   6.658 -0.4453 -0.0368 -0.0290
  967POPC   C4B14442  10.733  13.958   6.681  0.1092 -0.2702 -0.0895
  968POPC   NC314443  18.917   1.447   5.211  0.0611  0.0379  0.1351
  968POPC   PO414444  18.975   1.147   5.545  0.2101 -0.3847  0.4014
  968POPC   GL114445  19.153   0.938   5.846  0.1303 -0.0316  0.0820
  968POPC   GL214446  18.864   1.054   6.012 -0.0069 -0.0446 -0.0416
  968POPC   C1A14447  19.292   0.809   6.317  0.2343  0.1289  0.1095
  968POPC   D2A14448  19.138   0.372   6.487  0.1698 -0.3728  0.1754
  968POPC   C3A14449  19.454   0.027   6.524 -0.4523 -0.0861 -0.2105
  968POPC   C4A14450  19.639  -0.062   6.910  0.4085  0.1270  0.2287
  968POPC   C1B14451  19.033   1.274   6.346 -0.1105 -0.2694  0.2339
  968POPC   C2B14452  19.280   1.156   6.759  0.3330 -0.1975  0.1543
  968POPC   C3B14453  19.318   0.788   7.060  0.2108  0.0070  0.1268
  968POPC   C4B14454  19.222   0.644   7.466  0.0271  0.1271  0.1545
  969POPC   NC314455   0.227  15.315   4.430  0.2104 -0.0453  0.0907
  969POPC   PO414456  -0.111  15.178   4.651  0.1319 -0.0618  0.0182
  969POPC   GL114457  -0.135  15.069   5.141 -0.1481  0.1963  0.2157
  969POPC   GL214458  -0.028  15.320   5.343 -0.2991  0.2187 -0.1382
  969POPC   C1A14459   0.145  14.809   5.568 -0.1976 -0.1980 -0.1239
  969POPC   D2A14460   0.089  14.761   6.050 -0.3434  0.2035  0.0583
  969POPC   C3A14461   0.392  14.729   6.310  0.1707  0.2499  0.0016
  969POPC   C4A14462   0.784  14.615   6.550 -0.0760 -0.0475 -0.0872
  969POPC   C1B14463   0.069  15.280   5.772 -0.1667 -0.1228  0.0266
  969POPC   C2B14464   0.057  15.217   6.235  0.0938 -0.0764  0.1845
  969POPC   C3B14465  -0.104  15.117   6.639 -0.1823  0.1291  0.0106
  969POPC   C4B14466  -0.298  14.876   6.739  0.0497  0.1551 -0.0054
  970POPC   NC314467   9.254  10.272   4.762 -0.1347  0.0971  0.5544
  970POPC   PO414468   9.436  10.703   4.535  0.0855  0.2286  0.1576
  970POPC   GL114469   9.335  10.857   4.852  0.0233  0.1521 -0.2965
  970POPC   GL214470   9.230  10.633   5.098  0.1694 -0.0177 -0.0807
  970POPC   C1A14471   9.498  11.111   5.269 -0.3133 -0.1940 -0.0520
  970POPC   D2A14472   9.840  11.283   5.455 -0.0603  0.3141 -0.1296
  970POPC   C3A14473  10.223  10.996   5.669  0.2711  0.0361  0.0662
  970POPC   C4A14474  10.238  10.798   6.016 -0.3499  0.0169  0.0545
  970POPC   C1B14475   9.230  10.570   5.509  0.0783  0.0324  0.1041
  970POPC   C2B14476   8.832  10.574   5.729  0.0261  0.2004  0.1448
  970POPC   C3B14477   8.845  10.267   6.009  0.2358 -0.1033 -0.1284
  970POPC   C4B14478   8.706   9.828   6.080 -0.0701  0.2224 -0.1511
  971POPC   NC314479  16.638   6.965   5.359  0.0489  0.0327  0.1577
  971POPC   PO414480  16.265   6.815   5.551 -0.4062  0.1902  0.3356
  971POPC   GL114481  16.341   6.872   5.901  0.2376  0.1388  0.0869
  971POPC   GL214482  16.055   6.867   6.107  0.1682  0.2562  0.2150
  971POPC   C1A14483  16.573   7.007   6.265 -0.6492 -0.2342  0.0125
  971POPC   D2A14484  16.788   6.994   6.635 -0.2537 -0.0928 -0.0275
  971POPC   C3A14485  16.678   7.187   7.016  0.0173  0.1806 -0.1304
  971POPC   C4A14486  16.873   7.350   7.392 -0.1667  0.0412  0.1607
  971POPC   C1B14487  15.920   7.112   6.484 -0.2574 -0.0667  0.1694
  971POPC   C2B14488  16.088   7.195   6.952 -0.0520 -0.1880  0.2601
  971POPC   C3B14489  16.106   7.494   7.317 -0.1412 -0.3155  0.3501
  971POPC   C4B14490  16.025   7.777   7.608 -0.1082 -0.1426 -0.2677
  972POPC   NC314491   2.432  10.686   4.821 -0.0801  0.0193  0.1625
  972POPC   PO414492   2.418  10.275   4.687 -0.1480 -0.0911 -0.1297
  972POPC   GL114493   2.666  10.020   5.012 -0.1660 -0.1370 -0.1201
  972POPC   GL214494   2.586  10.346   5.165 -0.3124 -0.0192 -0.0918
  972POPC   C1A14495   2.767   9.610   5.192  0.0146 -0.1695 -0.0025
  972POPC   D2A14496   3.039   9.329   5.288  0.1165 -0.4725  0.0227
  972POPC   C3A14497   3.229   9.371   5.626 -0.1535  0.0016 -0.0384
  972POPC   C4A14498   3.329   9.277   6.095 -0.0071 -0.1624  0.2210
  972POPC   C1B14499   3.059  10.381   5.447 -0.0443 -0.3238  0.1543
  972POPC   C2B14500   3.368  10.568   5.697 -0.5376  0.0849 -0.1944
  972POPC   C3B14501   3.221  11.061   5.706  0.2207 -0.0803 -0.1662
  972POPC   C4B14502   3.273  11.391   5.432 -0.3944  0.0905  0.0880
  973POPC   NC314503  13.492  16.902   5.036 -0.0739 -0.0013  0.2253
  973POPC   PO414504  13.949  16.978   4.965  0.0966 -0.0242  0.0994
  973POPC   GL114505  13.895  16.914   5.353  0.2863 -0.1978 -0.0025
  973POPC   GL214506  13.872  17.254   5.372 -0.0341 -0.2496  0.3021
  973POPC   C1A14507  13.505  16.921   5.699 -0.3332 -0.0735 -0.2375
  973POPC   D2A14508  13.456  17.082   6.157 -0.3091 -0.0026 -0.4778
  973POPC   C3A14509  13.803  17.030   6.406  0.0255  0.0001 -0.0326
  973POPC   C4A14510  14.212  16.992   6.238 -0.1525  0.2069  0.3189
  973POPC   C1B14511  13.895  17.241   5.860  0.0479 -0.3283  0.1089
  973POPC   C2B14512  14.105  17.534   6.177 -0.0757 -0.0191  0.2895
  973POPC   C3B14513  14.236  18.011   6.422 -0.1199  0.0257 -0.0322
  973POPC   C4B14514  14.625  18.251   6.602  0.5234 -0.0696  0.3480
  974POPC   NC314515  14.585   1.177   5.336  0.0143 -0.1279  0.1770
  974POPC   PO414516  14.132   1.279   5.269 -0.2126 -0.0329 -0.2882
  974POPC   GL114517  14.115   1.118   5.597 -0.1072  0.2980 -0.2171
  974POPC   GL214518  14.297   1.380   5.765  0.3896  0.2261  0.0558
  974POPC   C1A14519  13.908   1.034   5.957 -0.2045 -0.1257 -0.4056
  974POPC   D2A14520  14.012   1.037   6.354  0.1978  0.1025 -0.0124
  974POPC   C3A14521  14.042   1.167   6.791  0.1746 -0.2497 -0.1175
  974POPC   C4A14522  13.794   1.174   7.257  0.3111  0.0485 -0.1842
  974POPC   C1B14523  14.185   1.504   6.126 -0.0716  0.0578 -0.4981
  974POPC   C2B14524  14.434   1.332   6.430  0.0238  0.0647 -0.0750
  974POPC   C3B14525  14.576   1.375   6.788  0.0600 -0.1155 -0.0098
  974POPC   C4B14526  14.758   1.462   7.081 -0.1374  0.0765  0.1149
  975POPC   NC314527   6.383  12.152   4.330 -0.1084 -0.0027 -0.1366
  975POPC   PO414528   6.490  12.384   4.796  0.2405 -0.0707  0.0849
  975POPC   GL114529   6.602  12.684   5.147  0.2911 -0.2901 -0.0677
  975POPC   GL214530   6.759  13.017   5.200  0.1008 -0.1690 -0.0132
  975POPC   C1A14531   7.065  12.592   5.387 -0.2701  0.1260 -0.2129
  975POPC   D2A14532   7.370  12.587   5.674 -0.1271 -0.3664  0.1113
  975POPC   C3A14533   7.456  12.478   6.059 -0.0862 -0.0588 -0.2212
  975POPC   C4A14534   7.487  12.331   6.468 -0.2111  0.2828 -0.1903
  975POPC   C1B14535   6.712  13.240   5.518 -0.2658 -0.0196  0.2440
  975POPC   C2B14536   6.572  13.177   5.973  0.1102  0.0661  0.2171
  975POPC   C3B14537   6.425  13.324   6.375  0.0737  0.1914  0.0967
  975POPC   C4B14538   6.649  13.337   6.761  0.1604  0.2286 -0.3658
  976POPC   NC314539   0.562  17.858   4.498 -0.2466 -0.0347  0.1232
  976POPC   PO414540   0.613  18.172   4.716  0.1831  0.1277 -0.2552
  976POPC   GL114541   0.583  18.077   5.171  0.3093 -0.3135  0.1840
  976POPC   GL214542   0.574  18.279   5.361 -0.2553 -0.3854  0.2306
  976POPC   C1A14543   0.162  18.018   5.357 -0.0375  0.0260  0.0958
  976POPC   D2A14544  -0.046  18.004   5.754  0.1055  0.0668 -0.2213
  976POPC   C3A14545   0.305  17.748   6.096  0.1197 -0.0806  0.1599
  976POPC   C4A14546   0.395  17.764   6.526  0.2888 -0.0284  0.2037
  976POPC   C1B14547   0.469  18.091   5.747 -0.0839 -0.0777  0.1614
  976POPC   C2B14548   0.694  18.119   6.178  0.4319  0.0291  0.2496
  976POPC   C3B14549   0.470  18.256   6.578  0.0862 -0.0336 -0.0929
  976POPC   C4B14550   0.228  18.368   6.906  0.3225  0.2197  0.0346
  977POPC   NC314551   4.545   2.916   5.038 -0.0570  0.0852 -0.1530
  977POPC   PO414552   4.577   2.489   4.959 -0.0954 -0.0196  0.2722
  977POPC   GL114553   4.552   2.507   5.345 -0.0431  0.5164 -0.0660
  977POPC   GL214554   4.764   2.367   5.531 -0.0262  0.0387 -0.0570
  977POPC   C1A14555   4.382   2.360   5.813  0.1339  0.0040  0.3362
  977POPC   D2A14556   4.240   2.320   6.213 -0.3151 -0.1310 -0.1666
  977POPC   C3A14557   3.882   2.461   6.258 -0.5044 -0.1416 -0.0736
  977POPC   C4A14558   3.550   2.433   6.534 -0.0780 -0.1249  0.0181
  977POPC   C1B14559   4.827   2.197   5.913 -0.0470 -0.1218  0.0362
  977POPC   C2B14560   5.191   2.223   6.125 -0.2027 -0.1034  0.1298
  977POPC   C3B14561   5.455   2.240   6.284  0.3192 -0.2569 -0.0725
  977POPC   C4B14562   5.753   2.644   6.349 -0.3887  0.0879 -0.4385
  978POPC   NC314563   0.863  14.147   4.532  0.0951  0.0565 -0.3215
  978POPC   PO414564   0.871  14.056   4.896 -0.1143  0.0479  0.1342
  978POPC   GL114565   0.634  13.909   5.217 -0.0159  0.1848  0.2603
  978POPC   GL214566   0.799  13.677   5.240 -0.1792 -0.1916 -0.1216
  978POPC   C1A14567   0.404  13.772   5.578 -0.3094 -0.3651  0.1393
  978POPC   D2A14568   0.306  13.666   6.039 -0.1627 -0.5162  0.2251
  978POPC   C3A14569   0.393  13.252   6.091  0.0347 -0.3716  0.0056
  978POPC   C4A14570   0.162  12.966   6.227 -0.1151 -0.0565 -0.0844
  978POPC   C1B14571   0.982  13.694   5.603  0.5145  0.2206 -0.1225
  978POPC   C2B14572   1.279  13.634   6.034  0.0961  0.4184 -0.0220
  978POPC   C3B14573   1.368  13.500   6.448 -0.1477  0.3710 -0.0534
  978POPC   C4B14574   1.089  13.133   6.757  0.1443  0.0785  0.2250
  979POPC   NC314575  19.776   0.900   4.786 -0.3512  0.0673  0.0956
  979POPC   PO414576  19.904   0.871   5.166  0.3078 -0.3525  0.0810
  979POPC   GL114577  20.012   0.918   5.607  0.1192 -0.2019  0.3875
  979POPC   GL214578  19.768   0.803   5.819  0.2590  0.1859  0.4115
  979POPC   C1A14579  20.272   0.652   5.795  0.1807  0.1881  0.0130
  979POPC   D2A14580  20.080   0.179   5.869 -0.0509  0.0737  0.3624
  979POPC   C3A14581  19.783  -0.117   6.025 -0.1824  0.5511  0.1561
  979POPC   C4A14582  19.854  -0.580   6.007 -0.3304 -0.0663  0.1538
  979POPC   C1B14583  19.542   1.161   6.079  0.2475 -0.0564 -0.0454
  979POPC   C2B14584  19.490   1.435   6.421  0.3331  0.0797 -0.0858
  979POPC   C3B14585  19.540   1.591   6.716 -0.2908 -0.2065 -0.0312
  979POPC   C4B14586  19.411   1.695   7.293 -0.6481 -0.1377  0.2015
  980POPC   NC314587   4.096   4.843   5.064 -0.0424  0.0250  0.2671
  980POPC   PO414588   4.465   5.173   4.999 -0.1664 -0.1469  0.0935
  980POPC   GL114589   4.473   5.278   5.408  0.2048 -0.2776  0.2697
  980POPC   GL214590   4.273   5.085   5.462  0.3222 -0.1796  0.3932
  980POPC   C1A14591   4.723   5.183   5.674  0.3244 -0.1624  0.4280
  980POPC   D2A14592   4.951   4.775   5.789 -0.0919  0.3364 -0.3468
  980POPC   C3A14593   5.286   4.595   5.576 -0.2259  0.2630 -0.1254
  980POPC   C4A14594   5.691   4.497   5.617  0.0088  0.3651 -0.1247
  980POPC   C1B14595   4.370   4.747   5.635 -0.0286 -0.1047 -0.4248
  980POPC   C2B14596   4.363   4.446   5.946 -0.2558 -0.0175  0.2493
  980POPC   C3B14597   4.612   4.769   6.211  0.0213 -0.0667 -0.3298
  980POPC   C4B14598   4.740   5.096   6.511 -0.2705 -0.0127  0.0585
  981POPC   NC314599  19.259  14.389   4.912  0.1228 -0.0383 -0.4430
  981POPC   PO414600  19.276  14.800   5.035 -0.0136  0.0035 -0.3525
  981POPC   GL114601  19.253  14.923   5.458  0.0720 -0.0147 -0.0423
  981POPC   GL214602  19.447  15.164   5.536  0.0651 -0.2796 -0.2647
  981POPC   C1A14603  19.185  14.783   5.831 -0.3319 -0.1950  0.1459
  981POPC   D2A14604  18.826  14.743   6.014 -0.0071 -0.2119  0.2136
  981POPC   C3A14605  18.500  14.499   5.862  0.3005  0.0449 -0.1767
  981POPC   C4A14606  18.436  14.155   5.606 -0.3637 -0.1545  0.0861
  981POPC   C1B14607  19.579  15.078   5.942 -0.1843  0.0555  0.0381
  981POPC   C2B14608  19.494  14.989   6.261  0.2301 -0.0924 -0.0231
  981POPC   C3B14609  19.075  14.858   6.447 -0.3164  0.1778  0.0079
  981POPC   C4B14610  18.817  15.127   6.684 -0.1552  0.0828  0.0986
  982POPC   NC314611   4.753   5.352   4.628  0.2023  0.2898  0.0939
  982POPC   PO414612   5.196   5.430   4.664  0.0615 -0.0989 -0.0639
  982POPC   GL114613   5.472   5.502   5.105 -0.1150 -0.1303  0.0371
  982POPC   GL214614   5.694   5.828   5.142  0.2472  0.1310 -0.0108
  982POPC   C1A14615   5.685   5.439   5.465  0.3742 -0.0743  0.1017
  982POPC   D2A14616   5.937   5.224   5.757 -0.2523  0.1635 -0.0276
  982POPC   C3A14617   5.878   4.808   5.903 -0.1960 -0.1350 -0.0840
  982POPC   C4A14618   5.756   4.513   6.144  0.0273  0.0406 -0.1989
  982POPC   C1B14619   5.769   5.971   5.638  0.1199 -0.1867 -0.1336
  982POPC   C2B14620   5.626   5.662   5.929 -0.2151 -0.0520  0.0017
  982POPC   C3B14621   5.515   5.636   6.350  0.1318  0.0096  0.3091
  982POPC   C4B14622   5.354   5.510   6.690  0.0698  0.0489 -0.2590
  983POPC   NC314623   5.555  11.244   4.487 -0.0143  0.1201  0.0019
  983POPC   PO414624   5.272  11.387   4.804  0.0229 -0.0162  0.2036
  983POPC   GL114625   5.044  11.363   5.223  0.0664 -0.0846  0.0202
  983POPC   GL214626   5.017  11.636   5.524 -0.0867 -0.3379 -0.0275
  983POPC   C1A14627   5.147  11.082   5.563  0.2961  0.2872 -0.0143
  983POPC   D2A14628   5.398  10.927   5.909 -0.0450 -0.1598  0.0765
  983POPC   C3A14629   5.760  10.952   5.989  0.0736 -0.2089  0.1244
  983POPC   C4A14630   6.031  10.997   6.314  0.2016  0.1685 -0.0120
  983POPC   C1B14631   5.358  11.830   5.800  0.3071 -0.4625 -0.1975
  983POPC   C2B14632   5.405  11.877   6.219 -0.1837  0.1633 -0.5055
  983POPC   C3B14633   5.563  11.871   6.473 -0.2882  0.0542 -0.6415
  983POPC   C4B14634   5.477  11.765   6.935  0.1878  0.0161  0.1130
  984YOPC   NC314635   6.721   8.508   4.966 -0.1166 -0.0782 -0.1838
  984YOPC   PO414636   6.576   8.149   4.865 -0.3588 -0.0459 -0.1719
  984YOPC   GL114637   6.498   8.129   5.291  0.4422 -0.1538  0.1678
  984YOPC   GL214638   6.492   8.243   5.514 -0.2059 -0.1892  0.0191
  984YOPC   C1A14639   6.064   8.177   5.398  0.4414 -0.0288 -0.0570
  984YOPC   D2A14640   6.079   8.048   5.838 -0.1414 -0.1013  0.1012
  984YOPC   C3A14641   5.931   8.159   6.317 -0.0043 -0.2731 -0.0782
  984YOPC   C4A14642   5.817   8.100   6.730 -0.4826 -0.0119 -0.1753
  984YOPC   C1B14643   6.584   8.293   5.850 -0.0186 -0.1323 -0.4762
  984YOPC   C2B14644   6.421   8.273   6.261 -0.2013 -0.1417  0.3028
  984YOPC   D3B14645   6.299   7.851   6.268 -0.2630  0.4725  0.1515
  984YOPC   C4B14646   6.190   7.488   6.081 -0.0411  0.0846  0.1839
  985YOPC   NC314647  13.663  14.692   5.132 -0.1429 -0.0985 -0.0172
  985YOPC   PO414648  13.248  14.789   5.163 -0.1333 -0.1167  0.0008
  985YOPC   GL114649  13.206  14.658   5.577  0.0383 -0.1229  0.3994
  985YOPC   GL214650  12.931  14.328   5.618 -0.2268  0.1457 -0.0042
  985YOPC   C1A14651  13.189  14.956   5.973 -0.4044 -0.2871  0.4243
  985YOPC   D2A14652  13.016  15.255   6.232  0.0539  0.3093  0.1024
  985YOPC   C3A14653  12.682  15.391   6.065  0.2293 -0.2040 -0.0653
  985YOPC   C4A14654  12.618  15.851   5.879  0.1153 -0.1946 -0.2863
  985YOPC   C1B14655  13.112  14.477   6.003  0.0699  0.0591  0.0936
  985YOPC   C2B14656  13.251  14.579   6.384 -0.0205  0.3223  0.1632
  985YOPC   D3B14657  13.405  14.962   6.462  0.1802  0.0916 -0.2507
  985YOPC   C4B14658  13.372  15.295   6.650  0.1092  0.0174  0.1504
  986YOPC   NC314659  11.972  16.808   4.684  0.1271 -0.0139 -0.2317
  986YOPC   PO414660  12.079  16.777   5.087 -0.0042  0.1304  0.3348
  986YOPC   GL114661  11.662  16.884   5.273  0.1121 -0.0720  0.1588
  986YOPC   GL214662  11.544  16.510   5.373 -0.1004 -0.0207  0.1497
  986YOPC   C1A14663  11.304  16.921   5.424 -0.0944  0.2162 -0.0590
  986YOPC   D2A14664  11.204  17.107   5.676  0.2930  0.1723  0.0451
  986YOPC   C3A14665  11.464  16.923   5.896  0.1320  0.1209  0.1630
  986YOPC   C4A14666  11.666  17.047   6.290 -0.1496  0.1873  0.0951
  986YOPC   C1B14667  11.215  16.302   5.381  0.0301 -0.2151 -0.1903
  986YOPC   C2B14668  10.872  16.214   5.452 -0.0892  0.1543 -0.0199
  986YOPC   D3B14669  10.593  16.263   5.783 -0.0979  0.1391 -0.1801
  986YOPC   C4B14670  10.550  16.523   6.179 -0.0596 -0.2419 -0.0952
  987YOPC   NC314671   6.454  10.201   5.054  0.1976  0.1694  0.0110
  987YOPC   PO414672   6.384  10.716   5.089 -0.0534 -0.0254 -0.0297
  987YOPC   GL114673   6.544  10.929   5.553  0.0807 -0.2640  0.2055
  987YOPC   GL214674   6.657  11.201   5.654 -0.0417 -0.0722  0.0530
  987YOPC   C1A14675   6.402  10.987   5.990 -0.0001 -0.2675  0.2375
  987YOPC   D2A14676   6.586  11.285   6.267  0.1352  0.0556  0.1503
  987YOPC   C3A14677   6.331  11.461   6.487 -0.1941 -0.1739 -0.0156
  987YOPC   C4A14678   6.369  11.703   6.835 -0.3547  0.0382  0.5259
  987YOPC   C1B14679   6.520  11.616   5.921 -0.0923  0.0640 -0.1598
  987YOPC   C2B14680   6.469  11.944   6.227  0.3066 -0.2182  0.0026
  987YOPC   D3B14681   6.519  12.432   6.290 -0.1141  0.2341 -0.0122
  987YOPC   C4B14682   6.558  12.855   6.519  0.2068  0.1193  0.1647
  988YOPC   NC314683   7.103   8.035   4.871 -0.1157  0.4454  0.1995
  988YOPC   PO414684   7.119   7.622   5.039 -0.1362 -0.1946 -0.2866
  988YOPC   GL114685   7.071   7.562   5.429  0.1882 -0.0328 -0.3063
  988YOPC   GL214686   7.333   7.431   5.533  0.4739  0.1947  0.2551
  988YOPC   C1A14687   6.733   7.232   5.590  0.0109  0.3069 -0.0640
  988YOPC   D2A14688   6.578   7.021   5.969  0.0723 -0.0895  0.0226
  988YOPC   C3A14689   6.677   7.409   6.205  0.0596  0.1548  0.0016
  988YOPC   C4A14690   6.815   7.717   6.479 -0.3541 -0.0323  0.2892
  988YOPC   C1B14691   7.546   7.230   5.789 -0.1539 -0.1878 -0.1797
  988YOPC   C2B14692   7.949   7.266   5.832 -0.0033 -0.4396  0.0712
  988YOPC   D3B14693   8.188   6.965   5.862  0.0381  0.0213 -0.0659
  988YOPC   C4B14694   7.946   6.532   5.756 -0.1457 -0.1572 -0.1031
  989YOPC   NC314695  18.955  15.361   4.791  0.0793 -0.1734  0.0916
  989YOPC   PO414696  18.845  15.826   4.966 -0.2837  0.2316 -0.1290
  989YOPC   GL114697  18.574  15.769   5.305 -0.3198 -0.1001 -0.1913
  989YOPC   GL214698  18.593  16.132   5.337  0.3468 -0.5751  0.0814
  989YOPC   C1A14699  18.566  15.624   5.822  0.0338  0.2727  0.0058
  989YOPC   D2A14700  18.468  15.456   6.200  0.0698  0.0296 -0.0186
  989YOPC   C3A14701  18.430  15.096   5.984  0.1660  0.1033 -0.2732
  989YOPC   C4A14702  18.221  14.832   5.649 -0.0064  0.0242 -0.0816
  989YOPC   C1B14703  18.515  16.104   5.725 -0.0024 -0.2165  0.0150
  989YOPC   C2B14704  18.660  16.305   6.107 -0.1167 -0.1729  0.0202
  989YOPC   D3B14705  19.054  16.187   6.375  0.0305  0.0463  0.2551
  989YOPC   C4B14706  19.268  15.894   6.684 -0.0928 -0.0226  0.1536
  990YOPC   NC314707   9.127   3.559   4.989  0.1432 -0.1635 -0.0287
  990YOPC   PO414708   9.509   3.790   4.823  0.0384  0.1976 -0.0901
  990YOPC   GL114709   9.577   3.755   5.224  0.1412  0.4847 -0.0203
  990YOPC   GL214710   9.223   3.678   5.445 -0.1542  0.2725 -0.1736
  990YOPC   C1A14711   9.676   3.832   5.697  0.1025 -0.2442 -0.1749
  990YOPC   D2A14712   9.719   3.877   6.043 -0.0390 -0.2630 -0.1917
  990YOPC   C3A14713  10.130   3.853   6.338 -0.2031 -0.0374  0.0158
  990YOPC   C4A14714  10.494   3.794   6.556  0.2561  0.1700 -0.0839
  990YOPC   C1B14715   9.046   3.498   5.755 -0.0015  0.0372  0.2339
  990YOPC   C2B14716   8.922   3.047   5.824  0.2855  0.1833  0.2411
  990YOPC   D3B14717   9.007   2.713   5.505  0.2451 -0.0410 -0.2195
  990YOPC   C4B14718   8.917   2.330   5.600 -0.3389 -0.1235 -0.1691
  991YOPC   NC314719  14.419  19.224   4.916  0.3880  0.2671  0.2901
  991YOPC   PO414720  14.210  18.834   4.840  0.1935  0.0198 -0.0092
  991YOPC   GL114721  14.028  18.739   5.210 -0.1408 -0.1011  0.3497
  991YOPC   GL214722  14.033  18.435   5.256  0.0334 -0.1420 -0.0468
  991YOPC   C1A14723  13.789  18.861   5.574  0.2290  0.5069  0.1097
  991YOPC   D2A14724  13.479  19.077   5.924 -0.1630 -0.1193  0.3242
  991YOPC   C3A14725  13.314  19.330   6.205  0.1651 -0.5440 -0.0797
  991YOPC   C4A14726  13.174  19.539   6.672  0.1872 -0.0819  0.2392
  991YOPC   C1B14727  14.059  18.402   5.717 -0.1596 -0.1314  0.0157
  991YOPC   C2B14728  14.155  18.286   6.016 -0.2840 -0.1426 -0.1651
  991YOPC   D3B14729  14.514  18.312   6.166 -0.1005 -0.1484  0.0738
  991YOPC   C4B14730  14.708  18.654   6.251  0.1467 -0.2133  0.0682
  992YOPC   NC314731   7.097  18.496   4.374 -0.1174 -0.0691 -0.1389
  992YOPC   PO414732   7.382  18.486   4.599 -0.1484 -0.2295 -0.1445
  992YOPC   GL114733   7.073  18.310   4.837 -0.2267 -0.0330 -0.1373
  992YOPC   GL214734   6.735  18.320   4.817  0.1040  0.3281  0.0701
  992YOPC   C1A14735   7.277  17.945   4.968  0.0460 -0.2670 -0.0287
  992YOPC   D2A14736   7.375  17.621   5.242 -0.0507 -0.0870 -0.1231
  992YOPC   C3A14737   7.210  17.227   5.237 -0.2632 -0.1225  0.1776
  992YOPC   C4A14738   6.959  16.775   5.260 -0.0479  0.1360 -0.1267
  992YOPC   C1B14739   6.812  18.249   5.250 -0.0128  0.1462 -0.3509
  992YOPC   C2B14740   7.146  18.016   5.490 -0.1725  0.2167  0.0955
  992YOPC   D3B14741   6.728  17.813   5.698  0.0009  0.0656  0.1714
  992YOPC   C4B14742   6.328  17.809   5.756  0.0698 -0.3104 -0.1338
  993YOPC   NC314743   9.408  18.811   4.572  0.4257  0.3228 -0.2175
  993YOPC   PO414744   9.153  18.864   4.856  0.2989 -0.1112  0.0536
  993YOPC   GL114745   9.489  18.874   5.124 -0.0305  0.0449  0.2135
  993YOPC   GL214746   9.361  19.086   5.261  0.0569 -0.0416 -0.1376
  993YOPC   C1A14747   9.682  18.602   5.413 -0.0917 -0.0471 -0.0778
  993YOPC   D2A14748  10.086  18.743   5.633  0.3454 -0.1791 -0.2798
  993YOPC   C3A14749  10.268  19.107   5.395  0.4909 -0.2619 -0.1321
  993YOPC   C4A14750  10.639  19.354   5.259  0.0363 -0.0964 -0.3227
  993YOPC   C1B14751   9.276  18.925   5.702 -0.0753 -0.0492 -0.0094
  993YOPC   C2B14752   9.612  18.757   5.946 -0.2849 -0.1789 -0.0264
  993YOPC   D3B14753   9.893  18.994   6.095 -0.4595  0.0029  0.0847
  993YOPC   C4B14754  10.228  19.203   5.879  0.2205 -0.1928  0.0224
  994YOPC   NC314755  11.036   6.327   4.866  0.3939  0.0090  0.0162
  994YOPC   PO414756  10.579   6.527   5.002 -0.2393  0.1208  0.0051
  994YOPC   GL114757  10.394   6.246   5.301 -0.1506  0.2569 -0.2776
  994YOPC   GL214758  10.638   6.164   5.467 -0.0342 -0.0683  0.1369
  994YOPC   C1A14759  10.154   5.896   5.513 -0.0140 -0.6210  0.3241
  994YOPC   D2A14760   9.784   5.978   5.853  0.0154  0.0521 -0.0639
  994YOPC   C3A14761   9.741   5.896   6.321 -0.0074  0.1662 -0.2641
  994YOPC   C4A14762  10.004   6.215   6.485 -0.1283  0.1861  0.3200
  994YOPC   C1B14763  10.455   6.176   5.853  0.3745 -0.2358  0.0125
  994YOPC   C2B14764  10.487   6.105   6.290  0.2103  0.0254  0.0859
  994YOPC   D3B14765  10.707   6.348   6.555 -0.2191 -0.0387 -0.0246
  994YOPC   C4B14766  10.964   6.652   6.760 -0.2272  0.1548 -0.1064
  995YOPC   NC314767   3.793  19.852   4.600 -0.3918  0.0334 -0.1822
  995YOPC   PO414768   3.824  20.111   4.958 -0.2133 -0.2466 -0.2897
  995YOPC   GL114769   4.018  20.098   5.227 -0.3041 -0.3451 -0.0595
  995YOPC   GL214770   3.813  20.029   5.459  0.3320 -0.2548  0.1349
  995YOPC   C1A14771   4.113  20.501   5.395 -0.0585  0.1877 -0.0688
  995YOPC   D2A14772   4.156  20.902   5.421 -0.1881 -0.1555 -0.2497
  995YOPC   C3A14773   4.222  21.083   5.716 -0.2232  0.2419  0.1837
  995YOPC   C4A14774   4.294  21.229   6.134  0.1732 -0.1666 -0.0655
  995YOPC   C1B14775   3.714  19.790   5.945  0.1396 -0.3575  0.2747
  995YOPC   C2B14776   3.995  19.527   6.249 -0.0542 -0.0829  0.0228
  995YOPC   D3B14777   4.045  19.170   6.076  0.2317 -0.2714  0.1690
  995YOPC   C4B14778   4.308  18.818   6.123 -0.2704  0.0088  0.1532
  996YOPC   NC314779   4.351   0.406   4.761  0.0857  0.2655  0.0388
  996YOPC   PO414780   4.740   0.328   4.546 -0.2132  0.0546  0.1206
  996YOPC   GL114781   4.856   0.248   4.983  0.2755  0.3002 -0.4511
  996YOPC   GL214782   5.018   0.495   5.242 -0.0192  0.0760  0.1877
  996YOPC   C1A14783   4.918   0.058   5.346 -0.2083 -0.0088  0.0588
  996YOPC   D2A14784   4.921   0.086   5.839  0.0877 -0.0911  0.2295
  996YOPC   C3A14785   4.631   0.378   6.146 -0.2968  0.0982 -0.4751
  996YOPC   C4A14786   4.513   0.804   6.224 -0.0050  0.2523 -0.0807
  996YOPC   C1B14787   4.801   0.484   5.599  0.0430 -0.2286 -0.2899
  996YOPC   C2B14788   4.477   0.667   5.754 -0.0640  0.0910 -0.4381
  996YOPC   D3B14789   4.075   0.370   5.835  0.0148 -0.0874  0.3708
  996YOPC   C4B14790   3.665   0.339   6.080 -0.1071  0.1611  0.0616
  997YOPC   NC314791  12.481  12.952   4.417  0.2315  0.0434  0.1652
  997YOPC   PO414792  12.406  12.770   4.689  0.0042  0.3597  0.0899
  997YOPC   GL114793  12.278  12.550   5.075 -0.2212 -0.0787  0.2807
  997YOPC   GL214794  12.454  12.638   5.390  0.2104  0.0583 -0.0891
  997YOPC   C1A14795  12.036  12.199   5.364  0.0823  0.2850 -0.2476
  997YOPC   D2A14796  11.642  12.182   5.581 -0.1043 -0.1372 -0.1183
  997YOPC   C3A14797  11.615  12.259   6.041 -0.1365  0.0530  0.2237
  997YOPC   C4A14798  11.306  12.416   6.264 -0.3279 -0.1324  0.0135
  997YOPC   C1B14799  12.625  12.886   5.760 -0.3924  0.0116  0.1041
  997YOPC   C2B14800  12.852  12.941   6.190 -0.1131 -0.0596 -0.2558
  997YOPC   D3B14801  12.795  12.834   6.616  0.1348 -0.1775 -0.1805
  997YOPC   C4B14802  12.901  12.680   7.012  0.0698 -0.0773  0.3224
  998YOPC   NC314803  19.816  16.517   4.345 -0.0153  0.4236 -0.1202
  998YOPC   PO414804  19.636  16.533   4.797 -0.2429  0.0863 -0.3672
  998YOPC   GL114805  19.790  16.389   5.148  0.0098  0.1685  0.0152
  998YOPC   GL214806  19.928  16.117   5.125  0.3912  0.2767  0.2391
  998YOPC   C1A14807  19.513  16.214   5.529  0.0746  0.2433 -0.1903
  998YOPC   D2A14808  19.202  16.138   5.849  0.0049  0.0060  0.3269
  998YOPC   C3A14809  18.963  15.881   5.922  0.3303  0.3342 -0.1154
  998YOPC   C4A14810  18.710  15.862   6.279  0.0257  0.0280 -0.0221
  998YOPC   C1B14811  19.826  15.809   5.447 -0.1367 -0.1066 -0.1010
  998YOPC   C2B14812  19.611  15.669   5.812 -0.2102  0.2117 -0.2243
  998YOPC   D3B14813  19.591  15.838   6.267  0.0368 -0.0162  0.1378
  998YOPC   C4B14814  19.863  16.027   6.306 -0.2199  0.1944 -0.1194
  999YOPC   NC314815   0.252  19.539   5.063  0.0010 -0.0888  0.2090
  999YOPC   PO414816   0.276  19.958   5.108  0.5040  0.2554  0.0305
  999YOPC   GL114817   0.483  20.006   5.479  0.1007  0.1644 -0.2688
  999YOPC   GL214818   0.811  20.047   5.417  0.1717 -0.0721 -0.0385
  999YOPC   C1A14819   0.656  20.106   5.897 -0.3069  0.1671 -0.0003
  999YOPC   D2A14820   0.366  20.315   6.274 -0.0262  0.2011  0.0181
  999YOPC   C3A14821   0.472  20.460   6.653 -0.0055  0.0883 -0.2763
  999YOPC   C4A14822   0.390  20.808   6.936  0.0147 -0.1692 -0.0570
  999YOPC   C1B14823   0.906  20.445   5.604 -0.1290 -0.1247  0.2846
  999YOPC   C2B14824   0.830  20.570   6.033 -0.1557 -0.2431  0.1059
  999YOPC   D3B14825   0.563  20.876   6.189  0.0324 -0.1744 -0.0446
  999YOPC   C4B14826   0.209  21.061   6.177 -0.0202 -0.1531  0.0842
 1000YOPC   NC314827  12.397  16.105   5.070  0.0443 -0.3242  0.1774
 1000YOPC   PO414828  12.815  16.173   5.242  0.1118  0.1576 -0.0295
 1000YOPC   GL114829  12.839  16.206   5.567  0.0426  0.0202  0.0071
 1000YOPC   GL214830  13.133  16.020   5.548  0.1162 -0.2811  0.0249
 1000YOPC   C1A14831  13.061  16.641   5.663  0.0512 -0.1307  0.1432
 1000YOPC   D2A14832  13.046  16.911   5.965 -0.3051  0.1652  0.0721
 1000YOPC   C3A14833  12.664  16.885   6.257 -0.5169  0.0518 -0.0468
 1000YOPC   C4A14834  12.479  16.719   6.602  0.2243  0.1763 -0.1693
 1000YOPC   C1B14835  13.256  16.179   5.885  0.1604  0.4108 -0.4803
 1000YOPC   C2B14836  13.341  16.549   6.120 -0.1496  0.2242  0.0540
 1000YOPC   D3B14837  13.268  16.670   6.528 -0.2224  0.1099  0.3145
 1000YOPC   C4B14838  12.974  16.668   6.665 -0.2445  0.3893 -0.2324
 1001YOPC   NC314839   0.344  14.951   4.833  0.0840 -0.2482  0.2142
 1001YOPC   PO414840   0.793  14.956   4.921  0.1524 -0.1881 -0.1257
 1001YOPC   GL114841   0.854  14.747   5.165  0.2609  0.1065  0.2013
 1001YOPC   GL214842   0.696  14.444   5.208 -0.0295 -0.1837  0.0626
 1001YOPC   C1A14843   1.076  14.699   5.517  0.0911 -0.0523 -0.0911
 1001YOPC   D2A14844   1.023  15.048   5.822 -0.1129  0.4126 -0.4070
 1001YOPC   C3A14845   1.029  15.385   6.009  0.1005 -0.0867  0.1134
 1001YOPC   C4A14846   0.735  15.760   5.995 -0.0541 -0.0360  0.1242
 1001YOPC   C1B14847   0.630  14.629   5.624 -0.0834 -0.1953  0.1898
 1001YOPC   C2B14848   0.691  14.631   5.964 -0.1575 -0.0289  0.0307
 1001YOPC   D3B14849   1.062  14.559   6.174  0.1778 -0.2069 -0.2081
 1001YOPC   C4B14850   1.367  14.595   6.408 -0.0935 -0.0952  0.4517
 1002YOPC   NC314851  16.167  10.436   4.893  0.1209 -0.0897 -0.0254
 1002YOPC   PO414852  16.020  10.092   5.078  0.0766  0.1499 -0.0505
 1002YOPC   GL114853  15.898  10.117   5.490  0.0504  0.2571  0.0899
 1002YOPC   GL214854  16.124  10.027   5.776  0.1766  0.5070  0.1985
 1002YOPC   C1A14855  15.746  10.295   5.880  0.1587  0.4073  0.0934
 1002YOPC   D2A14856  15.642  10.675   6.303 -0.1720  0.1296  0.3184
 1002YOPC   C3A14857  15.273  10.617   6.608  0.2182 -0.0914 -0.2334
 1002YOPC   C4A14858  15.258  10.437   6.991 -0.0982 -0.0469 -0.2791
 1002YOPC   C1B14859  16.016  10.000   6.229 -0.1522  0.1737  0.3841
 1002YOPC   C2B14860  16.161   9.923   6.548 -0.0018  0.0555  0.1494
 1002YOPC   D3B14861  15.878   9.900   6.842  0.2234  0.0018  0.1684
 1002YOPC   C4B14862  15.464  10.038   6.854 -0.0982 -0.1265 -0.0645
 1003YOPC   NC314863   1.558   9.885   4.541  0.0424  0.0589 -0.0295
 1003YOPC   PO414864   1.244   9.618   4.853  0.0642 -0.1901  0.0618
 1003YOPC   GL114865   1.233   9.624   5.244  0.1084  0.1229 -0.2673
 1003YOPC   GL214866   1.324   9.393   5.420  0.3442  0.0965 -0.2784
 1003YOPC   C1A14867   1.320   9.918   5.505 -0.1910  0.1845  0.0488
 1003YOPC   D2A14868   1.335  10.199   5.896 -0.1934  0.1931 -0.0025
 1003YOPC   C3A14869   1.306   9.900   6.281  0.0837  0.0529 -0.2242
 1003YOPC   C4A14870   1.437   9.463   6.298  0.2189  0.1497  0.4446
 1003YOPC   C1B14871   1.255   9.368   5.864  0.1902  0.1484 -0.0380
 1003YOPC   C2B14872   1.085   9.090   6.144  0.5409 -0.0359  0.0942
 1003YOPC   D3B14873   1.113   8.683   6.441 -0.1621  0.0760  0.0753
 1003YOPC   C4B14874   1.154   8.344   6.685  0.0531  0.1155  0.0840
 1004YOPC   NC314875  13.728   7.559   4.894  0.2579  0.1675  0.2176
 1004YOPC   PO414876  13.353   7.837   5.027  0.1415 -0.1756 -0.0455
 1004YOPC   GL114877  12.976   7.946   5.292  0.3103  0.2302 -0.1477
 1004YOPC   GL214878  13.243   7.930   5.506 -0.1005 -0.0444 -0.1461
 1004YOPC   C1A14879  12.920   8.409   5.510 -0.0022  0.2474 -0.1679
 1004YOPC   D2A14880  13.111   8.551   5.943 -0.0588 -0.0547  0.0245
 1004YOPC   C3A14881  12.887   8.724   6.269  0.0196 -0.2264 -0.1200
 1004YOPC   C4A14882  12.786   8.804   6.732  0.2569  0.1839  0.1156
 1004YOPC   C1B14883  12.997   8.069   5.856 -0.1932 -0.1452  0.1499
 1004YOPC   C2B14884  12.653   8.271   6.038 -0.1315 -0.0242  0.2736
 1004YOPC   D3B14885  12.400   8.020   6.240  0.2673  0.0368 -0.0457
 1004YOPC   C4B14886  12.164   7.709   6.385 -0.0984 -0.1097  0.5429
 1005YOPC   NC314887   2.144  19.730   5.159  0.0956  0.1531  0.3119
 1005YOPC   PO414888   2.600  19.727   5.145 -0.0381 -0.2544  0.2021
 1005YOPC   GL114889   2.639  19.943   5.425  0.1151 -0.0987 -0.0261
 1005YOPC   GL214890   2.694  20.245   5.410 -0.1454 -0.1124 -0.0047
 1005YOPC   C1A14891   2.851  20.005   5.803 -0.1105 -0.0390 -0.0076
 1005YOPC   D2A14892   3.271  20.083   5.885 -0.0732  0.0380 -0.3214
 1005YOPC   C3A14893   3.331  19.863   6.276  0.0514 -0.0677  0.0500
 1005YOPC   C4A14894   3.761  19.909   6.472  0.1944  0.1449 -0.1424
 1005YOPC   C1B14895   2.990  20.503   5.747 -0.2128  0.0166  0.3914
 1005YOPC   C2B14896   3.361  20.608   5.846 -0.0497 -0.0911  0.5213
 1005YOPC   D3B14897   3.719  20.603   5.661  0.4574 -0.0771  0.1966
 1005YOPC   C4B14898   3.973  20.738   6.004 -0.1409  0.0792  0.0499
 1006YOPC   NC314899  15.460   2.243   5.242 -0.0475  0.1698 -0.2130
 1006YOPC   PO414900  15.473   2.682   5.339 -0.0994 -0.2131  0.0041
 1006YOPC   GL114901  15.632   2.480   5.729 -0.0512 -0.1512  0.1067
 1006YOPC   GL214902  15.489   2.181   5.726 -0.0107  0.0223  0.2243
 1006YOPC   C1A14903  15.874   2.744   6.033 -0.0925  0.2284  0.0686
 1006YOPC   D2A14904  16.295   2.917   6.054 -0.1287  0.1876  0.1890
 1006YOPC   C3A14905  16.592   2.618   6.087 -0.3092  0.0209 -0.0735
 1006YOPC   C4A14906  16.692   2.277   5.981  0.0113  0.0323  0.2685
 1006YOPC   C1B14907  15.363   2.368   6.191 -0.1162 -0.0015 -0.2973
 1006YOPC   C2B14908  15.221   2.415   6.641  0.1138  0.4482  0.1041
 1006YOPC   D3B14909  15.471   2.250   7.053  0.0457 -0.2439 -0.0520
 1006YOPC   C4B14910  15.614   2.100   7.426 -0.3367 -0.2399  0.0618
 1007YOPC   NC314911   3.946   9.904   4.613  0.4976 -0.2327  0.3988
 1007YOPC   PO414912   3.450   9.891   4.550  0.0506 -0.0214  0.1551
 1007YOPC   GL114913   3.636   9.672   4.952 -0.1350 -0.1072 -0.0291
 1007YOPC   GL214914   3.483   9.446   5.021  0.1225 -0.1386  0.0713
 1007YOPC   C1A14915   3.894   9.752   5.277  0.2275  0.0522  0.3370
 1007YOPC   D2A14916   3.852   9.735   5.648  0.0981 -0.0538  0.1447
 1007YOPC   C3A14917   4.190  10.092   5.751  0.2754 -0.2184  0.0283
 1007YOPC   C4A14918   4.120  10.573   5.600 -0.0706 -0.0029 -0.0005
 1007YOPC   C1B14919   3.716   9.244   5.361  0.1241  0.0363  0.0875
 1007YOPC   C2B14920   3.761   9.190   5.790 -0.1572 -0.1029 -0.1938
 1007YOPC   D3B14921   3.705   9.601   6.048  0.0543  0.3117  0.1502
 1007YOPC   C4B14922   3.486   9.656   6.444 -0.1137 -0.3688 -0.0758
 1008YOPC   NC314923   3.409  11.347   4.587 -0.2849 -0.1663  0.2629
 1008YOPC   PO414924   3.632  10.963   4.844  0.0156 -0.2875 -0.0929
 1008YOPC   GL114925   3.832  11.065   5.369 -0.0840 -0.0118  0.2381
 1008YOPC   GL214926   3.828  11.441   5.353 -0.1992  0.3230 -0.0381
 1008YOPC   C1A14927   3.683  11.210   5.737  0.3410 -0.3032  0.1645
 1008YOPC   D2A14928   3.580  11.077   6.259 -0.2207 -0.0521  0.0627
 1008YOPC   C3A14929   3.640  10.694   6.634  0.2606  0.0911  0.1728
 1008YOPC   C4A14930   4.003  10.402   6.635 -0.0629 -0.2946 -0.1641
 1008YOPC   C1B14931   4.168  11.324   5.678  0.0431 -0.2661  0.1769
 1008YOPC   C2B14932   4.445  11.004   6.023 -0.0746  0.0291 -0.1781
 1008YOPC   D3B14933   4.696  10.760   6.187  0.0261  0.1146  0.0236
 1008YOPC   C4B14934   5.052  10.630   6.403  0.0316 -0.4601  0.1074
 1009YOPC   NC314935   1.170   3.785   4.480 -0.3724  0.1099  0.1362
 1009YOPC   PO414936   0.999   3.909   4.947 -0.0373  0.1130 -0.0181
 1009YOPC   GL114937   0.845   3.921   5.377  0.0905 -0.1367 -0.0249
 1009YOPC   GL214938   0.882   4.156   5.528 -0.0815 -0.2750  0.2441
 1009YOPC   C1A14939   0.925   3.756   5.853 -0.2581  0.0925  0.2453
 1009YOPC   D2A14940   1.197   3.948   6.232 -0.0971 -0.1989 -0.0800
 1009YOPC   C3A14941   1.268   3.569   6.424  0.3239 -0.1193  0.0311
 1009YOPC   C4A14942   1.124   3.362   6.640  0.1588  0.0028 -0.0575
 1009YOPC   C1B14943   0.678   4.550   5.558  0.0488 -0.0943 -0.3090
 1009YOPC   C2B14944   0.451   4.971   5.646  0.0868 -0.2509  0.2845
 1009YOPC   D3B14945   0.373   5.145   6.079 -0.1359 -0.2972 -0.0086
 1009YOPC   C4B14946   0.298   5.321   6.526  0.1972  0.4385  0.0865
 1010YOPC   NC314947   0.058   7.120   4.800  0.1428  0.2809 -0.1087
 1010YOPC   PO414948  -0.083   6.829   5.152  0.1164 -0.1783  0.2517
 1010YOPC   GL114949  -0.151   6.832   5.571  0.1016  0.3373  0.0318
 1010YOPC   GL214950  -0.412   6.584   5.667  0.0760  0.0523  0.2973
 1010YOPC   C1A14951   0.079   6.963   5.952  0.3184  0.2227 -0.0648
 1010YOPC   D2A14952   0.331   7.006   6.236  0.4376 -0.0238 -0.0080
 1010YOPC   C3A14953   0.701   7.165   6.196  0.5555  0.1779  0.2660
 1010YOPC   C4A14954   1.077   7.295   5.951  0.1387 -0.4583  0.1916
 1010YOPC   C1B14955  -0.332   6.583   6.067 -0.0647  0.0109  0.1676
 1010YOPC   C2B14956   0.063   6.534   6.211  0.0163  0.1477  0.0048
 1010YOPC   D3B14957   0.160   6.140   6.271  0.0239 -0.4364 -0.2217
 1010YOPC   C4B14958   0.244   5.880   6.557 -0.3596  0.4227  0.3335
 1011YOPC   NC314959   0.554  10.016   4.429  0.3391  0.0846  0.2639
 1011YOPC   PO414960   0.217  10.336   4.540 -0.0756  0.2343  0.0514
 1011YOPC   GL114961   0.088  10.761   4.786  0.0048  0.0023 -0.3939
 1011YOPC   GL214962  -0.230  10.683   5.055 -0.0245 -0.1758  0.1197
 1011YOPC   C1A14963   0.192  10.944   5.238 -0.2468  0.2190  0.4423
 1011YOPC   D2A14964   0.211  11.032   5.592 -0.0834 -0.2154 -0.0454
 1011YOPC   C3A14965   0.133  10.710   5.811  0.0002 -0.2336  0.1718
 1011YOPC   C4A14966  -0.193  10.419   5.975 -0.0611 -0.0323  0.0133
 1011YOPC   C1B14967  -0.317  10.873   5.496 -0.0678 -0.0565  0.0136
 1011YOPC   C2B14968  -0.315  11.262   5.729 -0.0598 -0.0133  0.1256
 1011YOPC   D3B14969  -0.554  11.503   5.960 -0.1539  0.0458 -0.1465
 1011YOPC   C4B14970  -0.730  11.266   6.283 -0.0286  0.3655 -0.0494
 1012YOPC   NC314971   5.353   4.866   4.669 -0.0026  0.1950  0.1828
 1012YOPC   PO414972   5.829   4.733   4.700 -0.0462 -0.2133 -0.1915
 1012YOPC   GL114973   5.751   4.728   5.095 -0.1671 -0.1455 -0.1006
 1012YOPC   GL214974   5.773   4.395   5.130  0.0012 -0.2981  0.2235
 1012YOPC   C1A14975   5.544   4.918   5.347 -0.0439  0.0879 -0.2213
 1012YOPC   D2A14976   5.082   5.007   5.319 -0.0090  0.1138 -0.0208
 1012YOPC   C3A14977   5.163   5.422   5.458  0.0610  0.0107  0.2636
 1012YOPC   C4A14978   5.320   5.902   5.431  0.3697  0.0586  0.0309
 1012YOPC   C1B14979   6.180   4.654   5.339 -0.2642  0.1304  0.0871
 1012YOPC   C2B14980   6.432   4.810   5.709  0.3180 -0.2359 -0.1934
 1012YOPC   D3B14981   6.233   5.008   6.142 -0.2713  0.0106  0.1219
 1012YOPC   C4B14982   5.979   5.439   6.242  0.3620 -0.1287  0.0710
 1013YOPC   NC314983  17.153   5.391   4.897  0.0339  0.2459  0.0377
 1013YOPC   PO414984  16.733   5.363   5.172 -0.0992  0.1834 -0.1596
 1013YOPC   GL114985  16.662   5.366   5.625 -0.1605 -0.0594  0.0231
 1013YOPC   GL214986  16.355   5.461   5.750 -0.1515  0.1277  0.2122
 1013YOPC   C1A14987  16.975   5.133   5.805  0.1514  0.1442 -0.2185
 1013YOPC   D2A14988  16.986   4.570   5.782  0.2409  0.1693 -0.4028
 1013YOPC   C3A14989  16.620   4.411   5.941  0.4066 -0.1411  0.1200
 1013YOPC   C4A14990  16.396   4.218   5.579  0.1809 -0.0211  0.1108
 1013YOPC   C1B14991  16.255   5.393   6.149 -0.0637 -0.2371  0.0288
 1013YOPC   C2B14992  15.962   5.524   6.506  0.0754 -0.0563 -0.1778
 1013YOPC   D3B14993  16.117   5.334   6.919 -0.2081 -0.0654  0.2169
 1013YOPC   C4B14994  16.542   5.125   7.176 -0.0657 -0.0038  0.2000
 1014YOPC   NC314995  10.332   5.637   4.436  0.1102  0.3286  0.0766
 1014YOPC   PO414996  10.234   5.343   4.740 -0.4033 -0.0452 -0.1105
 1014YOPC   GL114997  10.061   5.198   5.201 -0.1964 -0.4177  0.0978
 1014YOPC   GL214998   9.802   5.284   5.264  0.0156 -0.0605  0.1808
 1014YOPC   C1A14999  10.338   5.423   5.522  0.3903 -0.1052 -0.2146
 1014YOPC   D2A15000  10.555   5.660   5.989  0.0003 -0.2326 -0.3302
 1014YOPC   C3A15001  10.380   5.640   6.366  0.0345 -0.1463 -0.2531
 1014YOPC   C4A15002  10.157   5.626   6.704 -0.0420 -0.0647  0.0726
 1014YOPC   C1B15003   9.791   5.259   5.637  0.2399 -0.0768 -0.0768
 1014YOPC   C2B15004   9.970   5.513   5.990  0.0119  0.4446  0.1660
 1014YOPC   D3B15005   9.832   5.346   6.378 -0.0304 -0.0247 -0.0440
 1014YOPC   C4B15006   9.518   5.170   6.734  0.0791 -0.0429  0.1359
 1015YOPC   NC315007   5.582  19.331   4.201 -0.1251  0.0060  0.2460
 1015YOPC   PO415008   5.703  19.239   4.669  0.1396  0.0309 -0.3110
 1015YOPC   GL115009   5.532  19.460   5.085 -0.1034  0.1803  0.2202
 1015YOPC   GL215010   5.308  19.573   5.024 -0.1808  0.0812 -0.2279
 1015YOPC   C1A15011   5.479  19.515   5.503 -0.2946  0.1531 -0.0390
 1015YOPC   D2A15012   5.175  19.512   5.831  0.0160 -0.1233  0.0493
 1015YOPC   C3A15013   4.717  19.472   5.674  0.0124 -0.0267 -0.2029
 1015YOPC   C4A15014   4.375  19.220   5.749 -0.2313 -0.2757 -0.1980
 1015YOPC   C1B15015   4.926  19.413   5.218 -0.1622 -0.1867  0.2622
 1015YOPC   C2B15016   4.551  19.495   5.200  0.0843  0.0683  0.0673
 1015YOPC   D3B15017   4.483  19.848   5.247 -0.0276  0.1396 -0.3072
 1015YOPC   C4B15018   4.479  20.111   5.532  0.0141 -0.0910 -0.6614
 1016YOPC   NC315019  16.568  16.620   5.299  0.0277  0.2556  0.1653
 1016YOPC   PO415020  16.123  16.826   5.162 -0.2552 -0.1302  0.1686
 1016YOPC   GL115021  16.146  16.982   5.642  0.1725 -0.1425  0.2406
 1016YOPC   GL215022  16.459  17.045   5.634  0.0057  0.1205  0.2478
 1016YOPC   C1A15023  15.993  16.805   6.016  0.0080 -0.2352  0.0714
 1016YOPC   D2A15024  15.866  16.489   6.357 -0.0797 -0.0856  0.1061
 1016YOPC   C3A15025  15.778  16.602   6.795 -0.1263 -0.2753 -0.2362
 1016YOPC   C4A15026  15.935  16.379   7.085  0.0309 -0.1125 -0.3428
 1016YOPC   C1B15027  16.538  16.845   6.046 -0.0135 -0.0281 -0.1073
 1016YOPC   C2B15028  16.738  16.707   6.408  0.2773 -0.2439  0.4360
 1016YOPC   D3B15029  16.665  16.995   6.698 -0.1254  0.1971 -0.3786
 1016YOPC   C4B15030  16.522  16.899   7.123  0.0397  0.1117  0.1071
 1017YOPC   NC315031  12.860  17.108   4.998  0.1237  0.3375  0.1895
 1017YOPC   PO415032  13.228  17.343   4.883 -0.1081 -0.1467 -0.1198
 1017YOPC   GL115033  13.193  17.253   5.385 -0.1404 -0.2072 -0.3411
 1017YOPC   GL215034  12.867  17.124   5.508 -0.2484  0.0919 -0.0598
 1017YOPC   C1A15035  13.538  17.497   5.650  0.1364 -0.2177  0.0921
 1017YOPC   D2A15036  13.548  17.546   6.081  0.0237  0.1777  0.1977
 1017YOPC   C3A15037  13.230  17.684   6.239  0.1458 -0.1290  0.0172
 1017YOPC   C4A15038  12.940  18.054   6.526  0.1552  0.1801  0.0859
 1017YOPC   C1B15039  12.446  17.105   5.768  0.0245 -0.3123 -0.1697
 1017YOPC   C2B15040  12.146  17.155   6.071  0.3060  0.0400 -0.0839
 1017YOPC   D3B15041  12.410  17.313   6.460  0.1820 -0.0210 -0.0034
 1017YOPC   C4B15042  12.801  17.554   6.576 -0.0951 -0.0708 -0.4080
 1018YOPC   NC315043  11.029   5.699   5.183  0.3510 -0.1015  0.0303
 1018YOPC   PO415044  11.181   5.951   5.140 -0.3723 -0.0821  0.3181
 1018YOPC   GL115045  11.177   6.358   5.472 -0.1272  0.0719  0.0630
 1018YOPC   GL215046  11.073   6.653   5.223 -0.1357 -0.0675  0.0067
 1018YOPC   C1A15047  11.048   6.404   5.828  0.0646 -0.0773  0.0495
 1018YOPC   D2A15048  10.752   6.483   6.037 -0.0020  0.3086 -0.3850
 1018YOPC   C3A15049  10.325   6.671   5.948 -0.5180  0.1197  0.0288
 1018YOPC   C4A15050   9.976   6.815   5.792 -0.0227  0.2828  0.0237
 1018YOPC   C1B15051  11.037   6.975   5.450 -0.3713  0.3890 -0.1853
 1018YOPC   C2B15052  10.899   7.286   5.721 -0.4702 -0.1643  0.2307
 1018YOPC   D3B15053  10.817   7.094   6.096 -0.0225  0.3509  0.1358
 1018YOPC   C4B15054  10.640   6.823   6.424 -0.2458 -0.3404  0.1689
 1019YOPC   NC315055  14.486  12.329   5.042  0.2133  0.0517  0.3663
 1019YOPC   PO415056  14.047  12.117   5.048  0.1179  0.0539 -0.0797
 1019YOPC   GL115057  13.972  11.980   5.415 -0.3095 -0.0324  0.0382
 1019YOPC   GL215058  13.654  11.881   5.507  0.0215 -0.3389  0.0085
 1019YOPC   C1A15059  14.001  12.223   5.834  0.0988  0.0806 -0.1266
 1019YOPC   D2A15060  13.876  12.560   6.192  0.1561  0.1235  0.1285
 1019YOPC   C3A15061  13.515  12.828   6.177  0.0842  0.1387 -0.0064
 1019YOPC   C4A15062  13.280  13.034   6.446  0.2813 -0.0167 -0.3057
 1019YOPC   C1B15063  13.738  11.763   5.962 -0.2780  0.1388  0.2812
 1019YOPC   C2B15064  13.625  12.062   6.345  0.0718 -0.1315 -0.0633
 1019YOPC   D3B15065  14.013  12.281   6.594 -0.0701 -0.2388 -0.4431
 1019YOPC   C4B15066  14.288  12.572   6.534  0.4307  0.0747  0.2737
 1020YOPC   NC315067  16.153  19.635   4.974 -0.0710 -0.1210  0.5681
 1020YOPC   PO415068  15.722  19.669   5.129  0.3153 -0.1055 -0.6311
 1020YOPC   GL115069  15.498  19.585   5.539  0.1950  0.2226  0.1586
 1020YOPC   GL215070  15.614  19.205   5.695 -0.0598  0.3239  0.0194
 1020YOPC   C1A15071  15.322  19.687   6.060 -0.0760 -0.0121 -0.0162
 1020YOPC   D2A15072  15.245  19.373   6.394 -0.0174 -0.1367  0.1464
 1020YOPC   C3A15073  15.586  19.456   6.758 -0.0502 -0.3746  0.1229
 1020YOPC   C4A15074  15.847  19.204   7.050 -0.1394  0.0212  0.5519
 1020YOPC   C1B15075  15.668  19.337   6.127 -0.4820 -0.0452 -0.2388
 1020YOPC   C2B15076  16.015  19.277   6.580  0.1336  0.0349  0.1646
 1020YOPC   D3B15077  16.184  18.842   6.664  0.0203 -0.2463  0.2215
 1020YOPC   C4B15078  16.484  18.653   6.948  0.0220 -0.2539 -0.0555
 1021YOPC   NC315079  12.475  18.047   4.933  0.1397 -0.2828  0.1281
 1021YOPC   PO415080  12.573  17.539   4.880  0.1263  0.2216  0.4847
 1021YOPC   GL115081  12.622  17.693   5.377  0.0396  0.0188  0.4681
 1021YOPC   GL215082  12.552  18.014   5.461 -0.2005 -0.1579  0.0007
 1021YOPC   C1A15083  12.976  17.688   5.613 -0.4432 -0.1602  0.1142
 1021YOPC   D2A15084  13.080  17.378   5.840 -0.0933 -0.2770 -0.2239
 1021YOPC   C3A15085  12.698  17.428   6.057  0.3338 -0.0209 -0.0740
 1021YOPC   C4A15086  12.334  17.572   5.843  0.1369 -0.2275 -0.0982
 1021YOPC   C1B15087  12.528  18.306   5.729 -0.2187  0.4916  0.0899
 1021YOPC   C2B15088  12.315  18.570   6.107 -0.1432 -0.2230 -0.2797
 1021YOPC   D3B15089  12.285  19.017   6.126  0.1056 -0.1308 -0.3008
 1021YOPC   C4B15090  12.289  19.395   6.364 -0.0598  0.1159  0.3048
 1022YOPC   NC315091   3.386  11.935   4.603  0.2073  0.2871  0.0890
 1022YOPC   PO415092   3.553  12.152   4.989  0.0068  0.0003  0.1037
 1022YOPC   GL115093   3.280  12.209   5.223  0.1069 -0.0251 -0.2604
 1022YOPC   GL215094   3.152  11.916   5.245 -0.2619  0.1118 -0.3429
 1022YOPC   C1A15095   3.313  12.116   5.693  0.0392 -0.1060 -0.2880
 1022YOPC   D2A15096   3.330  12.267   6.094 -0.2313 -0.0149 -0.3886
 1022YOPC   C3A15097   3.273  12.526   6.514  0.0267  0.2746 -0.0694
 1022YOPC   C4A15098   3.156  12.989   6.597 -0.1330 -0.2311  0.2008
 1022YOPC   C1B15099   2.821  11.563   5.257 -0.3363 -0.1212  0.1984
 1022YOPC   C2B15100   2.774  11.411   5.615 -0.5364  0.0558  0.2445
 1022YOPC   D3B15101   2.706  11.556   6.014 -0.3906 -0.0710 -0.0182
 1022YOPC   C4B15102   2.550  11.649   6.428  0.0616  0.0591  0.0059
 1023YOPC   NC315103   2.917   5.571   4.204  0.2741  0.5891  0.1589
 1023YOPC   PO415104   2.851   5.666   4.629 -0.0579 -0.1529 -0.1178
 1023YOPC   GL115105   2.671   5.295   4.877  0.1228 -0.0329  0.1010
 1023YOPC   GL215106   2.780   4.957   4.894 -0.0762  0.0499  0.2960
 1023YOPC   C1A15107   2.509   5.135   5.251  0.2215  0.0821 -0.0832
 1023YOPC   D2A15108   2.791   5.061   5.601 -0.1190  0.3345  0.1877
 1023YOPC   C3A15109   2.808   4.629   5.794  0.1686 -0.0217 -0.1891
 1023YOPC   C4A15110   3.012   4.170   5.889 -0.1000 -0.4716 -0.4168
 1023YOPC   C1B15111   2.816   4.650   5.227 -0.0045  0.1800 -0.0060
 1023YOPC   C2B15112   3.148   4.315   5.219  0.5282 -0.1186  0.2077
 1023YOPC   D3B15113   3.415   4.422   5.604  0.1642  0.1323  0.0002
 1023YOPC   C4B15114   3.471   4.474   5.997  0.1460 -0.0805 -0.0593
 1024YOPC   NC315115  18.864  12.068   4.833 -0.0357  0.0827 -0.1566
 1024YOPC   PO415116  18.410  12.017   4.789  0.0690 -0.1303  0.1055
 1024YOPC   GL115117  18.606  11.908   5.222 -0.2809  0.2187  0.0108
 1024YOPC   GL215118  18.921  11.889   5.408 -0.2670 -0.1887 -0.2995
 1024YOPC   C1A15119  18.659  11.425   5.401  0.0743 -0.0392 -0.0056
 1024YOPC   D2A15120  18.803  10.881   5.394 -0.0890  0.1727  0.2178
 1024YOPC   C3A15121  18.684  10.671   5.832  0.1600  0.1400 -0.0127
 1024YOPC   C4A15122  18.471  10.401   6.113 -0.0439  0.0032  0.2777
 1024YOPC   C1B15123  18.740  11.712   5.857 -0.2200 -0.3145  0.3728
 1024YOPC   C2B15124  18.923  11.679   6.216 -0.0355  0.2217 -0.2698
 1024YOPC   D3B15125  19.044  12.042   6.460  0.1457 -0.3054  0.2570
 1024YOPC   C4B15126  19.028  12.200   6.824 -0.0615 -0.0172 -0.0364
 1025YOPC   NC315127  12.652  19.806   4.640 -0.0889 -0.1913  0.0511
 1025YOPC   PO415128  12.350  19.632   5.014 -0.2500  0.1438 -0.1150
 1025YOPC   GL115129  12.118  19.711   5.242  0.2694 -0.2452  0.1174
 1025YOPC   GL215130  12.178  19.990   5.354  0.1172  0.3249 -0.0547
 1025YOPC   C1A15131  11.792  19.367   5.372 -0.0394  0.1501 -0.0277
 1025YOPC   D2A15132  11.483  19.271   5.566  0.1171 -0.0708  0.0056
 1025YOPC   C3A15133  11.660  19.333   6.028  0.1167 -0.0941 -0.1018
 1025YOPC   C4A15134  11.361  19.248   6.348 -0.2715 -0.3299  0.0977
 1025YOPC   C1B15135  12.425  19.998   5.779 -0.0312 -0.0007  0.0426
 1025YOPC   C2B15136  12.320  19.888   6.146 -0.2638 -0.1252 -0.1204
 1025YOPC   D3B15137  11.891  19.794   6.191 -0.2768 -0.1183 -0.2409
 1025YOPC   C4B15138  11.509  19.926   6.223 -0.2230 -0.0912 -0.0833
 1026YOPC   NC315139   6.832   7.286   4.803 -0.3927 -0.0633  0.2430
 1026YOPC   PO415140   7.217   6.942   4.756 -0.2036 -0.1225  0.4375
 1026YOPC   GL115141   7.270   6.758   5.107  0.2956 -0.2014 -0.1832
 1026YOPC   GL215142   7.197   6.405   5.291  0.0625  0.0999  0.4179
 1026YOPC   C1A15143   7.484   6.780   5.508 -0.1001 -0.2076 -0.3234
 1026YOPC   D2A15144   7.539   6.765   5.978 -0.0674  0.0590  0.2102
 1026YOPC   C3A15145   7.421   6.869   6.470 -0.1110  0.0887 -0.0862
 1026YOPC   C4A15146   7.312   6.607   6.854 -0.1207 -0.0846  0.4385
 1026YOPC   C1B15147   7.259   6.419   5.749  0.0135 -0.1034 -0.0734
 1026YOPC   C2B15148   7.075   6.627   6.173 -0.0096 -0.0144 -0.0675
 1026YOPC   D3B15149   6.933   6.387   6.431  0.1894 -0.4437  0.1560
 1026YOPC   C4B15150   6.501   6.306   6.663  0.2971  0.1703  0.2903
 1027YOPC   NC315151   5.686   5.719   4.575  0.2197  0.1987  0.1982
 1027YOPC   PO415152   6.101   5.568   4.522 -0.1291 -0.0363 -0.0626
 1027YOPC   GL115153   6.091   5.460   5.005  0.1366 -0.1802  0.0725
 1027YOPC   GL215154   6.059   5.151   5.258  0.1778  0.1368 -0.0516
 1027YOPC   C1A15155   6.099   5.740   5.341  0.0434 -0.1119  0.2390
 1027YOPC   D2A15156   6.249   6.144   5.527  0.2362  0.0133  0.6447
 1027YOPC   C3A15157   6.190   6.163   5.969  0.1576 -0.0831 -0.0883
 1027YOPC   C4A15158   6.174   5.876   6.379 -0.0485  0.4412 -0.2827
 1027YOPC   C1B15159   6.368   5.309   5.528  0.2236  0.0249 -0.2902
 1027YOPC   C2B15160   6.618   5.724   5.538  0.0025  0.2077 -0.0509
 1027YOPC   D3B15161   6.655   5.944   5.860  0.0490  0.0059 -0.0471
 1027YOPC   C4B15162   6.664   6.027   6.209 -0.1500  0.3615 -0.2957
 1028YOPC   NC315163   4.351  17.388   4.201  0.2067 -0.1569 -0.0527
 1028YOPC   PO415164   4.378  16.983   4.414  0.1410  0.0940 -0.0816
 1028YOPC   GL115165   4.450  17.062   4.790  0.2701  0.0802  0.0169
 1028YOPC   GL215166   4.209  17.177   4.923 -0.3307 -0.0585 -0.0491
 1028YOPC   C1A15167   4.407  16.793   5.173 -0.0628  0.4073  0.2364
 1028YOPC   D2A15168   4.702  16.752   5.517 -0.1170 -0.1769  0.2559
 1028YOPC   C3A15169   5.201  17.005   5.629  0.1857 -0.3678  0.1972
 1028YOPC   C4A15170   5.306  17.308   6.013 -0.0473 -0.0504  0.0774
 1028YOPC   C1B15171   4.475  17.559   5.123 -0.1615  0.0616  0.0208
 1028YOPC   C2B15172   4.533  17.960   5.248  0.2085  0.0361  0.2285
 1028YOPC   D3B15173   4.667  18.044   5.634  0.0737 -0.0936  0.3583
 1028YOPC   C4B15174   5.025  18.219   5.766 -0.0102  0.2615  0.0575
 1029YOPC   NC315175  16.159   8.681   4.807  0.4411 -0.2926 -0.0709
 1029YOPC   PO415176  16.268   8.672   5.306 -0.1868 -0.0893  0.2219
 1029YOPC   GL115177  16.104   8.285   5.638 -0.1216 -0.0851  0.2578
 1029YOPC   GL215178  15.752   8.273   5.696  0.1185  0.0061 -0.1427
 1029YOPC   C1A15179  16.404   8.086   5.886 -0.0005  0.1907  0.0175
 1029YOPC   D2A15180  16.870   8.002   5.926  0.1661 -0.5064 -0.0469
 1029YOPC   C3A15181  17.192   7.984   6.333  0.0647  0.2471 -0.2686
 1029YOPC   C4A15182  17.272   7.928   6.730 -0.2684  0.0005 -0.1378
 1029YOPC   C1B15183  15.811   8.303   6.088  0.1990 -0.4736  0.2204
 1029YOPC   C2B15184  16.113   8.329   6.384 -0.0376  0.0427  0.2675
 1029YOPC   D3B15185  16.336   8.730   6.464  0.2542 -0.0996  0.0991
 1029YOPC   C4B15186  16.729   8.817   6.427 -0.2061 -0.2873  0.2110
 1030YOPC   NC315187   8.700   0.751   4.839 -0.0599  0.0061 -0.1197
 1030YOPC   PO415188   8.272   1.017   4.807 -0.1268  0.0906 -0.1451
 1030YOPC   GL115189   8.549   1.019   5.223 -0.0722  0.3590 -0.1090
 1030YOPC   GL215190   8.530   1.332   5.193  0.1076 -0.3929  0.1732
 1030YOPC   C1A15191   8.577   0.854   5.693 -0.1038  0.2750 -0.2932
 1030YOPC   D2A15192   8.692   0.397   5.835 -0.3485 -0.1054 -0.0586
 1030YOPC   C3A15193   8.995   0.079   6.033 -0.1609  0.0558 -0.1895
 1030YOPC   C4A15194   9.222  -0.169   6.338  0.1968 -0.1266 -0.2950
 1030YOPC   C1B15195   8.603   1.422   5.715  0.0368 -0.1938 -0.1270
 1030YOPC   C2B15196   8.523   1.255   6.155  0.2175 -0.2384 -0.2786
 1030YOPC   D3B15197   8.712   0.978   6.320  0.2715 -0.2289 -0.1409
 1030YOPC   C4B15198   9.055   0.797   6.604  0.0837 -0.0179 -0.0160
 1031YOPC   NC315199   7.758   2.161   4.313  0.0983 -0.0387 -0.1594
 1031YOPC   PO415200   7.643   2.122   4.671  0.1851 -0.1462 -0.2940
 1031YOPC   GL115201   7.507   2.289   5.058  0.0059  0.2070  0.1900
 1031YOPC   GL215202   7.453   2.054   5.374 -0.0151  0.0271 -0.1634
 1031YOPC   C1A15203   7.477   2.544   5.427 -0.0158  0.2137 -0.1591
 1031YOPC   D2A15204   7.203   2.727   5.605 -0.1477 -0.0167  0.0168
 1031YOPC   C3A15205   6.925   2.943   5.440  0.0376  0.3173  0.0778
 1031YOPC   C4A15206   6.649   2.594   5.248 -0.0477  0.0494  0.0100
 1031YOPC   C1B15207   7.295   2.247   5.787  0.0892  0.0249 -0.1530
 1031YOPC   C2B15208   7.179   2.406   6.196 -0.1723  0.0304 -0.1706
 1031YOPC   D3B15209   7.163   2.742   6.134 -0.1727  0.3452  0.2351
 1031YOPC   C4B15210   7.253   3.193   5.954  0.0638  0.1867  0.0069
 1032YOPC   NC315211   9.271  14.182   4.455  0.2439 -0.1875 -0.0969
 1032YOPC   PO415212   9.222  14.549   4.783  0.5287 -0.1366  0.1778
 1032YOPC   GL115213   9.282  14.558   5.301 -0.0782  0.1106  0.1893
 1032YOPC   GL215214   9.506  14.868   5.425  0.3428  0.0247 -0.1048
 1032YOPC   C1A15215   9.037  14.457   5.712  0.0331  0.0293  0.2482
 1032YOPC   D2A15216   8.952  14.218   6.025  0.0159 -0.2705  0.0599
 1032YOPC   C3A15217   9.214  13.841   6.200  0.0747 -0.0213  0.1788
 1032YOPC   C4A15218   9.499  13.842   6.523  0.0167  0.1131 -0.3389
 1032YOPC   C1B15219   9.317  14.910   5.816  0.2117  0.1468  0.2084
 1032YOPC   C2B15220   9.339  14.598   6.103 -0.0527 -0.1158 -0.2355
 1032YOPC   D3B15221   9.606  14.772   6.288 -0.0608 -0.2239  0.0514
 1032YOPC   C4B15222  10.002  14.591   6.465 -0.2337 -0.1489  0.2941
 1033YOPC   NC315223   4.860   5.818   4.532  0.1388  0.1715 -0.0093
 1033YOPC   PO415224   4.480   6.002   4.628  0.2013 -0.0344  0.1290
 1033YOPC   GL115225   4.700   5.988   5.004 -0.1604 -0.0956  0.0862
 1033YOPC   GL215226   4.459   5.720   5.078  0.4259  0.0507 -0.1337
 1033YOPC   C1A15227   4.824   5.810   5.440 -0.1439  0.0909 -0.0057
 1033YOPC   D2A15228   4.915   5.766   5.924  0.0419 -0.0743 -0.5912
 1033YOPC   C3A15229   5.160   5.410   5.988 -0.1333  0.0626  0.2008
 1033YOPC   C4A15230   5.468   5.164   5.920 -0.1920  0.1938 -0.0723
 1033YOPC   C1B15231   4.367   5.713   5.570  0.1885 -0.1205 -0.1175
 1033YOPC   C2B15232   4.389   5.869   6.045  0.4248  0.0810  0.1192
 1033YOPC   D3B15233   4.551   6.195   6.086 -0.2857  0.1952 -0.2377
 1033YOPC   C4B15234   4.912   6.397   6.334  0.1353 -0.0398  0.3477
 1034YOPC   NC315235   6.520   6.270   4.219 -0.0724  0.1442 -0.0023
 1034YOPC   PO415236   6.467   6.396   4.653 -0.0639 -0.0262 -0.1057
 1034YOPC   GL115237   6.475   6.591   5.107 -0.1641 -0.0655 -0.0173
 1034YOPC   GL215238   6.734   6.812   5.231 -0.1014  0.1689 -0.5517
 1034YOPC   C1A15239   6.291   6.704   5.592 -0.2025 -0.2783 -0.0647
 1034YOPC   D2A15240   5.915   6.529   5.668 -0.0447  0.1541 -0.0325
 1034YOPC   C3A15241   5.405   6.498   5.769  0.2118  0.1374  0.1148
 1034YOPC   C4A15242   5.131   6.831   5.980 -0.0708 -0.0668 -0.0756
 1034YOPC   C1B15243   7.021   6.825   5.640  0.0233  0.2286  0.1996
 1034YOPC   C2B15244   7.031   7.149   5.961 -0.1406  0.6825  0.1743
 1034YOPC   D3B15245   6.949   7.081   6.455  0.0044  0.3190  0.1233
 1034YOPC   C4B15246   6.670   7.300   6.778 -0.0877 -0.1500  0.0927
 1035YOPC   NC315247   1.936   2.515   4.626  0.0377 -0.2937 -0.1882
 1035YOPC   PO415248   1.917   2.914   4.999 -0.3868  0.0514  0.3108
 1035YOPC   GL115249   2.321   2.679   5.189 -0.1163  0.2910  0.1335
 1035YOPC   GL215250   2.585   2.839   5.164  0.2517  0.0829 -0.1498
 1035YOPC   C1A15251   2.540   2.392   5.449 -0.0922 -0.0827 -0.2177
 1035YOPC   D2A15252   2.792   2.047   5.658 -0.1170  0.1722  0.2811
 1035YOPC   C3A15253   2.471   1.752   5.735 -0.0101  0.1189  0.2643
 1035YOPC   C4A15254   2.105   1.485   5.859 -0.1453  0.0442 -0.0703
 1035YOPC   C1B15255   2.510   3.089   5.505 -0.2937 -0.1187 -0.2092
 1035YOPC   C2B15256   2.512   2.913   5.880  0.0240  0.2084  0.4483
 1035YOPC   D3B15257   2.532   3.142   6.120  0.1558 -0.1230  0.0654
 1035YOPC   C4B15258   2.591   3.602   6.209  0.1239  0.2587  0.2083
 1036YOPC   NC315259   5.299   7.740   4.960  0.1663  0.0748  0.4721
 1036YOPC   PO415260   5.125   7.590   5.267  0.2500  0.1573  0.0306
 1036YOPC   GL115261   5.503   7.519   5.401  0.1572  0.1537 -0.0828
 1036YOPC   GL215262   5.783   7.326   5.382  0.0492 -0.0179  0.1702
 1036YOPC   C1A15263   5.705   7.733   5.697  0.1112 -0.1341 -0.1159
 1036YOPC   D2A15264   5.669   7.774   6.101  0.2297 -0.2839  0.2080
 1036YOPC   C3A15265   5.326   7.647   6.331  0.1749  0.2996 -0.0539
 1036YOPC   C4A15266   5.016   8.037   6.295 -0.0925 -0.2595 -0.5243
 1036YOPC   C1B15267   6.154   7.156   5.730 -0.1385 -0.0639 -0.2621
 1036YOPC   C2B15268   6.107   6.866   6.029 -0.2893  0.0264 -0.0074
 1036YOPC   D3B15269   5.717   6.744   6.096 -0.1110  0.1042  0.2970
 1036YOPC   C4B15270   5.412   6.953   6.344 -0.2783 -0.1049 -0.1387
 1037YOPC   NC315271  19.148   5.510   4.937  0.0463  0.1878 -0.0302
 1037YOPC   PO415272  19.094   5.072   5.154  0.0163  0.0815  0.1192
 1037YOPC   GL115273  19.064   5.278   5.588 -0.0501 -0.3073 -0.0096
 1037YOPC   GL215274  19.057   5.620   5.513  0.3291 -0.1496 -0.1775
 1037YOPC   C1A15275  18.965   5.449   5.977 -0.4039 -0.0259 -0.1572
 1037YOPC   D2A15276  18.925   5.108   6.397 -0.1556 -0.0814  0.1577
 1037YOPC   C3A15277  19.033   4.779   6.087 -0.1374  0.1888  0.0438
 1037YOPC   C4A15278  18.949   4.669   5.715 -0.2306 -0.3513  0.1538
 1037YOPC   C1B15279  18.601   5.644   5.647 -0.0721  0.0423 -0.4456
 1037YOPC   C2B15280  18.183   5.460   5.540 -0.2403  0.1427 -0.1456
 1037YOPC   D3B15281  17.761   5.448   5.628 -0.1334  0.3858 -0.0210
 1037YOPC   C4B15282  17.471   5.323   5.987  0.1473 -0.3967 -0.2142
 1038YOPC   NC315283   5.911  14.569   4.637 -0.2565 -0.0516 -0.0768
 1038YOPC   PO415284   5.628  14.619   4.901  0.0634  0.0022 -0.1972
 1038YOPC   GL115285   5.639  14.627   5.375 -0.2236  0.0923  0.1244
 1038YOPC   GL215286   5.602  14.515   5.576 -0.0377 -0.1164  0.2335
 1038YOPC   C1A15287   5.753  14.976   5.650 -0.0300  0.0493  0.0032
 1038YOPC   D2A15288   5.821  15.025   6.060 -0.2172  0.3431  0.0436
 1038YOPC   C3A15289   5.793  15.420   6.168  0.1884  0.0904 -0.3059
 1038YOPC   C4A15290   5.706  15.757   6.380  0.2100 -0.0373  0.1759
 1038YOPC   C1B15291   5.712  14.498   5.971  0.1548  0.0645  0.0907
 1038YOPC   C2B15292   5.726  14.642   6.426  0.1196  0.0066  0.0760
 1038YOPC   D3B15293   5.982  14.953   6.516 -0.0246  0.2415 -0.0718
 1038YOPC   C4B15294   6.212  15.048   6.809 -0.0812 -0.3703  0.4818
 1039YOPC   NC315295  14.941  16.940   5.264  0.0302 -0.1954  0.0661
 1039YOPC   PO415296  15.103  16.636   5.114 -0.1182 -0.0337  0.0043
 1039YOPC   GL115297  15.263  16.664   5.544 -0.0305 -0.1754 -0.0702
 1039YOPC   GL215298  15.562  16.712   5.543  0.3051 -0.1158 -0.2008
 1039YOPC   C1A15299  15.096  16.374   5.946  0.1583 -0.3229 -0.0255
 1039YOPC   D2A15300  15.203  16.144   6.208  0.0865 -0.1747  0.1183
 1039YOPC   C3A15301  14.864  15.906   6.291  0.2612 -0.0656 -0.0508
 1039YOPC   C4A15302  14.387  15.942   6.300  0.2398  0.2054 -0.0462
 1039YOPC   C1B15303  15.570  16.582   5.952  0.3991 -0.0515  0.2319
 1039YOPC   C2B15304  15.311  16.728   6.274 -0.1429  0.1281 -0.1882
 1039YOPC   D3B15305  15.236  16.544   6.682  0.4939  0.0107  0.0938
 1039YOPC   C4B15306  14.970  16.239   6.888 -0.1254 -0.1978 -0.1618
 1040YOPC   NC315307   5.075  11.826   5.040  0.2421 -0.0602  0.1699
 1040YOPC   PO415308   5.182  12.156   4.950  0.1045  0.0709 -0.1269
 1040YOPC   GL115309   4.843  12.146   5.311 -0.3201  0.1559  0.0669
 1040YOPC   GL215310   4.669  12.391   5.426 -0.0328  0.0536 -0.1097
 1040YOPC   C1A15311   4.697  11.964   5.677 -0.2486  0.0308  0.0856
 1040YOPC   D2A15312   4.929  11.997   6.114  0.0409 -0.1047  0.0371
 1040YOPC   C3A15313   5.232  12.364   6.141  0.2219 -0.1211 -0.2229
 1040YOPC   C4A15314   5.398  12.856   6.206  0.2393 -0.0918  0.3323
 1040YOPC   C1B15315   4.711  12.433   5.872 -0.0447 -0.4299 -0.3389
 1040YOPC   C2B15316   4.275  12.306   5.960  0.2006  0.2872  0.3186
 1040YOPC   D3B15317   4.186  12.472   6.341 -0.3682 -0.4578 -0.1961
 1040YOPC   C4B15318   4.124  12.798   6.498  0.0826 -0.1990 -0.3751
 1041YOPC   NC315319   0.773  16.254   4.384 -0.3405  0.1691 -0.1348
 1041YOPC   PO415320   0.894  16.385   4.811 -0.1021  0.0121 -0.1942
 1041YOPC   GL115321   0.622  16.559   5.189 -0.3782  0.0255  0.1391
 1041YOPC   GL215322   0.733  16.855   5.431 -0.2239  0.0189  0.0828
 1041YOPC   C1A15323   0.301  16.423   5.428  0.1017 -0.0922 -0.1788
 1041YOPC   D2A15324   0.112  16.197   5.749  0.0884 -0.0249 -0.1451
 1041YOPC   C3A15325  -0.263  16.362   5.987  0.0617 -0.1651 -0.1862
 1041YOPC   C4A15326  -0.561  16.485   6.185  0.1410 -0.2463  0.0464
 1041YOPC   C1B15327   0.383  16.758   5.745 -0.0616 -0.0774  0.2889
 1041YOPC   C2B15328   0.175  16.618   6.084 -0.0784  0.4341  0.1331
 1041YOPC   D3B15329   0.123  16.955   6.377  0.1318  0.3491 -0.2241
 1041YOPC   C4B15330   0.033  17.108   6.778 -0.0910  0.3688 -0.0483
 1042YOPC   NC315331   1.824   0.814   4.886 -0.1363  0.1834 -0.2610
 1042YOPC   PO415332   1.701   0.421   5.124 -0.3930 -0.3061  0.0280
 1042YOPC   GL115333   1.473   0.518   5.538  0.0381  0.0413  0.0131
 1042YOPC   GL215334   1.400   0.222   5.836 -0.3575 -0.0610 -0.0859
 1042YOPC   C1A15335   1.367   0.780   5.888 -0.1114  0.1355  0.1243
 1042YOPC   D2A15336   1.321   0.546   6.246  0.2198 -0.0851 -0.0600
 1042YOPC   C3A15337   1.434   0.500   6.616 -0.0833 -0.0835  0.3093
 1042YOPC   C4A15338   1.781   0.297   6.839 -0.0188  0.0190  0.0832
 1042YOPC   C1B15339   1.866   0.247   6.034  0.0873  0.1640 -0.0941
 1042YOPC   C2B15340   2.163  -0.036   6.263  0.0398  0.0327  0.2975
 1042YOPC   D3B15341   1.985  -0.109   6.628 -0.1476 -0.0110 -0.1378
 1042YOPC   C4B15342   1.986  -0.329   7.033  0.0777  0.1287  0.0664
 1043YOPC   NC315343   7.350   3.356   4.475 -0.1101 -0.3931 -0.3107
 1043YOPC   PO415344   7.035   3.223   4.751 -0.0428 -0.2426  0.1449
 1043YOPC   GL115345   7.024   3.342   5.116 -0.0263 -0.5039 -0.0461
 1043YOPC   GL215346   6.740   3.393   5.309 -0.1596 -0.2686  0.0411
 1043YOPC   C1A15347   7.369   3.215   5.406  0.0598  0.4416 -0.0531
 1043YOPC   D2A15348   7.671   3.017   5.729  0.2327 -0.0655 -0.1002
 1043YOPC   C3A15349   7.607   2.687   5.973  0.0316  0.1007  0.1953
 1043YOPC   C4A15350   7.808   2.529   6.414  0.0537  0.0488 -0.0282
 1043YOPC   C1B15351   6.758   3.507   5.748  0.3141 -0.2752 -0.2353
 1043YOPC   C2B15352   6.802   3.450   6.248 -0.3010 -0.1094 -0.0191
 1043YOPC   D3B15353   6.714   3.754   6.535  0.2712  0.2468 -0.1474
 1043YOPC   C4B15354   6.523   4.125   6.815  0.2732 -0.0383 -0.0866
 1044YOPC   NC315355  11.928  15.342   4.900 -0.0352  0.0327 -0.5189
 1044YOPC   PO415356  12.134  15.715   5.004 -0.0064 -0.1586 -0.3265
 1044YOPC   GL115357  12.245  15.490   5.344  0.0682  0.0116 -0.4713
 1044YOPC   GL215358  12.395  15.746   5.448 -0.4395 -0.0462 -0.1851
 1044YOPC   C1A15359  12.289  15.318   5.723  0.0895 -0.1311 -0.2558
 1044YOPC   D2A15360  12.187  15.083   6.096  0.1379  0.1687  0.0335
 1044YOPC   C3A15361  12.146  15.497   6.377 -0.0379 -0.0193  0.1032
 1044YOPC   C4A15362  11.887  15.699   6.601 -0.1275 -0.0421  0.1236
 1044YOPC   C1B15363  12.762  15.537   5.520 -0.0359  0.1100  0.2992
 1044YOPC   C2B15364  13.109  15.549   5.843 -0.0992 -0.1222  0.0496
 1044YOPC   D3B15365  13.043  15.815   6.085  0.2420 -0.3610 -0.0565
 1044YOPC   C4B15366  13.275  15.729   6.417 -0.0038  0.0465  0.1048
 1045YOPC   NC315367  13.235   3.867   4.973 -0.1229  0.1749 -0.1851
 1045YOPC   PO415368  13.051   4.127   5.292  0.1369  0.3219  0.1897
 1045YOPC   GL115369  12.679   4.320   5.565 -0.4228 -0.0571 -0.0659
 1045YOPC   GL215370  12.533   3.954   5.612  0.0584 -0.3463  0.1270
 1045YOPC   C1A15371  12.408   4.368   5.925  0.0238 -0.0729  0.1692
 1045YOPC   D2A15372  12.217   4.495   6.239  0.1070  0.0045 -0.0683
 1045YOPC   C3A15373  12.156   4.396   6.592  0.2013 -0.1381 -0.0059
 1045YOPC   C4A15374  11.949   4.050   6.941 -0.0212 -0.1920  0.2230
 1045YOPC   C1B15375  12.262   3.744   5.808  0.0924  0.3253  0.3128
 1045YOPC   C2B15376  12.091   3.788   6.180  0.0389 -0.1185 -0.1805
 1045YOPC   D3B15377  12.191   3.910   6.522  0.1728  0.0446  0.3147
 1045YOPC   C4B15378  12.487   3.794   6.780 -0.4049  0.1698 -0.2693
 1046YOPC   NC315379  12.282  10.016   4.709  0.3059 -0.2426 -0.1181
 1046YOPC   PO415380  11.988   9.690   4.685 -0.0768 -0.1827  0.1287
 1046YOPC   GL115381  11.923   9.599   5.128  0.4041  0.3729 -0.3687
 1046YOPC   GL215382  11.777   9.209   5.209 -0.0546 -0.0752 -0.0790
 1046YOPC   C1A15383  11.792   9.992   5.462  0.0219  0.1342 -0.2301
 1046YOPC   D2A15384  11.966  10.460   5.696 -0.0618  0.0838 -0.3453
 1046YOPC   C3A15385  11.820  10.911   5.819  0.1856  0.3554  0.0211
 1046YOPC   C4A15386  11.485  11.270   5.764  0.1750 -0.1122 -0.1419
 1046YOPC   C1B15387  11.306   9.089   5.420  0.1076  0.0170 -0.0791
 1046YOPC   C2B15388  11.312   8.923   5.732 -0.0638 -0.2762  0.2082
 1046YOPC   D3B15389  11.435   9.083   6.234 -0.0201 -0.1406 -0.1565
 1046YOPC   C4B15390  11.494   9.260   6.637 -0.2827  0.2812 -0.1486
 1047YOPC   NC315391  12.561   3.181   5.139  0.0908 -0.0922  0.1824
 1047YOPC   PO415392  12.626   2.893   5.588 -0.0009 -0.2229 -0.1835
 1047YOPC   GL115393  12.891   3.110   5.921  0.0325  0.0037 -0.0823
 1047YOPC   GL215394  13.056   2.913   6.056  0.0158  0.0207  0.3458
 1047YOPC   C1A15395  13.225   3.379   6.116  0.0053 -0.0450  0.1299
 1047YOPC   D2A15396  13.604   3.258   6.215 -0.0219  0.1188  0.1263
 1047YOPC   C3A15397  13.595   2.921   6.341 -0.1494  0.1391  0.2386
 1047YOPC   C4A15398  13.291   2.646   6.457 -0.1297  0.1654  0.1766
 1047YOPC   C1B15399  12.603   2.792   6.269 -0.0243  0.2413  0.2959
 1047YOPC   C2B15400  12.166   2.766   6.530 -0.0258  0.1339 -0.1090
 1047YOPC   D3B15401  12.135   2.642   6.977 -0.0656 -0.2300  0.2335
 1047YOPC   C4B15402  12.329   2.901   7.362  0.0086 -0.0820  0.0563
 1048YOPC   NC315403  13.558  19.556   4.929 -0.1183  0.5159 -0.0171
 1048YOPC   PO415404  13.768  19.830   5.236 -0.0861  0.0197 -0.2065
 1048YOPC   GL115405  13.965  19.900   5.670  0.0529 -0.1408  0.3892
 1048YOPC   GL215406  13.781  19.895   5.993  0.0506 -0.2757  0.0763
 1048YOPC   C1A15407  14.345  19.738   5.851 -0.1732  0.2122 -0.0227
 1048YOPC   D2A15408  14.374  19.394   6.172  0.2572  0.1310  0.0112
 1048YOPC   C3A15409  14.256  19.480   6.572 -0.1345 -0.2404 -0.0045
 1048YOPC   C4A15410  14.124  19.273   7.007  0.0874 -0.1727  0.1044
 1048YOPC   C1B15411  13.614  20.053   6.452  0.3275 -0.0628  0.0322
 1048YOPC   C2B15412  13.679  20.252   6.911  0.0279  0.1739  0.2508
 1048YOPC   D3B15413  13.719  20.172   7.287  0.0344  0.2906 -0.0402
 1048YOPC   C4B15414  13.263  20.201   7.482  0.0205 -0.0255 -0.0954
 1049YOPC   NC315415   9.627  15.944   4.731 -0.0830  0.0413  0.1477
 1049YOPC   PO415416   9.305  15.549   4.758 -0.2869 -0.1407  0.2883
 1049YOPC   GL115417   9.389  15.663   5.119  0.2835 -0.0953 -0.0395
 1049YOPC   GL215418   9.704  15.832   5.205  0.1807  0.1538  0.0756
 1049YOPC   C1A15419   9.304  15.941   5.444  0.1312 -0.1374 -0.0509
 1049YOPC   D2A15420   9.465  16.224   5.789 -0.0170 -0.4103  0.0133
 1049YOPC   C3A15421   9.468  16.042   6.286  0.3877  0.1450  0.0339
 1049YOPC   C4A15422   9.722  15.663   6.347 -0.1485  0.4362  0.0082
 1049YOPC   C1B15423   9.734  15.790   5.719 -0.0987  0.2242  0.2276
 1049YOPC   C2B15424   9.277  15.732   5.947  0.1068  0.2152  0.0097
 1049YOPC   D3B15425   9.192  15.676   6.368  0.0774  0.1637 -0.1130
 1049YOPC   C4B15426   9.135  15.577   6.734 -0.1774  0.1403 -0.0462
 1050YOPC   NC315427  14.343  13.235   4.895 -0.0265  0.1623 -0.0222
 1050YOPC   PO415428  13.871  13.430   5.036 -0.0333 -0.0352 -0.0370
 1050YOPC   GL115429  13.915  13.569   5.439 -0.2283 -0.0941  0.0945
 1050YOPC   GL215430  13.847  13.928   5.583  0.3351 -0.2479 -0.3813
 1050YOPC   C1A15431  13.909  13.264   5.964 -0.2098 -0.1608  0.2954
 1050YOPC   D2A15432  13.743  13.294   6.378  0.1485 -0.0842  0.1250
 1050YOPC   C3A15433  14.002  13.559   6.708 -0.0095 -0.1874  0.0658
 1050YOPC   C4A15434  14.294  13.658   7.003 -0.1813  0.2383 -0.1910
 1050YOPC   C1B15435  13.845  13.783   6.039 -0.1103  0.0496 -0.1830
 1050YOPC   C2B15436  13.708  14.026   6.376  0.2285  0.2192 -0.0921
 1050YOPC   D3B15437  13.804  14.013   6.833 -0.0328  0.0566  0.0577
 1050YOPC   C4B15438  13.516  13.987   7.247  0.7237 -0.1289  0.0464
 1051YOPC   NC315439  18.310   0.023   5.039 -0.4186 -0.3576  0.3261
 1051YOPC   PO415440  18.190  -0.418   5.086  0.0012 -0.0428  0.0940
 1051YOPC   GL115441  18.472  -0.383   5.499 -0.4272  0.2246 -0.2541
 1051YOPC   GL215442  18.834  -0.445   5.549 -0.0867  0.1523  0.1639
 1051YOPC   C1A15443  18.266  -0.193   5.949 -0.0574 -0.0980  0.1183
 1051YOPC   D2A15444  18.073  -0.401   6.335 -0.1523  0.5209  0.2958
 1051YOPC   C3A15445  18.103  -0.175   6.796 -0.3658  0.0283 -0.2776
 1051YOPC   C4A15446  18.330  -0.142   7.170 -0.1139  0.2827  0.2101
 1051YOPC   C1B15447  18.683  -0.455   5.996  0.0621 -0.0370 -0.0282
 1051YOPC   C2B15448  18.569  -0.532   6.354 -0.1878 -0.1707 -0.2428
 1051YOPC   D3B15449  18.493  -0.102   6.396  0.3587  0.2444  0.0471
 1051YOPC   C4B15450  18.415   0.213   6.703 -0.1614  0.0117 -0.2410
 1052YOPC   NC315451   0.075  17.379   4.929  0.0273  0.0366 -0.2624
 1052YOPC   PO415452  -0.444  17.460   4.973 -0.1010 -0.2395  0.0271
 1052YOPC   GL115453  -0.348  17.662   5.350 -0.0323  0.1184  0.0512
 1052YOPC   GL215454  -0.051  17.562   5.371 -0.0610 -0.1463 -0.1419
 1052YOPC   C1A15455  -0.563  18.042   5.611  0.1781 -0.3319 -0.3131
 1052YOPC   D2A15456  -0.394  18.301   5.918  0.1304 -0.3148  0.1039
 1052YOPC   C3A15457  -0.421  18.252   6.372 -0.0509  0.2347  0.0441
 1052YOPC   C4A15458  -0.259  18.312   6.744 -0.5563  0.0179 -0.1500
 1052YOPC   C1B15459   0.352  17.550   5.582 -0.1930  0.1416  0.0611
 1052YOPC   C2B15460   0.864  17.498   5.616 -0.3849  0.0577  0.2410
 1052YOPC   D3B15461   0.916  17.721   6.026 -0.0732  0.2027  0.2536
 1052YOPC   C4B15462   0.881  17.649   6.406  0.2844  0.0709  0.0599
 1053YOPC   NC315463   6.264   9.380   4.677 -0.2771  0.0367 -0.1819
 1053YOPC   PO415464   5.886   9.359   4.656  0.0804  0.2748  0.2185
 1053YOPC   GL115465   5.956   9.237   5.099  0.0464  0.4084 -0.0285
 1053YOPC   GL215466   5.863   8.965   5.032 -0.3166  0.1292  0.2721
 1053YOPC   C1A15467   6.244   9.345   5.509 -0.0220  0.1424  0.1456
 1053YOPC   D2A15468   6.177   9.574   5.858 -0.2473 -0.2375 -0.1496
 1053YOPC   C3A15469   6.410   9.492   6.318 -0.0370 -0.0341  0.0372
 1053YOPC   C4A15470   6.801   9.482   6.563 -0.0172 -0.2295  0.0845
 1053YOPC   C1B15471   5.905   8.991   5.516 -0.0430 -0.1696  0.1137
 1053YOPC   C2B15472   6.009   9.045   5.875  0.3181 -0.1780 -0.1166
 1053YOPC   D3B15473   6.450   9.040   6.046 -0.0262  0.2149  0.0360
 1053YOPC   C4B15474   6.635   9.032   6.452 -0.1846  0.1262 -0.3050
 1054YOPC   NC315475  12.921   6.718   4.644 -0.0164 -0.2437  0.2079
 1054YOPC   PO415476  13.075   6.994   4.912  0.1449 -0.0505 -0.0379
 1054YOPC   GL115477  13.097   7.109   5.316  0.3217  0.0882 -0.0866
 1054YOPC   GL215478  13.225   6.881   5.402 -0.0396  0.3056  0.0688
 1054YOPC   C1A15479  13.347   7.411   5.541 -0.1240 -0.0563 -0.1014
 1054YOPC   D2A15480  13.690   7.421   5.809  0.0899 -0.0011 -0.0690
 1054YOPC   C3A15481  13.759   7.752   6.021 -0.1073 -0.3087 -0.0598
 1054YOPC   C4A15482  13.669   7.709   6.441  0.2233 -0.1496 -0.3000
 1054YOPC   C1B15483  13.393   7.000   5.768 -0.0408 -0.0084 -0.1578
 1054YOPC   C2B15484  13.514   7.077   6.164 -0.0525 -0.2253  0.2014
 1054YOPC   D3B15485  13.314   7.307   6.496 -0.4403 -0.0156 -0.0010
 1054YOPC   C4B15486  13.311   7.490   6.925  0.1897 -0.2023  0.2234
 1055YOPC   NC315487   4.552  10.507   4.634 -0.0553  0.0780 -0.1254
 1055YOPC   PO415488   4.033  10.438   4.706  0.3688  0.0603  0.0710
 1055YOPC   GL115489   3.988  10.223   5.099 -0.1732  0.0770 -0.2747
 1055YOPC   GL215490   4.238  10.292   5.238 -0.1835  0.0483  0.5325
 1055YOPC   C1A15491   3.752  10.191   5.478  0.3396 -0.3976 -0.1195
 1055YOPC   D2A15492   3.675  10.193   5.952  0.0025 -0.0076  0.1139
 1055YOPC   C3A15493   3.795  10.520   6.207  0.1212 -0.1071  0.0256
 1055YOPC   C4A15494   3.937  10.842   5.994 -0.1037 -0.0608  0.0304
 1055YOPC   C1B15495   4.411   9.843   5.316 -0.2064  0.2821  0.2366
 1055YOPC   C2B15496   4.781   9.492   5.379 -0.2292  0.0305  0.0167
 1055YOPC   D3B15497   4.752   8.975   5.482  0.3314  0.1857 -0.1803
 1055YOPC   C4B15498   4.649   8.862   5.907 -0.1355 -0.4165  0.1328
 1056YOPC   NC315499   8.258  14.304   4.779 -0.1322  0.1736 -0.1670
 1056YOPC   PO415500   8.249  13.914   5.022 -0.2441  0.2651 -0.0611
 1056YOPC   GL115501   8.493  14.223   5.277 -0.1374 -0.1530 -0.2930
 1056YOPC   GL215502   8.628  14.562   5.336 -0.2608 -0.3037  0.1400
 1056YOPC   C1A15503   8.382  14.361   5.769 -0.2087  0.1094  0.1288
 1056YOPC   D2A15504   8.607  14.590   6.187  0.3706 -0.2344 -0.1939
 1056YOPC   C3A15505   8.979  14.542   6.489  0.1309  0.0061 -0.1314
 1056YOPC   C4A15506   9.416  14.366   6.531 -0.0586  0.2297 -0.2289
 1056YOPC   C1B15507   8.321  14.736   5.493  0.4136  0.4470  0.3163
 1056YOPC   C2B15508   7.975  14.711   5.702 -0.0545 -0.2000  0.1701
 1056YOPC   D3B15509   8.132  14.830   6.056 -0.2453  0.1417  0.1282
 1056YOPC   C4B15510   8.057  14.775   6.465  0.3251  0.2269 -0.0167
 1057YOPC   NC315511   9.418   1.424   4.801 -0.1319 -0.0549  0.4315
 1057YOPC   PO415512   9.094   1.342   5.213  0.1138 -0.1069 -0.3136
 1057YOPC   GL115513   9.301   1.204   5.469 -0.1825  0.0636  0.0182
 1057YOPC   GL215514   9.049   1.058   5.635 -0.2319  0.0463  0.1924
 1057YOPC   C1A15515   9.549   0.906   5.826 -0.1083  0.0555  0.2070
 1057YOPC   D2A15516   9.761   0.872   6.249  0.3124 -0.1113 -0.0099
 1057YOPC   C3A15517   9.872   0.557   6.427 -0.0609 -0.2163 -0.2587
 1057YOPC   C4A15518  10.260   0.226   6.349  0.1166 -0.0762 -0.2156
 1057YOPC   C1B15519   9.123   1.216   6.002 -0.2512  0.1194 -0.2177
 1057YOPC   C2B15520   9.352   1.107   6.323  0.1296 -0.1731 -0.0436
 1057YOPC   D3B15521   9.489   0.896   6.743  0.2431 -0.1058 -0.1730
 1057YOPC   C4B15522   9.924   0.807   6.857 -0.0472 -0.0863 -0.2512
 1058YOPC   NC315523   1.873   6.575   4.962 -0.0843  0.1093 -0.0806
 1058YOPC   PO415524   1.788   6.240   4.612  0.0187  0.2222  0.1205
 1058YOPC   GL115525   1.703   5.910   5.014 -0.1951  0.0148  0.2473
 1058YOPC   GL215526   1.711   6.189   5.279 -0.1320  0.1965 -0.4337
 1058YOPC   C1A15527   1.799   5.634   5.472  0.0414 -0.2267 -0.3202
 1058YOPC   D2A15528   1.420   5.497   5.705 -0.2574 -0.2262  0.2174
 1058YOPC   C3A15529   1.562   5.511   6.113 -0.3488 -0.0500  0.1698
 1058YOPC   C4A15530   1.574   5.362   6.450  0.0556 -0.0845 -0.1325
 1058YOPC   C1B15531   2.086   6.253   5.497 -0.1388 -0.0359  0.1910
 1058YOPC   C2B15532   2.083   6.413   5.842 -0.1305  0.5598  0.1671
 1058YOPC   D3B15533   2.127   6.916   5.991  0.2668 -0.0041 -0.0143
 1058YOPC   C4B15534   2.083   6.862   6.413 -0.0092  0.0259 -0.0490
 1059YOPC   NC315535   2.332   8.572   4.753  0.0856 -0.1171  0.2627
 1059YOPC   PO415536   2.267   9.016   4.616 -0.3077 -0.0804  0.2442
 1059YOPC   GL115537   2.275   9.033   4.991  0.3219  0.2845  0.3221
 1059YOPC   GL215538   2.132   9.294   5.084 -0.1163 -0.2045 -0.3229
 1059YOPC   C1A15539   2.340   8.934   5.461 -0.0270 -0.2664 -0.0200
 1059YOPC   D2A15540   2.293   8.960   5.853  0.1290  0.2725  0.3819
 1059YOPC   C3A15541   2.542   9.170   6.044  0.0171  0.1093  0.1516
 1059YOPC   C4A15542   2.902   9.538   6.183 -0.5490  0.0176  0.0720
 1059YOPC   C1B15543   2.234   9.515   5.400  0.0071  0.0498  0.1739
 1059YOPC   C2B15544   2.271   9.767   5.741 -0.2728  0.0733 -0.0523
 1059YOPC   D3B15545   2.595   9.921   6.062 -0.1281  0.0560 -0.0183
 1059YOPC   C4B15546   2.909  10.293   5.938 -0.0650  0.1539 -0.1274
 1060YOPC   NC315547   3.178  17.762   5.079  0.3507 -0.3207 -0.0304
 1060YOPC   PO415548   3.538  17.970   5.058 -0.0766 -0.0838 -0.1027
 1060YOPC   GL115549   3.650  17.734   5.372 -0.1417  0.3112  0.0752
 1060YOPC   GL215550   3.412  17.821   5.594  0.3606 -0.3010  0.1089
 1060YOPC   C1A15551   4.006  17.413   5.333  0.2281 -0.1355  0.3284
 1060YOPC   D2A15552   4.308  17.142   5.492  0.2039 -0.0742 -0.1146
 1060YOPC   C3A15553   4.141  16.837   5.735  0.1538  0.3862  0.0098
 1060YOPC   C4A15554   3.886  16.850   6.256  0.0976  0.0872 -0.1982
 1060YOPC   C1B15555   3.145  17.633   5.971  0.1201 -0.1837 -0.1202
 1060YOPC   C2B15556   3.135  17.185   6.201 -0.1644  0.1400  0.2933
 1060YOPC   D3B15557   3.235  16.879   6.462  0.0166 -0.1373 -0.3631
 1060YOPC   C4B15558   3.254  16.621   6.916 -0.6591 -0.0246  0.0825
 1061YOPC   NC315559  10.654   8.711   4.505  0.0902 -0.0092 -0.0032
 1061YOPC   PO415560  11.056   8.753   4.804  0.2741  0.2272 -0.0162
 1061YOPC   GL115561  10.736   8.981   4.941 -0.0667 -0.3126 -0.0054
 1061YOPC   GL215562  10.489   8.943   5.145 -0.0483  0.1540  0.0575
 1061YOPC   C1A15563  10.807   9.262   5.383  0.0882 -0.1748 -0.2071
 1061YOPC   D2A15564  11.098   9.358   5.783  0.0238  0.5326  0.0629
 1061YOPC   C3A15565  11.529   9.348   5.849 -0.1465  0.0375 -0.0653
 1061YOPC   C4A15566  12.047   9.532   5.857  0.2422  0.2028 -0.0806
 1061YOPC   C1B15567  10.270   9.286   5.214  0.1259  0.2303  0.1042
 1061YOPC   C2B15568   9.911   9.247   5.233  0.1707 -0.0574 -0.2058
 1061YOPC   D3B15569   9.847   8.956   5.394  0.2333  0.1279 -0.3647
 1061YOPC   C4B15570   9.890   8.601   5.445  0.0861  0.3310 -0.2324
 1062YOPC   NC315571  16.913  19.188   5.376 -0.2736  0.0468 -0.2279
 1062YOPC   PO415572  16.555  19.086   5.613  0.1037  0.3803  0.2502
 1062YOPC   GL115573  16.534  18.763   5.828 -0.3023  0.1092  0.0384
 1062YOPC   GL215574  16.209  18.714   5.881 -0.0989  0.0279 -0.1697
 1062YOPC   C1A15575  16.564  18.765   6.260  0.0385  0.1550 -0.1524
 1062YOPC   D2A15576  16.940  18.850   6.583  0.0095  0.0837 -0.1661
 1062YOPC   C3A15577  17.085  18.509   6.796 -0.0038  0.0834  0.1295
 1062YOPC   C4A15578  17.434  18.381   7.043 -0.3386 -0.3722  0.0769
 1062YOPC   C1B15579  16.114  19.064   6.143 -0.4194 -0.1837 -0.2867
 1062YOPC   C2B15580  16.440  19.311   6.010  0.0213 -0.1407  0.3033
 1062YOPC   D3B15581  16.505  19.622   6.207  0.0671 -0.4359  0.0915
 1062YOPC   C4B15582  16.404  19.935   5.953 -0.0721 -0.4172 -0.2248
 1063YOPC   NC315583   2.063   3.725   4.968  0.1250  0.0009 -0.0408
 1063YOPC   PO415584   1.985   4.122   4.942  0.0226  0.0012 -0.2534
 1063YOPC   GL115585   2.091   4.158   5.344  0.0291  0.2769  0.1972
 1063YOPC   GL215586   2.392   4.351   5.478 -0.0515 -0.0131  0.3006
 1063YOPC   C1A15587   2.113   3.897   5.694  0.0438 -0.1344  0.2609
 1063YOPC   D2A15588   2.238   3.529   5.877  0.2063  0.0509 -0.1819
 1063YOPC   C3A15589   1.823   3.364   5.769 -0.1167 -0.0946  0.0448
 1063YOPC   C4A15590   1.348   3.490   5.758 -0.0261  0.0161  0.1054
 1063YOPC   C1B15591   2.194   4.755   5.599  0.1035  0.3025  0.2032
 1063YOPC   C2B15592   2.363   4.925   5.849 -0.0015 -0.1898  0.0546
 1063YOPC   D3B15593   2.257   4.954   6.208  0.1060 -0.3263 -0.0748
 1063YOPC   C4B15594   1.997   5.127   6.481 -0.2574  0.1565 -0.0176
 1064YOPC   NC315595  18.581  10.372   4.039 -0.0508  0.1891  0.1125
 1064YOPC   PO415596  18.558  10.317   4.490  0.3742 -0.3271  0.1138
 1064YOPC   GL115597  18.569  10.238   4.938 -0.2069  0.0793  0.0972
 1064YOPC   GL215598  18.898  10.214   4.936  0.1220 -0.0736  0.1461
 1064YOPC   C1A15599  18.674  10.312   5.351 -0.0328  0.2957 -0.2719
 1064YOPC   D2A15600  18.812   9.989   5.782 -0.1025 -0.0801  0.0849
 1064YOPC   C3A15601  19.047  10.237   6.148  0.3205  0.1195 -0.2016
 1064YOPC   C4A15602  19.002  10.389   6.516 -0.0272  0.1035  0.0136
 1064YOPC   C1B15603  19.225  10.440   5.119  0.2565  0.1670 -0.3846
 1064YOPC   C2B15604  19.133  10.551   5.577  0.0820 -0.3367  0.0212
 1064YOPC   D3B15605  19.329  10.591   5.895  0.1622  0.1367  0.0154
 1064YOPC   C4B15606  19.598  10.892   6.104 -0.1889  0.0631  0.2772
 1065YOPC   NC315607  11.118   0.207   5.344  0.2162 -0.1789 -0.0066
 1065YOPC   PO415608  11.114  -0.121   4.971 -0.2584 -0.1858 -0.1783
 1065YOPC   GL115609  11.069  -0.372   5.369 -0.2890  0.2909  0.0896
 1065YOPC   GL215610  10.941  -0.265   5.575 -0.2908  0.1622  0.0779
 1065YOPC   C1A15611  11.136  -0.508   5.917 -0.2698 -0.0383 -0.2220
 1065YOPC   D2A15612  11.104  -0.255   6.224 -0.1357  0.0953  0.1577
 1065YOPC   C3A15613  10.886  -0.484   6.585  0.4591 -0.1114 -0.0848
 1065YOPC   C4A15614  10.594  -0.663   6.797  0.1322  0.2190  0.1188
 1065YOPC   C1B15615  10.636  -0.387   5.860  0.1238  0.0770 -0.2368
 1065YOPC   C2B15616  10.547  -0.570   6.201 -0.1499  0.0871  0.2102
 1065YOPC   D3B15617  10.087  -0.446   6.381  0.0431  0.0537  0.2689
 1065YOPC   C4B15618   9.650  -0.505   6.549  0.0118 -0.0905 -0.2668
 1066YOPC   NC315619   4.949  12.660   4.964 -0.1009 -0.2656 -0.3407
 1066YOPC   PO415620   4.551  12.947   4.730 -0.0602 -0.1429  0.1317
 1066YOPC   GL115621   4.530  13.103   5.207  0.2764  0.0723 -0.2155
 1066YOPC   GL215622   4.235  13.269   5.430 -0.1660  0.3550  0.1100
 1066YOPC   C1A15623   4.589  13.564   5.531 -0.0523  0.0160 -0.1117
 1066YOPC   D2A15624   4.582  13.994   5.630  0.0045 -0.2233  0.2585
 1066YOPC   C3A15625   4.618  14.284   5.924  0.0775 -0.3762  0.0531
 1066YOPC   C4A15626   4.400  14.380   6.315 -0.1824 -0.0803  0.2296
 1066YOPC   C1B15627   4.204  13.480   5.809  0.2097 -0.2102  0.4440
 1066YOPC   C2B15628   4.199  13.897   5.976  0.0418 -0.1223 -0.1442
 1066YOPC   D3B15629   4.048  13.830   6.437  0.1382 -0.2845  0.4339
 1066YOPC   C4B15630   3.721  13.629   6.623 -0.0982 -0.0859  0.1185
 1067YOPC   NC315631  13.154   1.363   4.956 -0.1999  0.0481 -0.0598
 1067YOPC   PO415632  12.769   1.281   4.973 -0.0066  0.2242 -0.0803
 1067YOPC   GL115633  12.714   1.369   5.421  0.0402 -0.4142  0.1092
 1067YOPC   GL215634  12.320   1.406   5.488  0.2128 -0.1659 -0.0376
 1067YOPC   C1A15635  12.692   1.239   5.781  0.0657 -0.3135 -0.1951
 1067YOPC   D2A15636  12.642   0.843   6.072  0.0660 -0.1505  0.0916
 1067YOPC   C3A15637  12.405   0.477   6.061  0.0430 -0.0610 -0.0620
 1067YOPC   C4A15638  12.014   0.292   5.939 -0.0783 -0.0411  0.3032
 1067YOPC   C1B15639  12.363   1.597   5.897  0.0049  0.3383 -0.2381
 1067YOPC   C2B15640  12.468   1.529   6.258  0.1671 -0.1396  0.1837
 1067YOPC   D3B15641  12.022   1.430   6.297 -0.0484  0.0856 -0.0323
 1067YOPC   C4B15642  11.778   1.476   5.923  0.0957  0.2201  0.0636
 1068YOPC   NC315643  12.867   9.229   5.037 -0.2824  0.2188 -0.0941
 1068YOPC   PO415644  12.948   9.760   5.001 -0.0488 -0.1788  0.1848
 1068YOPC   GL115645  12.747   9.725   5.391 -0.2904  0.2407 -0.2522
 1068YOPC   GL215646  12.880   9.400   5.497  0.1166  0.3094  0.1876
 1068YOPC   C1A15647  12.761   9.964   5.762 -0.0830 -0.1188 -0.2920
 1068YOPC   D2A15648  12.831  10.054   6.084 -0.1765  0.0201  0.1500
 1068YOPC   C3A15649  12.554  10.227   6.372  0.1409  0.2969  0.2191
 1068YOPC   C4A15650  12.390  10.223   6.772  0.3474  0.1137 -0.2605
 1068YOPC   C1B15651  12.566   9.418   5.812  0.0322 -0.1898 -0.0820
 1068YOPC   C2B15652  12.455   9.671   6.145 -0.0688 -0.0829  0.1043
 1068YOPC   D3B15653  12.748   9.702   6.531 -0.0505  0.1196  0.1204
 1068YOPC   C4B15654  12.847   9.689   6.871  0.1976 -0.1760  0.0018
 1069YOPC   NC315655  15.738  13.814   5.215 -0.0452  0.1635 -0.2905
 1069YOPC   PO415656  16.152  14.021   5.143 -0.0337 -0.1275 -0.0333
 1069YOPC   GL115657  16.487  14.188   5.494 -0.0260  0.2960  0.2089
 1069YOPC   GL215658  16.826  14.208   5.465  0.1113 -0.1800 -0.1025
 1069YOPC   C1A15659  16.570  14.197   5.929  0.0867 -0.3240 -0.0264
 1069YOPC   D2A15660  16.758  14.244   6.274  0.1433  0.0658 -0.0836
 1069YOPC   C3A15661  17.161  14.339   6.252 -0.1882 -0.1158 -0.2578
 1069YOPC   C4A15662  17.271  14.468   6.638 -0.0984 -0.1606 -0.0218
 1069YOPC   C1B15663  17.012  14.415   5.830 -0.2202 -0.1374 -0.0580
 1069YOPC   C2B15664  16.872  14.708   6.242 -0.2414  0.1595 -0.0185
 1069YOPC   D3B15665  16.812  14.598   6.691  0.3169  0.0861  0.1780
 1069YOPC   C4B15666  16.672  14.420   7.116 -0.0748  0.2334 -0.3212
 1070YOPC   NC315667   4.316   1.391   4.491  0.0030  0.1505 -0.0833
 1070YOPC   PO415668   4.190   1.669   4.761 -0.0974  0.1648  0.1930
 1070YOPC   GL115669   4.221   1.709   5.129 -0.0713 -0.0130 -0.0215
 1070YOPC   GL215670   4.481   1.928   5.136 -0.3268 -0.2950 -0.0725
 1070YOPC   C1A15671   4.071   1.695   5.482 -0.3729 -0.3297  0.1052
 1070YOPC   D2A15672   4.127   1.732   5.958  0.2502  0.1687  0.0341
 1070YOPC   C3A15673   3.791   1.971   6.176 -0.1529 -0.0007  0.3456
 1070YOPC   C4A15674   3.400   1.822   6.419  0.0403 -0.0740  0.2951
 1070YOPC   C1B15675   4.518   1.882   5.659  0.1144  0.0547  0.0669
 1070YOPC   C2B15676   4.594   1.608   5.984 -0.3391  0.0513  0.1618
 1070YOPC   D3B15677   4.724   1.130   5.921 -0.0593 -0.1042  0.1175
 1070YOPC   C4B15678   5.134   0.960   5.696 -0.0645  0.3621 -0.1049
 1071YOPC   NC315679   2.528   7.664   4.782 -0.0473  0.2756 -0.2605
 1071YOPC   PO415680   2.126   7.605   5.053 -0.1873  0.2902 -0.2585
 1071YOPC   GL115681   2.050   7.862   5.447  0.0873 -0.3350 -0.1404
 1071YOPC   GL215682   1.877   8.104   5.381 -0.2191 -0.1114 -0.2041
 1071YOPC   C1A15683   2.260   7.944   5.807  0.1104 -0.0451 -0.0280
 1071YOPC   D2A15684   2.515   7.846   6.136 -0.4982  0.0437  0.2019
 1071YOPC   C3A15685   2.619   8.234   6.449 -0.1709  0.0965 -0.1145
 1071YOPC   C4A15686   2.983   8.211   6.737 -0.4730 -0.2725 -0.4778
 1071YOPC   C1B15687   1.771   8.159   5.793  0.3991  0.1384  0.2112
 1071YOPC   C2B15688   1.689   7.894   6.123 -0.0183  0.3911 -0.2251
 1071YOPC   D3B15689   1.402   7.598   6.320  0.3201  0.2341 -0.0660
 1071YOPC   C4B15690   1.280   7.295   6.454 -0.1030  0.1676 -0.0542
 1072YOPC   NC315691  11.561   3.046   5.005 -0.0443  0.2156 -0.0870
 1072YOPC   PO415692  11.230   2.821   5.174 -0.0722  0.0635  0.3935
 1072YOPC   GL115693  11.164   3.184   5.367  0.1577  0.0983 -0.0353
 1072YOPC   GL215694  11.080   3.041   5.580  0.0464 -0.0984 -0.0882
 1072YOPC   C1A15695  11.071   3.580   5.436  0.1183 -0.0296 -0.0159
 1072YOPC   D2A15696  11.363   3.981   5.538 -0.3178 -0.3397  0.1635
 1072YOPC   C3A15697  11.323   4.210   5.858  0.2444  0.2763  0.0509
 1072YOPC   C4A15698  11.312   4.039   6.316  0.2183  0.1480 -0.1206
 1072YOPC   C1B15699  11.003   3.342   5.927  0.0989  0.1116  0.0127
 1072YOPC   C2B15700  11.006   3.815   5.885 -0.1204 -0.1130  0.0999
 1072YOPC   D3B15701  10.858   4.025   6.180  0.1957  0.1614  0.0511
 1072YOPC   C4B15702  10.472   4.256   6.328  0.1928  0.0990  0.0706
 1073YOPC   NC315703  18.180  12.445   4.910 -0.0491  0.2707  0.0243
 1073YOPC   PO415704  17.734  12.535   4.883  0.0007 -0.0476 -0.2294
 1073YOPC   GL115705  17.921  12.597   5.315  0.1544  0.0775  0.0770
 1073YOPC   GL215706  18.310  12.702   5.343  0.3024  0.1483 -0.1439
 1073YOPC   C1A15707  17.910  12.322   5.691  0.1213  0.1927 -0.2321
 1073YOPC   D2A15708  17.932  11.935   6.054  0.0046  0.1380 -0.1601
 1073YOPC   C3A15709  17.992  11.775   6.461 -0.2232 -0.2082 -0.0254
 1073YOPC   C4A15710  18.223  11.830   6.796  0.2617  0.2676  0.0457
 1073YOPC   C1B15711  18.364  12.571   5.737 -0.1671 -0.0936  0.0138
 1073YOPC   C2B15712  18.380  12.768   6.147 -0.1334 -0.2585 -0.4362
 1073YOPC   D3B15713  18.299  12.484   6.487 -0.1323 -0.0104 -0.2338
 1073YOPC   C4B15714  18.022  12.344   6.721 -0.2950  0.1709 -0.1116
 1074YOPC   NC315715  14.614   3.538   5.424  0.2885  0.1113 -0.1643
 1074YOPC   PO415716  14.281   3.187   5.454 -0.2685 -0.1418  0.0275
 1074YOPC   GL115717  14.610   3.074   5.770 -0.0824  0.1870  0.4878
 1074YOPC   GL215718  14.532   2.690   5.791  0.0193  0.0115 -0.1489
 1074YOPC   C1A15719  14.812   3.190   6.221 -0.1818 -0.1881 -0.3215
 1074YOPC   D2A15720  14.720   3.267   6.611 -0.0823  0.1348 -0.2097
 1074YOPC   C3A15721  14.422   3.098   6.709 -0.3241 -0.0396  0.0628
 1074YOPC   C4A15722  14.005   3.131   6.559  0.0637 -0.2694 -0.1540
 1074YOPC   C1B15723  14.414   2.781   6.237 -0.3607 -0.2525  0.0569
 1074YOPC   C2B15724  14.160   2.578   6.528 -0.0673  0.0427  0.2247
 1074YOPC   D3B15725  14.395   2.603   6.962  0.2114 -0.2177  0.0081
 1074YOPC   C4B15726  14.600   2.742   7.380  0.2500 -0.0969 -0.0182
 1075YOPC   NC315727  15.250   9.626   5.050  0.1960 -0.2158  0.0592
 1075YOPC   PO415728  15.675   9.721   5.120 -0.1579 -0.2986 -0.3402
 1075YOPC   GL115729  15.676   9.591   5.478  0.0893 -0.1035  0.0081
 1075YOPC   GL215730  15.334   9.390   5.529  0.1035  0.0899 -0.1213
 1075YOPC   C1A15731  15.668   9.783   5.857 -0.0300  0.1730 -0.1742
 1075YOPC   D2A15732  15.679   9.549   6.184  0.0277 -0.4521 -0.1911
 1075YOPC   C3A15733  15.669   9.132   6.303 -0.2095  0.2889  0.0027
 1075YOPC   C4A15734  15.833   8.802   6.532  0.1620 -0.2645  0.0522
 1075YOPC   C1B15735  15.703   9.201   5.779  0.2149 -0.0856  0.4732
 1075YOPC   C2B15736  15.869   8.830   5.983 -0.0664 -0.2853  0.2938
 1075YOPC   D3B15737  16.269   8.637   5.998  0.4152 -0.1613 -0.1071
 1075YOPC   C4B15738  16.628   8.363   6.234  0.2431 -0.0789 -0.0468
 1076YOPC   NC315739   1.368  18.475   4.704 -0.1694  0.0166 -0.0748
 1076YOPC   PO415740   1.459  18.064   4.613 -0.1893 -0.0110  0.2725
 1076YOPC   GL115741   1.508  18.032   5.052  0.3553 -0.2003  0.1953
 1076YOPC   GL215742   1.475  18.321   5.233  0.0356 -0.0496 -0.0705
 1076YOPC   C1A15743   1.665  17.848   5.350 -0.0872 -0.2748  0.4566
 1076YOPC   D2A15744   1.429  17.682   5.660  0.3248 -0.1602 -0.0576
 1076YOPC   C3A15745   1.452  17.699   6.072  0.1654  0.1236 -0.0032
 1076YOPC   C4A15746   1.698  17.829   6.366  0.0455 -0.0276  0.3338
 1076YOPC   C1B15747   1.470  18.772   5.544  0.2844 -0.2731  0.2160
 1076YOPC   C2B15748   1.763  18.839   5.924 -0.0661  0.0166 -0.2947
 1076YOPC   D3B15749   1.992  18.933   6.213 -0.0881  0.0232  0.1000
 1076YOPC   C4B15750   2.308  18.840   6.452 -0.1629 -0.3515  0.1185
 1077YOPC   NC315751   5.910   2.644   4.537  0.0848 -0.1517 -0.0700
 1077YOPC   PO415752   5.877   2.614   4.972 -0.0507 -0.4620 -0.2101
 1077YOPC   GL115753   5.697   2.822   5.280  0.0578 -0.0190 -0.1294
 1077YOPC   GL215754   5.611   2.609   5.391  0.1560  0.0993  0.0268
 1077YOPC   C1A15755   5.854   3.235   5.467  0.0140  0.2079 -0.0273
 1077YOPC   D2A15756   5.901   3.455   5.778 -0.1080 -0.1595 -0.1109
 1077YOPC   C3A15757   5.689   3.698   6.077 -0.0717  0.1363 -0.2511
 1077YOPC   C4A15758   5.822   4.024   6.347 -0.0194 -0.1977 -0.0222
 1077YOPC   C1B15759   5.236   2.978   5.397  0.0918  0.2406 -0.1739
 1077YOPC   C2B15760   4.784   3.100   5.450  0.1028 -0.0160  0.1350
 1077YOPC   D3B15761   4.612   2.870   5.770  0.2872  0.0828  0.0375
 1077YOPC   C4B15762   4.619   2.642   6.217  0.3639 -0.3024  0.0634
 1078YOPC   NC315763   2.501  11.685   4.489 -0.2253 -0.0641  0.1304
 1078YOPC   PO415764   2.730  11.232   4.758 -0.1715 -0.0860 -0.1742
 1078YOPC   GL115765   2.547  11.103   5.075  0.2039 -0.0810 -0.1512
 1078YOPC   GL215766   2.228  11.078   5.159 -0.0934  0.2415 -0.1333
 1078YOPC   C1A15767   2.842  10.882   5.410  0.0787 -0.1037 -0.2226
 1078YOPC   D2A15768   2.794  10.771   5.787  0.0127  0.1507 -0.2643
 1078YOPC   C3A15769   2.782  10.991   6.138  0.0845  0.3711 -0.2542
 1078YOPC   C4A15770   2.743  11.138   6.539 -0.1973 -0.0202 -0.0164
 1078YOPC   C1B15771   2.275  11.310   5.569  0.0004  0.1795  0.1676
 1078YOPC   C2B15772   2.236  11.604   5.912 -0.1098  0.1746  0.1660
 1078YOPC   D3B15773   2.423  11.952   5.945  0.1539  0.0561  0.1350
 1078YOPC   C4B15774   2.899  11.909   5.802  0.1075  0.2582 -0.0347
 1079YOPC   NC315775  17.571   3.061   4.706 -0.0388  0.1564 -0.1444
 1079YOPC   PO415776  17.344   3.037   5.210 -0.1289  0.3060  0.1413
 1079YOPC   GL115777  17.622   3.141   5.554 -0.0025  0.2517 -0.1236
 1079YOPC   GL215778  17.529   3.353   5.777 -0.1414 -0.2051  0.0312
 1079YOPC   C1A15779  18.065   3.168   5.507  0.2242 -0.1912  0.1190
 1079YOPC   D2A15780  18.361   2.912   5.710  0.0120  0.1593  0.0840
 1079YOPC   C3A15781  18.734   3.184   6.099  0.1506  0.1630 -0.0752
 1079YOPC   C4A15782  18.698   3.598   6.357  0.0764  0.2018 -0.3713
 1079YOPC   C1B15783  17.857   3.159   6.048 -0.1491 -0.0794 -0.0410
 1079YOPC   C2B15784  18.279   3.023   6.182 -0.1115 -0.3692  0.1169
 1079YOPC   D3B15785  18.513   3.218   6.552 -0.0026 -0.2806 -0.0335
 1079YOPC   C4B15786  18.505   3.496   6.839  0.1604  0.1602  0.0561
 1080YOPC   NC315787  12.051   9.210   4.766  0.2896  0.0447 -0.0309
 1080YOPC   PO415788  12.329   9.107   5.066  0.3425 -0.1086  0.0501
 1080YOPC   GL115789  12.085   8.831   5.234  0.1981  0.3968  0.0629
 1080YOPC   GL215790  11.828   8.598   5.091 -0.0941 -0.0565 -0.1173
 1080YOPC   C1A15791  11.727   8.804   5.508  0.2859 -0.2281 -0.0007
 1080YOPC   D2A15792  11.772   8.779   5.950 -0.0877 -0.1409 -0.0523
 1080YOPC   C3A15793  11.960   9.066   6.149 -0.0507 -0.1432  0.0147
 1080YOPC   C4A15794  12.174   9.294   6.457 -0.3083 -0.1601 -0.0318
 1080YOPC   C1B15795  11.962   8.262   5.467 -0.2258 -0.0215  0.1329
 1080YOPC   C2B15796  12.333   8.268   5.613  0.1681  0.0319 -0.2068
 1080YOPC   D3B15797  12.475   7.833   5.705 -0.1339 -0.0272 -0.1860
 1080YOPC   C4B15798  12.882   7.556   5.735 -0.3131  0.1897  0.0010
 1081YOPC   NC315799   8.819  15.002   4.253 -0.0933  0.0955  0.1057
 1081YOPC   PO415800   8.556  15.069   4.619 -0.2020  0.1657 -0.1124
 1081YOPC   GL115801   8.495  15.047   5.114 -0.0117 -0.2125  0.1128
 1081YOPC   GL215802   8.140  14.839   5.015 -0.0419 -0.0635 -0.0193
 1081YOPC   C1A15803   8.400  15.309   5.502 -0.0604  0.1923 -0.2996
 1081YOPC   D2A15804   8.075  15.672   5.496 -0.4029  0.0731  0.1626
 1081YOPC   C3A15805   7.704  15.747   5.891 -0.0716  0.1966  0.2950
 1081YOPC   C4A15806   7.686  16.053   6.135 -0.0482  0.2037  0.3247
 1081YOPC   C1B15807   7.913  15.116   5.391  0.0496 -0.0478  0.3223
 1081YOPC   C2B15808   7.982  15.314   5.858  0.0773 -0.1724  0.0223
 1081YOPC   D3B15809   8.457  15.547   5.961  0.1169  0.4259 -0.3382
 1081YOPC   C4B15810   8.446  15.958   5.815  0.0283 -0.1141 -0.2374
 1082YOPC   NC315811   5.931   4.248   4.663 -0.0738 -0.0971 -0.2118
 1082YOPC   PO415812   6.124   3.822   4.720 -0.1710 -0.0204 -0.0029
 1082YOPC   GL115813   6.281   3.880   5.128  0.4639  0.0665  0.0484
 1082YOPC   GL215814   6.175   3.470   5.150  0.1975 -0.0132  0.0070
 1082YOPC   C1A15815   6.353   4.233   5.240 -0.1007  0.0168 -0.3220
 1082YOPC   D2A15816   6.666   4.422   5.452 -0.2149  0.1918  0.2960
 1082YOPC   C3A15817   7.086   4.187   5.561 -0.1201 -0.0004  0.1662
 1082YOPC   C4A15818   7.513   4.033   5.832 -0.1705  0.2448  0.2759
 1082YOPC   C1B15819   6.292   3.626   5.558 -0.3622  0.0367 -0.3963
 1082YOPC   C2B15820   6.312   3.667   6.015 -0.0784 -0.1787 -0.1535
 1082YOPC   D3B15821   6.485   4.011   6.209 -0.2150 -0.0025 -0.0992
 1082YOPC   C4B15822   6.285   4.292   6.422 -0.0062 -0.0162 -0.0967
 1083YOPC   NC315823  18.746  17.775   5.147  0.1005 -0.1874 -0.0788
 1083YOPC   PO415824  18.990  17.383   4.931 -0.0455  0.0413  0.0399
 1083YOPC   GL115825  19.098  17.463   5.403 -0.0799 -0.2487 -0.0045
 1083YOPC   GL215826  19.254  17.218   5.492 -0.2995 -0.0398 -0.3628
 1083YOPC   C1A15827  18.923  17.620   5.750 -0.1802 -0.2406 -0.1887
 1083YOPC   D2A15828  18.894  17.655   6.220 -0.0862  0.1818 -0.0829
 1083YOPC   C3A15829  18.793  18.048   6.468  0.2498 -0.0934 -0.3914
 1083YOPC   C4A15830  18.717  18.394   6.868 -0.1316 -0.1734  0.2488
 1083YOPC   C1B15831  19.585  17.115   5.591 -0.2401 -0.2607  0.0248
 1083YOPC   C2B15832  19.779  16.936   5.907  0.3952 -0.3042 -0.2319
 1083YOPC   D3B15833  20.114  17.174   5.974  0.2448 -0.0796  0.1293
 1083YOPC   C4B15834  20.568  17.218   5.982  0.0962 -0.0782  0.1534
 1084YOPC   NC315835  19.188   0.200   5.220  0.2073 -0.2159  0.1459
 1084YOPC   PO415836  18.805   0.007   5.328 -0.1860  0.0170  0.1616
 1084YOPC   GL115837  19.052   0.096   5.684 -0.0568  0.0672 -0.0396
 1084YOPC   GL215838  18.936   0.040   5.905 -0.1728  0.2458  0.3539
 1084YOPC   C1A15839  19.400   0.236   6.058  0.2521 -0.1194 -0.1119
 1084YOPC   D2A15840  19.739   0.479   6.240 -0.0869 -0.1330  0.3029
 1084YOPC   C3A15841  19.980   0.757   6.492  0.2758 -0.0995  0.0258
 1084YOPC   C4A15842  19.834   1.158   6.649  0.1546 -0.0473 -0.1227
 1084YOPC   C1B15843  19.010  -0.078   6.424  0.1698  0.1963  0.0018
 1084YOPC   C2B15844  19.058  -0.002   6.863  0.1987  0.2189  0.0502
 1084YOPC   D3B15845  18.792   0.262   7.176 -0.2040  0.0528  0.0192
 1084YOPC   C4B15846  18.585   0.120   7.545  0.0746  0.1637  0.1262
 1085YOPC   NC315847  14.528   8.215   4.656 -0.0674  0.3586  0.0860
 1085YOPC   PO415848  14.686   8.550   5.022  0.0961  0.1538  0.0634
 1085YOPC   GL115849  14.697   8.718   5.395  0.1864 -0.1017 -0.0556
 1085YOPC   GL215850  14.572   8.527   5.712 -0.2772 -0.4025  0.0106
 1085YOPC   C1A15851  15.018   9.026   5.452 -0.1206 -0.0973  0.4530
 1085YOPC   D2A15852  15.150   9.108   5.885  0.2063 -0.2152 -0.1058
 1085YOPC   C3A15853  15.184   9.540   6.013  0.1273  0.1319  0.7561
 1085YOPC   C4A15854  15.226   9.861   5.669  0.0773  0.0683 -0.1785
 1085YOPC   C1B15855  14.819   8.739   5.896  0.3441 -0.1664 -0.0590
 1085YOPC   C2B15856  14.707   9.124   6.023 -0.1020 -0.1065 -0.1017
 1085YOPC   D3B15857  14.399   9.298   6.359 -0.2734 -0.2209 -0.0088
 1085YOPC   C4B15858  14.166   9.431   6.758  0.3472 -0.0922 -0.0598
 1086YOPC   NC315859   2.956  13.704   5.083  0.2855  0.1991  0.1412
 1086YOPC   PO415860   2.945  14.221   4.983 -0.1252  0.1680 -0.0874
 1086YOPC   GL115861   3.217  14.103   5.321  0.1253 -0.0267 -0.0260
 1086YOPC   GL215862   3.145  14.390   5.465 -0.3346 -0.1945  0.0978
 1086YOPC   C1A15863   3.155  13.822   5.738 -0.3371 -0.0580  0.2584
 1086YOPC   D2A15864   3.169  13.458   5.960 -0.1221  0.0124 -0.1207
 1086YOPC   C3A15865   3.396  13.371   6.366 -0.1797  0.0240  0.1466
 1086YOPC   C4A15866   3.634  12.988   6.547 -0.0827 -0.0610  0.4619
 1086YOPC   C1B15867   3.245  14.368   5.775  0.1968  0.0636 -0.0210
 1086YOPC   C2B15868   3.166  14.202   6.239  0.1114  0.3186  0.1772
 1086YOPC   D3B15869   2.936  13.846   6.164  0.0215 -0.2960 -0.2295
 1086YOPC   C4B15870   2.598  13.819   6.459 -0.1210  0.1811  0.0348
 1087YOPC   NC315871  16.988  13.382   5.144  0.1676  0.2408 -0.2109
 1087YOPC   PO415872  17.429  13.460   5.002  0.1623 -0.1022  0.1248
 1087YOPC   GL115873  17.705  13.248   5.283  0.2561  0.1146 -0.0267
 1087YOPC   GL215874  17.569  12.994   5.300 -0.0193  0.1914  0.1180
 1087YOPC   C1A15875  18.084  13.334   5.399 -0.0776  0.3367  0.1750
 1087YOPC   D2A15876  18.394  13.560   5.462 -0.0412  0.0589  0.0260
 1087YOPC   C3A15877  18.350  13.795   5.880 -0.1055  0.2335  0.0963
 1087YOPC   C4A15878  18.345  13.652   6.345  0.1741 -0.1138 -0.0974
 1087YOPC   C1B15879  17.889  12.957   5.688  0.1099  0.1778 -0.0423
 1087YOPC   C2B15880  17.853  12.909   6.104  0.1488 -0.1202 -0.0725
 1087YOPC   D3B15881  17.572  13.193   6.403  0.1574 -0.3100 -0.0089
 1087YOPC   C4B15882  17.635  13.425   6.778  0.3668  0.0844  0.1018
 1088YOPC   NC315883   0.609  18.643   4.991 -0.1220  0.2997 -0.1458
 1088YOPC   PO415884   0.681  19.062   4.825  0.0679 -0.3414 -0.0139
 1088YOPC   GL115885   0.701  19.305   5.159 -0.2458 -0.4069 -0.1291
 1088YOPC   GL215886   1.099  19.255   5.254  0.5015 -0.3622 -0.2614
 1088YOPC   C1A15887   0.676  19.581   5.550  0.0663 -0.1291  0.2172
 1088YOPC   D2A15888   0.401  19.607   5.838  0.2848 -0.0612  0.0768
 1088YOPC   C3A15889   0.369  19.667   6.238  0.0358  0.1576 -0.2088
 1088YOPC   C4A15890   0.581  19.864   6.479 -0.0063  0.3080  0.0069
 1088YOPC   C1B15891   1.032  18.979   5.604  0.0162  0.3792  0.1260
 1088YOPC   C2B15892   0.733  19.175   5.868  0.0456  0.1705 -0.0864
 1088YOPC   D3B15893   0.889  19.643   6.072 -0.1544 -0.2858  0.1773
 1088YOPC   C4B15894   0.987  20.034   6.249  0.0332 -0.0221  0.1813
 1089YOPC   NC315895   7.658   4.190   4.840  0.1781 -0.1163 -0.3073
 1089YOPC   PO415896   7.379   3.754   4.871 -0.0040 -0.2542 -0.0004
 1089YOPC   GL115897   7.238   3.758   5.257 -0.2763  0.2687 -0.1895
 1089YOPC   GL215898   6.919   3.860   5.064 -0.0587  0.0144 -0.0541
 1089YOPC   C1A15899   7.198   3.684   5.638 -0.2955  0.0373 -0.1990
 1089YOPC   D2A15900   7.141   3.781   6.020 -0.1779  0.2776  0.0426
 1089YOPC   C3A15901   7.205   3.945   6.368 -0.4954 -0.0588  0.0085
 1089YOPC   C4A15902   7.437   3.990   6.753 -0.1425 -0.0017 -0.0179
 1089YOPC   C1B15903   6.725   3.865   5.440  0.1090 -0.2093  0.0709
 1089YOPC   C2B15904   6.718   4.041   5.804 -0.0882 -0.2691 -0.2194
 1089YOPC   D3B15905   6.974   4.266   6.101  0.1854 -0.0516  0.1470
 1089YOPC   C4B15906   6.882   4.293   6.538 -0.1830  0.0967  0.1482
 1090YOPC   NC315907  17.053   8.034   5.454 -0.3279 -0.0251 -0.0655
 1090YOPC   PO415908  17.366   7.613   5.281 -0.1270  0.2895 -0.3960
 1090YOPC   GL115909  17.323   7.616   5.698 -0.3357  0.1189 -0.1718
 1090YOPC   GL215910  17.531   7.684   5.831  0.0570  0.1773  0.1440
 1090YOPC   C1A15911  17.090   7.546   6.117 -0.1728 -0.1214  0.0470
 1090YOPC   D2A15912  16.951   7.447   6.465 -0.1619 -0.0171  0.0384
 1090YOPC   C3A15913  17.156   7.275   6.843 -0.0047  0.0190  0.1520
 1090YOPC   C4A15914  17.052   6.910   7.286  0.0629 -0.1451  0.1033
 1090YOPC   C1B15915  17.750   7.863   6.167 -0.1186  0.2422  0.3273
 1090YOPC   C2B15916  17.784   7.935   6.428 -0.2353 -0.2629  0.1072
 1090YOPC   D3B15917  17.587   8.228   6.616 -0.1541  0.1697  0.1700
 1090YOPC   C4B15918  17.684   8.664   6.669 -0.1264 -0.0492 -0.0292
 1091YOPC   NC315919   5.312  13.674   4.902 -0.1621  0.4199  0.0790
 1091YOPC   PO415920   5.773  13.578   5.091  0.3258  0.2627 -0.0405
 1091YOPC   GL115921   5.451  13.511   5.389  0.2617  0.2044  0.1233
 1091YOPC   GL215922   5.480  13.207   5.570 -0.1032  0.0367 -0.3383
 1091YOPC   C1A15923   5.186  13.726   5.741 -0.0138  0.0721  0.1661
 1091YOPC   D2A15924   4.795  13.685   5.968  0.1079  0.1762  0.1902
 1091YOPC   C3A15925   4.669  13.222   5.979 -0.1688  0.2188 -0.4032
 1091YOPC   C4A15926   4.567  12.804   6.261  0.4797 -0.2617  0.3236
 1091YOPC   C1B15927   5.820  13.090   5.793  0.0579  0.6100  0.0003
 1091YOPC   C2B15928   6.223  13.020   5.666  0.0106 -0.1431 -0.2181
 1091YOPC   D3B15929   6.551  12.761   5.674 -0.0475  0.1829  0.0369
 1091YOPC   C4B15930   6.783  12.580   5.888 -0.2573  0.0312 -0.1742
 1092YOPC   NC315931   7.599   8.333   5.095  0.0452 -0.1778  0.0486
 1092YOPC   PO415932   7.181   8.524   4.976  0.0152  0.1477  0.0548
 1092YOPC   GL115933   7.274   8.703   5.311  0.0397 -0.1347  0.0199
 1092YOPC   GL215934   6.918   8.641   5.414  0.2465  0.0773  0.0716
 1092YOPC   C1A15935   7.461   8.557   5.689  0.0414 -0.0365  0.2365
 1092YOPC   D2A15936   7.728   8.281   5.912  0.0042  0.2957 -0.0024
 1092YOPC   C3A15937   8.132   8.102   5.882  0.0219 -0.0780 -0.0290
 1092YOPC   C4A15938   8.513   7.962   5.715  0.4132  0.0899  0.0374
 1092YOPC   C1B15939   7.029   8.486   5.807  0.0259  0.2749 -0.4674
 1092YOPC   C2B15940   7.336   8.514   6.127  0.0535  0.0041 -0.0032
 1092YOPC   D3B15941   7.408   8.136   6.258 -0.0089  0.0271  0.2366
 1092YOPC   C4B15942   7.739   7.996   6.445  0.1888 -0.6196  0.0426
 1093YOPC   NC315943  13.429  11.079   4.991 -0.0826  0.2076  0.1961
 1093YOPC   PO415944  13.648  11.375   4.850  0.4095 -0.0136 -0.0875
 1093YOPC   GL115945  13.791  11.466   5.243 -0.2799 -0.1080 -0.0028
 1093YOPC   GL215946  14.079  11.504   5.334 -0.3530  0.0261  0.0569
 1093YOPC   C1A15947  13.710  11.373   5.671  0.2098 -0.0820 -0.1561
 1093YOPC   D2A15948  13.349  11.461   5.883  0.1177  0.1803  0.2573
 1093YOPC   C3A15949  13.488  11.555   6.329 -0.0235  0.2860  0.0901
 1093YOPC   C4A15950  13.481  11.480   6.751  0.1069  0.1727 -0.3407
 1093YOPC   C1B15951  14.254  11.572   5.677  0.2730 -0.2730  0.0044
 1093YOPC   C2B15952  14.377  11.854   5.936  0.1454  0.1359 -0.0743
 1093YOPC   D3B15953  14.167  11.964   6.247 -0.0689  0.0609  0.1533
 1093YOPC   C4B15954  13.922  11.710   6.508 -0.2969 -0.0244  0.1306
 1094YOPC   NC315955   8.930  17.219   4.405 -0.0101 -0.0045 -0.1490
 1094YOPC   PO415956   9.234  17.323   4.609 -0.1474  0.0296 -0.0686
 1094YOPC   GL115957   9.422  17.281   5.052  0.0061 -0.3470 -0.0995
 1094YOPC   GL215958   9.400  16.986   5.250  0.1715  0.1114 -0.2385
 1094YOPC   C1A15959   9.458  17.534   5.412 -0.0560  0.1833  0.3065
 1094YOPC   D2A15960   9.720  17.766   5.668 -0.1469  0.0286 -0.0415
 1094YOPC   C3A15961   9.706  17.880   6.062 -0.1866 -0.1910 -0.1222
 1094YOPC   C4A15962  10.019  18.029   6.430  0.1354 -0.3310  0.2865
 1094YOPC   C1B15963   9.102  17.074   5.530  0.1726  0.3669  0.0378
 1094YOPC   C2B15964   8.979  16.987   5.881  0.0103  0.1253  0.0471
 1094YOPC   D3B15965   9.320  17.126   6.183  0.0488 -0.3375  0.0505
 1094YOPC   C4B15966   9.363  17.383   6.628  0.0892  0.3753 -0.0565
 1095YOPC   NC315967   0.346   3.300   4.761 -0.0902  0.0562 -0.1295
 1095YOPC   PO415968   0.189   3.793   4.810  0.1897  0.4135  0.1403
 1095YOPC   GL115969   0.195   3.801   5.206 -0.1662  0.0419  0.2187
 1095YOPC   GL215970  -0.086   3.884   5.277  0.4380 -0.1664  0.2048
 1095YOPC   C1A15971   0.303   4.111   5.616 -0.1043  0.4895  0.1664
 1095YOPC   D2A15972   0.573   4.015   5.993  0.2301 -0.2127  0.0380
 1095YOPC   C3A15973   0.709   3.985   6.460 -0.0931  0.1281 -0.1626
 1095YOPC   C4A15974   0.520   3.988   6.853  0.0047  0.0804  0.0114
 1095YOPC   C1B15975  -0.171   3.767   5.698 -0.0879  0.4411  0.1373
 1095YOPC   C2B15976  -0.156   3.850   6.085 -0.0354  0.1537 -0.1580
 1095YOPC   D3B15977  -0.036   4.296   6.171 -0.0008 -0.1545  0.0552
 1095YOPC   C4B15978  -0.223   4.506   6.526  0.3806  0.1043  0.1285
 1096YOPC   NC315979  17.282  15.542   4.813  0.2218 -0.2035 -0.1372
 1096YOPC   PO415980  17.000  15.639   5.006 -0.0974 -0.2054 -0.0448
 1096YOPC   GL115981  17.112  15.526   5.498  0.3310  0.0764  0.0203
 1096YOPC   GL215982  16.793  15.519   5.748  0.1646 -0.0093  0.0313
 1096YOPC   C1A15983  17.196  15.473   5.992 -0.0052  0.2526 -0.3640
 1096YOPC   D2A15984  17.330  15.491   6.435  0.0399  0.1921  0.0554
 1096YOPC   C3A15985  17.225  15.502   6.903 -0.1197  0.1840 -0.1437
 1096YOPC   C4A15986  17.241  15.823   7.182 -0.0063  0.2224  0.2446
 1096YOPC   C1B15987  17.118  15.888   5.843  0.0275 -0.1429 -0.0300
 1096YOPC   C2B15988  16.876  16.160   6.100 -0.2217 -0.2579 -0.2858
 1096YOPC   D3B15989  17.065  16.347   6.468  0.1631  0.2007 -0.3893
 1096YOPC   C4B15990  17.329  16.363   6.797  0.0939 -0.2613 -0.3187
 1097YOPC   NC315991  16.285   3.341   5.248  0.1451  0.0454  0.0207
 1097YOPC   PO415992  15.846   3.322   5.335  0.2331 -0.0506 -0.1487
 1097YOPC   GL115993  15.912   3.326   5.735 -0.0002  0.0324 -0.1413
 1097YOPC   GL215994  15.798   3.572   5.861  0.1330 -0.1847  0.2688
 1097YOPC   C1A15995  15.995   3.262   6.124 -0.2128  0.3633 -0.3778
 1097YOPC   D2A15996  16.068   3.140   6.541  0.2083  0.0265 -0.1888
 1097YOPC   C3A15997  15.861   2.852   6.831 -0.0635  0.0867 -0.0861
 1097YOPC   C4A15998  15.479   2.771   6.970 -0.2116 -0.2971  0.0006
 1097YOPC   C1B15999  16.124   3.765   6.082  0.0489 -0.1492  0.2259
 1097YOPC   C2B16000  16.424   3.872   6.057 -0.0655  0.0242  0.1734
 1097YOPC   D3B16001  16.629   4.061   6.441  0.1066  0.0948 -0.1059
 1097YOPC   C4B16002  16.822   4.197   6.755 -0.0442  0.0258 -0.0392
 1098YOPC   NC316003   9.627  18.035   4.424  0.1255 -0.0558 -0.1256
 1098YOPC   PO416004   9.202  17.970   4.484  0.0166 -0.4369  0.0385
 1098YOPC   GL116005   9.364  17.816   4.900  0.1471 -0.0025 -0.0059
 1098YOPC   GL216006   9.020  17.684   5.079  0.0696 -0.0787  0.2354
 1098YOPC   C1A16007   9.753  18.060   5.250  0.0323  0.0727  0.0138
 1098YOPC   D2A16008   9.932  18.215   5.549  0.0305 -0.0533 -0.0776
 1098YOPC   C3A16009   9.996  18.345   5.931 -0.1188 -0.2718  0.0198
 1098YOPC   C4A16010  10.242  18.589   6.098  0.0386  0.0589  0.3581
 1098YOPC   C1B16011   9.058  17.858   5.464 -0.4345  0.2445  0.0169
 1098YOPC   C2B16012   9.029  18.048   5.917  0.0302 -0.1497 -0.4540
 1098YOPC   D3B16013   8.766  18.000   6.214  0.3082 -0.2776 -0.0038
 1098YOPC   C4B16014   8.468  17.838   6.647 -0.0920  0.0162 -0.1447
 1099YOPC   NC316015  19.848   8.072   4.909 -0.3800  0.1395  0.0135
 1099YOPC   PO416016  19.531   7.741   5.031  0.2954 -0.1677  0.1768
 1099YOPC   GL116017  19.376   7.786   5.437 -0.2676  0.0020 -0.0870
 1099YOPC   GL216018  19.064   7.545   5.485  0.0800 -0.2539 -0.1321
 1099YOPC   C1A16019  19.652   7.844   5.795 -0.1052 -0.2932 -0.0344
 1099YOPC   D2A16020  20.012   8.101   6.069 -0.3462  0.2170 -0.0080
 1099YOPC   C3A16021  20.396   7.957   6.194  0.1035 -0.2954  0.1764
 1099YOPC   C4A16022  20.770   7.744   6.281 -0.0778 -0.0830  0.0485
 1099YOPC   C1B16023  19.192   7.464   5.893 -0.0160  0.0657  0.4115
 1099YOPC   C2B16024  19.399   7.482   6.191  0.3061 -0.0302 -0.0721
 1099YOPC   D3B16025  19.406   7.841   6.343 -0.2815  0.1308 -0.2070
 1099YOPC   C4B16026  19.598   8.207   6.403 -0.0494  0.1698 -0.3068
 1100YOPC   NC316027  16.321  12.709   5.002  0.3255 -0.3626 -0.0103
 1100YOPC   PO416028  16.047  12.319   5.187 -0.4456  0.0674 -0.2204
 1100YOPC   GL116029  16.123  12.228   5.674 -0.3530  0.3375 -0.2002
 1100YOPC   GL216030  16.373  12.038   5.792  0.3447 -0.4096 -0.1964
 1100YOPC   C1A16031  16.268  12.387   6.144 -0.1411 -0.0177  0.4163
 1100YOPC   D2A16032  16.387  12.564   6.537  0.1620 -0.2090  0.0561
 1100YOPC   C3A16033  16.531  12.279   6.649 -0.0664 -0.2246  0.0274
 1100YOPC   C4A16034  16.793  11.888   6.771 -0.1268  0.3653  0.0091
 1100YOPC   C1B16035  16.626  11.977   6.134  0.3072  0.0125  0.0795
 1100YOPC   C2B16036  17.119  11.970   6.392 -0.1936  0.1307 -0.2947
 1100YOPC   D3B16037  17.478  12.162   6.229 -0.0903 -0.0471  0.0111
 1100YOPC   C4B16038  17.866  12.415   6.177  0.2483 -0.1996 -0.2000
 1101YOPC   NC316039   1.648   1.582   4.682 -0.0654 -0.1415 -0.0664
 1101YOPC   PO416040   1.228   1.410   4.692  0.1282  0.0793  0.2267
 1101YOPC   GL116041   1.529   1.417   5.126 -0.2016  0.3057  0.0414
 1101YOPC   GL216042   1.451   1.116   5.285 -0.0419  0.0452 -0.1576
 1101YOPC   C1A16043   1.750   1.616   5.590 -0.0520 -0.0444  0.0050
 1101YOPC   D2A16044   1.572   1.558   6.088 -0.0242 -0.0485  0.3002
 1101YOPC   C3A16045   1.510   1.341   6.438  0.1169 -0.0718  0.2323
 1101YOPC   C4A16046   1.632   1.020   6.793 -0.0735 -0.2157  0.0851
 1101YOPC   C1B16047   1.337   1.247   5.701 -0.0801 -0.0462  0.0359
 1101YOPC   C2B16048   1.173   1.127   6.156 -0.2868  0.0019 -0.2680
 1101YOPC   D3B16049   1.020   1.049   6.586  0.1235  0.3189 -0.0672
 1101YOPC   C4B16050   1.193   1.125   6.967  0.1571  0.2827 -0.3024
 1102YOPC   NC316051   6.526  15.429   4.647 -0.1292 -0.0096  0.3789
 1102YOPC   PO416052   6.237  15.669   4.602 -0.1250 -0.2304 -0.2608
 1102YOPC   GL116053   6.284  15.815   5.025  0.1444 -0.3837 -0.2219
 1102YOPC   GL216054   6.277  16.071   5.234  0.2149  0.0776 -0.3446
 1102YOPC   C1A16055   6.526  15.539   5.351  0.2467  0.0481  0.1034
 1102YOPC   D2A16056   6.825  15.462   5.609 -0.1903 -0.1988 -0.0201
 1102YOPC   C3A16057   6.870  15.550   6.036 -0.0431  0.1668  0.0544
 1102YOPC   C4A16058   6.594  15.743   6.303  0.3496 -0.3372 -0.0689
 1102YOPC   C1B16059   5.900  15.883   5.655  0.0520  0.0637 -0.5408
 1102YOPC   C2B16060   5.549  15.702   5.677  0.4932 -0.1980  0.1837
 1102YOPC   D3B16061   5.104  15.947   5.810  0.2794 -0.0575  0.1966
 1102YOPC   C4B16062   4.656  15.963   5.996 -0.1128  0.1745  0.4191
 1103YOPC   NC316063   8.458   2.956   4.630  0.2149 -0.0096 -0.0692
 1103YOPC   PO416064   8.283   2.698   4.850 -0.1056  0.0571 -0.1729
 1103YOPC   GL116065   8.081   2.629   5.234  0.0788  0.0001  0.4034
 1103YOPC   GL216066   7.927   2.323   5.333  0.0417  0.1930  0.2404
 1103YOPC   C1A16067   8.201   2.724   5.588  0.1166  0.2125  0.1836
 1103YOPC   D2A16068   8.146   2.722   6.049  0.0013 -0.4263  0.0897
 1103YOPC   C3A16069   7.891   3.059   6.209  0.2025 -0.2177  0.2916
 1103YOPC   C4A16070   8.171   3.466   6.174  0.0364  0.0226 -0.0726
 1103YOPC   C1B16071   7.847   2.259   5.696 -0.1712 -0.0121 -0.0609
 1103YOPC   C2B16072   7.949   1.981   6.017 -0.0235  0.1855 -0.2214
 1103YOPC   D3B16073   8.170   1.537   6.029 -0.0512 -0.2256  0.3555
 1103YOPC   C4B16074   8.060   1.299   6.325  0.0851 -0.2239  0.0035
 1104YOPC   NC316075   9.221   0.442   4.880  0.0020 -0.0209 -0.0805
 1104YOPC   PO416076   9.410   0.892   4.807 -0.0732 -0.1384 -0.0894
 1104YOPC   GL116077   9.562   0.871   5.227 -0.0178 -0.0046 -0.0659
 1104YOPC   GL216078   9.513   0.577   5.355 -0.1704  0.0758  0.2319
 1104YOPC   C1A16079   9.956   0.806   5.530  0.0403 -0.0771 -0.0005
 1104YOPC   D2A16080  10.179   0.647   5.966  0.0245  0.0486 -0.1445
 1104YOPC   C3A16081  10.606   0.937   6.131  0.3149  0.1542  0.3754
 1104YOPC   C4A16082  10.678   1.394   6.098  0.0979  0.2761 -0.0878
 1104YOPC   C1B16083   9.238   0.461   5.626  0.3322  0.0420  0.1852
 1104YOPC   C2B16084   9.074   0.714   6.051  0.3199  0.0551  0.3642
 1104YOPC   D3B16085   8.830   0.503   6.300  0.3126  0.1008 -0.0626
 1104YOPC   C4B16086   8.689   0.451   6.729 -0.0839  0.1283 -0.0775
 1105YOPC   NC316087   0.755   4.353   4.567  0.1100  0.0845 -0.0873
 1105YOPC   PO416088   1.075   4.310   4.585  0.2541  0.0788  0.0099
 1105YOPC   GL116089   1.041   4.388   5.149  0.1331  0.0734  0.1649
 1105YOPC   GL216090   1.330   4.216   5.282  0.4300 -0.0380  0.2059
 1105YOPC   C1A16091   1.230   4.616   5.521  0.0867 -0.3693  0.0233
 1105YOPC   D2A16092   1.195   4.488   5.891  0.1627  0.3966  0.2588
 1105YOPC   C3A16093   1.568   4.350   6.132 -0.2293 -0.1555  0.0661
 1105YOPC   C4A16094   1.711   4.261   6.541 -0.2339  0.5076  0.0469
 1105YOPC   C1B16095   1.391   4.046   5.701  0.1115  0.6080  0.0861
 1105YOPC   C2B16096   1.610   3.760   6.089 -0.3517 -0.0587 -0.3685
 1105YOPC   D3B16097   2.012   3.969   6.208  0.1308 -0.4068  0.2824
 1105YOPC   C4B16098   2.285   4.081   6.500  0.2530 -0.0913 -0.0563
 1106YOPC   NC316099   5.552   1.980   4.612 -0.0391 -0.3310  0.1872
 1106YOPC   PO416100   5.108   2.013   4.773 -0.2796  0.0783 -0.1886
 1106YOPC   GL116101   5.150   2.123   5.204 -0.3080  0.0569 -0.2405
 1106YOPC   GL216102   4.958   1.938   5.301 -0.0881 -0.2325  0.3743
 1106YOPC   C1A16103   5.309   2.226   5.624  0.0499 -0.3261 -0.0521
 1106YOPC   D2A16104   5.573   2.452   5.888  0.1250 -0.3419 -0.0143
 1106YOPC   C3A16105   5.484   2.932   5.847 -0.3497 -0.1263 -0.4201
 1106YOPC   C4A16106   5.441   3.400   5.723  0.1430 -0.1483  0.0552
 1106YOPC   C1B16107   4.995   1.771   5.676  0.0675  0.0511 -0.1208
 1106YOPC   C2B16108   5.202   1.453   5.956 -0.0748 -0.1372  0.2721
 1106YOPC   D3B16109   5.073   1.693   6.340  0.0154 -0.0708  0.0111
 1106YOPC   C4B16110   5.005   2.094   6.625 -0.0062 -0.1745 -0.3503
 1107YOPC   NC316111  11.990  14.459   5.041 -0.1422  0.0120  0.0530
 1107YOPC   PO416112  12.129  14.019   5.076 -0.0905  0.2028  0.2313
 1107YOPC   GL116113  12.159  13.735   5.460 -0.1935 -0.2419  0.1756
 1107YOPC   GL216114  11.992  13.464   5.453 -0.1654  0.1319 -0.0424
 1107YOPC   C1A16115  12.064  13.616   5.925  0.0153  0.2996  0.3373
 1107YOPC   D2A16116  12.182  13.510   6.330 -0.2094 -0.0518  0.0549
 1107YOPC   C3A16117  11.800  13.482   6.610  0.1226  0.0541  0.2328
 1107YOPC   C4A16118  11.405  13.465   6.562 -0.1236  0.0708  0.1678
 1107YOPC   C1B16119  11.618  13.082   5.508 -0.0749  0.1665  0.3292
 1107YOPC   C2B16120  11.439  13.256   5.701  0.1546 -0.2616  0.3536
 1107YOPC   D3B16121  11.285  13.110   6.045  0.0769 -0.0721  0.2066
 1107YOPC   C4B16122  11.229  12.876   6.417 -0.0461  0.0321 -0.1838
 1108YOPC   NC316123   6.902  19.902   5.049  0.0351  0.0867 -0.4230
 1108YOPC   PO416124   6.581  20.188   5.065 -0.0884  0.2225  0.0245
 1108YOPC   GL116125   6.142  20.195   5.339  0.3075  0.3752 -0.2462
 1108YOPC   GL216126   5.953  19.853   5.192  0.2299 -0.0445 -0.3230
 1108YOPC   C1A16127   5.983  20.298   5.734 -0.1673  0.2291 -0.2830
 1108YOPC   D2A16128   5.853  20.240   6.167  0.0267  0.0377  0.1513
 1108YOPC   C3A16129   5.682  19.780   6.323  0.1428 -0.0496  0.0371
 1108YOPC   C4A16130   5.637  19.469   5.960 -0.2264  0.2849  0.1578
 1108YOPC   C1B16131   5.880  19.783   5.657 -0.1739 -0.0623 -0.2022
 1108YOPC   C2B16132   6.121  19.858   6.077  0.0036  0.1275 -0.0956
 1108YOPC   D3B16133   6.595  19.787   6.005 -0.2324  0.1890 -0.3913
 1108YOPC   C4B16134   6.980  19.560   5.902  0.1631 -0.1489 -0.0355
 1109YOPC   NC316135  19.726  14.620   4.729 -0.0834 -0.1245 -0.1769
 1109YOPC   PO416136  20.085  14.509   4.982  0.0632 -0.1806 -0.1224
 1109YOPC   GL116137  20.089  14.205   5.416  0.2618 -0.1335  0.0044
 1109YOPC   GL216138  19.841  13.929   5.590  0.1572 -0.2125  0.1657
 1109YOPC   C1A16139  20.179  14.161   5.850 -0.0055 -0.3076 -0.0583
 1109YOPC   D2A16140  20.114  14.202   6.204 -0.3993  0.0952  0.0797
 1109YOPC   C3A16141  19.769  13.979   6.410  0.0025 -0.0520 -0.1433
 1109YOPC   C4A16142  19.412  13.885   6.507 -0.0435  0.0548 -0.2066
 1109YOPC   C1B16143  19.690  13.811   5.944  0.0532 -0.3307 -0.2432
 1109YOPC   C2B16144  19.387  13.586   6.151 -0.4727  0.0066  0.0844
 1109YOPC   D3B16145  19.229  13.401   6.656 -0.3594 -0.1661  0.0835
 1109YOPC   C4B16146  18.862  13.512   6.851  0.3205  0.0210 -0.1039
 1110YOPC   NC316147   5.081  14.177   4.436 -0.0769 -0.2913  0.4880
 1110YOPC   PO416148   5.408  14.115   4.821 -0.0647 -0.3574  0.2086
 1110YOPC   GL116149   5.447  14.142   5.238 -0.0355 -0.1672  0.0226
 1110YOPC   GL216150   5.705  14.092   5.300 -0.1847 -0.0116 -0.1007
 1110YOPC   C1A16151   5.161  14.299   5.625 -0.5827  0.1055 -0.1522
 1110YOPC   D2A16152   5.126  14.126   6.032  0.2521  0.0850  0.2512
 1110YOPC   C3A16153   5.180  14.445   6.268  0.2522  0.3160 -0.1025
 1110YOPC   C4A16154   5.299  14.509   6.650 -0.4016 -0.0505  0.2023
 1110YOPC   C1B16155   6.137  14.171   5.642  0.1523 -0.2449  0.0325
 1110YOPC   C2B16156   6.191  14.175   5.945 -0.1380  0.1208  0.0465
 1110YOPC   D3B16157   6.086  13.883   6.357 -0.1145  0.3227 -0.0925
 1110YOPC   C4B16158   6.075  13.581   6.657 -0.3598 -0.2369  0.3963
 1111YOPC   NC316159  11.103  11.708   4.895  0.1319 -0.1665  0.2625
 1111YOPC   PO416160  11.439  11.929   4.963  0.0210  0.0820 -0.1093
 1111YOPC   GL116161  11.117  12.062   5.304 -0.1451 -0.0445  0.1813
 1111YOPC   GL216162  11.095  11.694   5.368 -0.4773  0.1027  0.2535
 1111YOPC   C1A16163  11.160  12.198   5.816 -0.0628 -0.0547  0.1282
 1111YOPC   D2A16164  11.025  11.986   6.174 -0.0457 -0.2719  0.1801
 1111YOPC   C3A16165  10.829  12.174   6.506 -0.3388  0.3167  0.1166
 1111YOPC   C4A16166  10.950  12.449   6.661  0.1323 -0.3544  0.0622
 1111YOPC   C1B16167  11.371  11.743   5.761 -0.2034 -0.0558  0.1040
 1111YOPC   C2B16168  11.588  11.695   6.123 -0.1574 -0.0460  0.1319
 1111YOPC   D3B16169  11.552  11.326   6.291  0.2336  0.0179 -0.2157
 1111YOPC   C4B16170  11.789  11.012   6.590 -0.1428  0.0931 -0.0040
 1112YOPC   NC316171  10.336  15.560   4.577  0.0015 -0.0778  0.1539
 1112YOPC   PO416172  10.706  15.578   4.936  0.1027  0.0931  0.5755
 1112YOPC   GL116173  10.673  15.734   5.322 -0.0596 -0.0749  0.4261
 1112YOPC   GL216174  10.460  15.960   5.322 -0.2263 -0.0957  0.0583
 1112YOPC   C1A16175  10.837  15.749   5.640 -0.1920 -0.0901 -0.1867
 1112YOPC   D2A16176  10.727  15.893   6.115 -0.1352  0.0283 -0.0780
 1112YOPC   C3A16177  11.093  15.799   6.345 -0.0110 -0.3671 -0.0669
 1112YOPC   C4A16178  11.375  15.744   6.666  0.2484  0.1357  0.0443
 1112YOPC   C1B16179  10.241  15.835   5.620  0.0830  0.0216 -0.2706
 1112YOPC   C2B16180  10.110  15.769   5.961 -0.1603 -0.1702  0.1525
 1112YOPC   D3B16181  10.334  15.347   6.121  0.0140  0.0558 -0.1240
 1112YOPC   C4B16182  10.173  14.982   6.030  0.1965  0.2257  0.0404
 1113YOPC   NC316183   5.550   9.612   4.260 -0.1373 -0.1058  0.0400
 1113YOPC   PO416184   5.373   9.518   4.640  0.0684  0.0444  0.0410
 1113YOPC   GL116185   5.461   9.283   4.938  0.2233 -0.4848 -0.2122
 1113YOPC   GL216186   5.131   9.154   4.983 -0.0454  0.0166 -0.0426
 1113YOPC   C1A16187   5.452   9.150   5.343  0.2850 -0.4390  0.0867
 1113YOPC   D2A16188   5.539   9.343   5.748 -0.0940  0.1436 -0.1171
 1113YOPC   C3A16189   5.231   9.480   5.950  0.0008 -0.0049 -0.1838
 1113YOPC   C4A16190   4.902   9.345   5.875  0.2505 -0.1002  0.0483
 1113YOPC   C1B16191   5.208   8.698   5.031  0.1425 -0.0546 -0.1165
 1113YOPC   C2B16192   5.124   8.540   5.462 -0.2091  0.1162 -0.2378
 1113YOPC   D3B16193   5.198   8.862   5.831  0.4315 -0.0729 -0.2350
 1113YOPC   C4B16194   5.590   8.923   6.138  0.0046 -0.0508  0.0108
 1114YOPC   NC316195  17.345   1.784   5.069  0.0960 -0.1395  0.1968
 1114YOPC   PO416196  17.157   1.453   5.335 -0.0053  0.0800  0.2861
 1114YOPC   GL116197  16.895   1.687   5.617 -0.3920  0.1903 -0.2070
 1114YOPC   GL216198  17.112   1.911   5.584  0.0660  0.0307  0.1813
 1114YOPC   C1A16199  17.122   1.528   6.084 -0.1455 -0.0626  0.1228
 1114YOPC   D2A16200  17.230   1.279   6.431  0.2399  0.0174  0.0850
 1114YOPC   C3A16201  17.358   0.837   6.491  0.1002 -0.0587  0.1456
 1114YOPC   C4A16202  17.185   0.610   6.852 -0.0784 -0.0798 -0.3997
 1114YOPC   C1B16203  17.225   2.008   5.959  0.1716  0.1653 -0.0246
 1114YOPC   C2B16204  17.118   2.129   6.343  0.1457 -0.0525  0.2486
 1114YOPC   D3B16205  17.371   1.891   6.710  0.2010  0.3531  0.0250
 1114YOPC   C4B16206  17.783   1.872   6.874  0.0714 -0.1596 -0.1518
 1115YOPC   NC316207  12.556   6.171   5.357 -0.2171 -0.0488 -0.3712
 1115YOPC   PO416208  12.123   6.051   5.167  0.1975  0.1217  0.0650
 1115YOPC   GL116209  11.981   5.856   5.490  0.1932  0.0411  0.4573
 1115YOPC   GL216210  12.254   5.888   5.700  0.2321 -0.0335 -0.0139
 1115YOPC   C1A16211  11.779   5.614   5.874  0.0435 -0.1187  0.0340
 1115YOPC   D2A16212  11.868   5.519   6.215 -0.1305  0.0288 -0.2388
 1115YOPC   C3A16213  11.770   5.196   6.419  0.1531 -0.0549  0.1395
 1115YOPC   C4A16214  11.503   4.906   6.652 -0.0959  0.0528  0.2513
 1115YOPC   C1B16215  12.350   5.825   6.120  0.0746 -0.0507  0.0096
 1115YOPC   C2B16216  12.325   5.638   6.492  0.1778 -0.1260  0.4078
 1115YOPC   D3B16217  11.982   5.490   6.725 -0.0487  0.0881 -0.1443
 1115YOPC   C4B16218  11.606   5.296   6.923  0.1324 -0.1458 -0.2250
 1116YOPC   NC316219   2.143   9.308   4.144 -0.0308  0.1494  0.0493
 1116YOPC   PO416220   1.925   9.441   4.580 -0.0971  0.0669 -0.2574
 1116YOPC   GL116221   1.650   9.347   4.995 -0.0084  0.3461  0.0083
 1116YOPC   GL216222   1.676   9.696   5.069  0.2361  0.1698  0.1019
 1116YOPC   C1A16223   1.722   9.052   5.317  0.1016  0.2020 -0.0817
 1116YOPC   D2A16224   1.791   8.639   5.602  0.1495 -0.2084  0.0986
 1116YOPC   C3A16225   1.349   8.380   5.539  0.1530  0.1878  0.2812
 1116YOPC   C4A16226   0.899   8.434   5.451 -0.1678 -0.3203  0.0581
 1116YOPC   C1B16227   1.727   9.611   5.487 -0.0557  0.2851 -0.0926
 1116YOPC   C2B16228   1.648   9.697   5.908 -0.3352 -0.1542  0.1531
 1116YOPC   D3B16229   1.991  10.018   6.107  0.0591  0.2566 -0.3148
 1116YOPC   C4B16230   1.966  10.479   5.928  0.2258  0.2906  0.0958
 1117YOPC   NC316231   2.900   3.798   4.529 -0.1486  0.2707  0.2899
 1117YOPC   PO416232   3.165   3.597   4.752 -0.0582  0.2896  0.2823
 1117YOPC   GL116233   3.375   3.921   5.106 -0.2775 -0.5654 -0.1574
 1117YOPC   GL216234   3.334   3.697   5.370  0.0982 -0.0609  0.1453
 1117YOPC   C1A16235   3.790   4.219   5.243 -0.1268  0.0489 -0.1035
 1117YOPC   D2A16236   3.933   4.601   5.417 -0.1103 -0.2020  0.0283
 1117YOPC   C3A16237   3.875   4.722   5.751 -0.0864  0.1835 -0.0889
 1117YOPC   C4A16238   4.013   4.758   6.132  0.4143 -0.2326  0.0211
 1117YOPC   C1B16239   3.312   3.536   5.712 -0.2621  0.1307 -0.0395
 1117YOPC   C2B16240   3.369   3.549   6.093  0.0069  0.0174  0.1559
 1117YOPC   D3B16241   3.098   3.714   6.207 -0.2153  0.1428  0.1741
 1117YOPC   C4B16242   2.899   3.666   6.639 -0.0092 -0.0036 -0.3814
 1118YOPC   NC316243  15.575   3.883   5.259 -0.2705 -0.2581 -0.0440
 1118YOPC   PO416244  15.435   3.636   5.532  0.1245 -0.1903 -0.1453
 1118YOPC   GL116245  15.285   3.466   5.940  0.0763  0.2516 -0.1155
 1118YOPC   GL216246  15.504   3.305   6.197 -0.0708  0.1192  0.0680
 1118YOPC   C1A16247  15.114   3.586   6.353  0.4860 -0.1263 -0.0674
 1118YOPC   D2A16248  15.238   3.316   6.644  0.2880 -0.3846 -0.1948
 1118YOPC   C3A16249  15.358   2.961   6.529  0.3655  0.0201  0.4803
 1118YOPC   C4A16250  15.651   2.577   6.480  0.0253  0.1234 -0.2886
 1118YOPC   C1B16251  15.724   3.493   6.461  0.2175  0.1515  0.0707
 1118YOPC   C2B16252  16.110   3.875   6.572  0.1671 -0.3137  0.4696
 1118YOPC   D3B16253  15.948   3.930   7.027 -0.1544 -0.3032  0.1794
 1118YOPC   C4B16254  15.808   3.655   7.318 -0.1246 -0.5118  0.0181
 1119YOPC   NC316255   1.936  19.342   4.680  0.0414 -0.4221 -0.1852
 1119YOPC   PO416256   2.056  18.908   4.755 -0.2512 -0.0721  0.0821
 1119YOPC   GL116257   1.863  18.936   5.098 -0.1584  0.2494 -0.1617
 1119YOPC   GL216258   1.626  19.054   5.127 -0.0276  0.3496 -0.0375
 1119YOPC   C1A16259   2.076  18.865   5.542  0.1687 -0.0147 -0.2949
 1119YOPC   D2A16260   2.275  18.679   5.840  0.1544 -0.2172 -0.0947
 1119YOPC   C3A16261   2.136  18.405   6.086  0.5496 -0.2056 -0.0926
 1119YOPC   C4A16262   2.113  18.107   6.388  0.1736  0.0500 -0.1923
 1119YOPC   C1B16263   1.661  19.274   5.608  0.0643  0.0222  0.1240
 1119YOPC   C2B16264   1.328  19.312   5.888  0.2852  0.2525  0.3391
 1119YOPC   D3B16265   1.417  19.667   6.119  0.4403 -0.1324 -0.0539
 1119YOPC   C4B16266   1.538  19.928   6.512  0.3152  0.2643  0.0753
 1120YOPC   NC316267   0.794  12.571   4.360  0.0392 -0.2502 -0.2350
 1120YOPC   PO416268   0.982  12.797   4.559 -0.3574 -0.0960 -0.0483
 1120YOPC   GL116269   1.029  12.789   4.955 -0.1164 -0.1504  0.2102
 1120YOPC   GL216270   0.838  12.662   5.268  0.3446 -0.0405  0.2362
 1120YOPC   C1A16271   1.339  12.695   5.337  0.1308  0.3482 -0.0636
 1120YOPC   D2A16272   1.677  12.722   5.633 -0.0981  0.0765  0.4120
 1120YOPC   C3A16273   1.630  12.914   5.964 -0.1795  0.1733  0.0620
 1120YOPC   C4A16274   1.665  13.364   6.123 -0.1285 -0.0093  0.1381
 1120YOPC   C1B16275   0.813  12.353   5.527  0.0736  0.0087 -0.0290
 1120YOPC   C2B16276   0.725  12.290   5.888 -0.1216 -0.0652 -0.2837
 1120YOPC   D3B16277   0.887  12.568   6.153  0.0337 -0.4115  0.0934
 1120YOPC   C4B16278   0.664  12.882   6.418  0.0833 -0.2263  0.0735
 1121YOPC   NC316279  13.113  19.740   5.072 -0.1477 -0.1150  0.0596
 1121YOPC   PO416280  13.084  20.000   4.729  0.0512 -0.0143 -0.1554
 1121YOPC   GL116281  13.296  20.190   5.163  0.5768  0.2179 -0.0248
 1121YOPC   GL216282  13.029  20.162   5.440  0.3001  0.1606 -0.2181
 1121YOPC   C1A16283  13.258  20.578   5.396  0.1261 -0.0415 -0.1703
 1121YOPC   D2A16284  13.103  20.830   5.467  0.0281  0.0483 -0.3727
 1121YOPC   C3A16285  12.632  20.784   5.458 -0.0664 -0.2941  0.0693
 1121YOPC   C4A16286  12.399  20.429   5.494  0.0999 -0.0234 -0.3066
 1121YOPC   C1B16287  13.342  20.162   5.694 -0.0924  0.1298  0.1483
 1121YOPC   C2B16288  13.751  20.328   5.733  0.2418  0.0052  0.2093
 1121YOPC   D3B16289  13.893  20.382   6.114  0.2787 -0.1087  0.3947
 1121YOPC   C4B16290  14.089  20.466   6.593 -0.5115  0.0922  0.2863
 1122YOPC   NC316291  16.868   6.204   5.213  0.2591  0.0974  0.0118
 1122YOPC   PO416292  17.075   5.804   5.243  0.0459 -0.4403  0.0690
 1122YOPC   GL116293  17.449   5.802   5.500 -0.0174  0.1110  0.2118
 1122YOPC   GL216294  17.157   5.660   5.805 -0.0068 -0.2210  0.2836
 1122YOPC   C1A16295  17.667   5.762   5.941  0.0324  0.2334  0.1449
 1122YOPC   D2A16296  17.735   5.943   6.289 -0.1737 -0.2446 -0.2437
 1122YOPC   C3A16297  17.908   5.866   6.614 -0.0300  0.3207  0.3318
 1122YOPC   C4A16298  17.951   5.673   7.117  0.0162 -0.0156  0.1603
 1122YOPC   C1B16299  17.247   6.021   6.092 -0.4238 -0.2000 -0.0173
 1122YOPC   C2B16300  17.186   6.214   6.369 -0.0093  0.1581  0.1854
 1122YOPC   D3B16301  17.477   6.220   6.664  0.0569  0.4126 -0.2876
 1122YOPC   C4B16302  17.629   6.051   7.113 -0.0042  0.1555  0.1034
 1123YOPC   NC316303   2.735   6.672   4.901  0.2149 -0.0838  0.0207
 1123YOPC   PO416304   2.336   6.772   5.006  0.6210 -0.1505  0.1494
 1123YOPC   GL116305   2.439   6.527   5.343  0.0703 -0.0835 -0.0467
 1123YOPC   GL216306   2.504   6.762   5.607  0.0478 -0.2158 -0.1220
 1123YOPC   C1A16307   2.800   6.326   5.468 -0.0069 -0.0103  0.4122
 1123YOPC   D2A16308   2.911   6.408   5.862  0.0520  0.1749 -0.3956
 1123YOPC   C3A16309   3.312   6.424   6.062 -0.0082 -0.2130  0.1165
 1123YOPC   C4A16310   3.689   6.459   6.129  0.0717  0.1055  0.0877
 1123YOPC   C1B16311   2.543   6.693   6.010  0.0630 -0.0434 -0.1827
 1123YOPC   C2B16312   2.483   6.328   6.303  0.1010  0.0024 -0.3209
 1123YOPC   D3B16313   2.115   6.149   6.260  0.1247  0.2648 -0.2400
 1123YOPC   C4B16314   1.595   5.995   6.188  0.1930 -0.0692 -0.0563
 1124YOPC   NC316315  18.379   7.211   5.625  0.1700  0.0776  0.1986
 1124YOPC   PO416316  18.081   7.042   5.299 -0.0873 -0.0251 -0.2528
 1124YOPC   GL116317  18.060   6.893   5.722  0.5291  0.0374 -0.0822
 1124YOPC   GL216318  18.184   6.777   6.056 -0.2077  0.0968  0.0803
 1124YOPC   C1A16319  17.785   7.061   6.053  0.0595 -0.0806  0.0107
 1124YOPC   D2A16320  17.630   6.729   6.373 -0.1596  0.1071 -0.1522
 1124YOPC   C3A16321  17.856   6.529   6.772  0.1103 -0.3581 -0.1494
 1124YOPC   C4A16322  18.100   6.172   6.933  0.2024  0.0839  0.0641
 1124YOPC   C1B16323  18.055   6.926   6.497  0.1045  0.3136 -0.0166
 1124YOPC   C2B16324  17.678   7.038   6.763  0.2682  0.0421 -0.1513
 1124YOPC   D3B16325  17.386   6.800   6.779 -0.1307  0.0320 -0.1528
 1124YOPC   C4B16326  17.092   6.526   6.715 -0.1333 -0.3192 -0.1346
 1125YOPC   NC316327   2.811   0.976   4.987  0.1946  0.2504 -0.1510
 1125YOPC   PO416328   2.369   0.849   4.968  0.3707  0.0386  0.3775
 1125YOPC   GL116329   2.135   0.644   5.276  0.2220  0.0321 -0.1751
 1125YOPC   GL216330   2.208   0.278   5.255 -0.3693  0.2719  0.0133
 1125YOPC   C1A16331   1.934   0.619   5.622  0.4578  0.4153  0.2717
 1125YOPC   D2A16332   2.173   0.634   5.984 -0.0669 -0.0480 -0.0657
 1125YOPC   C3A16333   2.261   1.006   6.142 -0.1367 -0.1115 -0.0701
 1125YOPC   C4A16334   2.034   1.425   6.310 -0.0797  0.0597 -0.0305
 1125YOPC   C1B16335   2.259   0.200   5.715 -0.5511 -0.1025 -0.0696
 1125YOPC   C2B16336   2.519   0.306   6.095 -0.2960  0.1002 -0.0251
 1125YOPC   D3B16337   2.476   0.535   6.512 -0.0496 -0.1766  0.2684
 1125YOPC   C4B16338   2.199   0.946   6.598 -0.2280 -0.0576 -0.3100
 1126YOPC   NC316339   0.078   5.185   4.771 -0.0813  0.0191  0.3409
 1126YOPC   PO416340   0.556   5.134   4.911  0.1576 -0.1866 -0.3385
 1126YOPC   GL116341   0.552   5.427   5.226 -0.3618 -0.2654 -0.0380
 1126YOPC   GL216342   0.505   5.742   5.192  0.2410 -0.0177  0.0386
 1126YOPC   C1A16343   0.336   5.446   5.650 -0.2256 -0.3834 -0.0390
 1126YOPC   D2A16344   0.314   5.654   6.070  0.3196 -0.1717 -0.4132
 1126YOPC   C3A16345  -0.082   5.611   6.136 -0.0301 -0.0306  0.2585
 1126YOPC   C4A16346  -0.215   5.448   6.584  0.3196  0.1198 -0.0579
 1126YOPC   C1B16347   0.225   5.999   5.571  0.0069  0.0631 -0.0590
 1126YOPC   C2B16348   0.160   6.481   5.545 -0.4439 -0.0805 -0.1730
 1126YOPC   D3B16349   0.371   6.571   5.759  0.0724  0.1495 -0.2675
 1126YOPC   C4B16350   0.789   6.696   5.853  0.2148  0.0933 -0.0051
 1127YOPC   NC316351  18.493  11.429   4.585 -0.0215 -0.0047  0.1272
 1127YOPC   PO416352  18.090  11.395   4.885 -0.3437  0.0276 -0.1392
 1127YOPC   GL116353  18.196  11.215   5.255  0.1677  0.2445 -0.1011
 1127YOPC   GL216354  18.211  11.493   5.462 -0.1597  0.4411 -0.0779
 1127YOPC   C1A16355  18.281  11.036   5.676 -0.3323  0.0869 -0.2178
 1127YOPC   D2A16356  18.571  11.114   6.066  0.2455 -0.2123  0.1592
 1127YOPC   C3A16357  18.778  11.234   6.519  0.0852 -0.0127 -0.0697
 1127YOPC   C4A16358  19.007  10.958   6.756  0.2903  0.1667 -0.0941
 1127YOPC   C1B16359  18.309  11.527   5.916 -0.3303  0.1834  0.3359
 1127YOPC   C2B16360  18.411  11.529   6.355  0.1562 -0.0081 -0.1111
 1127YOPC   D3B16361  18.337  11.269   6.764 -0.1070  0.0249 -0.0941
 1127YOPC   C4B16362  18.659  11.083   7.104  0.1672  0.1990 -0.2262
 1128YOPC   NC316363   7.402  19.464   4.759  0.3307  0.1030  0.0935
 1128YOPC   PO416364   7.683  19.607   4.986  0.1063 -0.1262 -0.0701
 1128YOPC   GL116365   7.748  19.465   5.333 -0.2382  0.1845  0.0866
 1128YOPC   GL216366   7.872  19.204   5.289 -0.2034 -0.0690 -0.0378
 1128YOPC   C1A16367   7.854  19.226   5.767  0.0996  0.0598 -0.1389
 1128YOPC   D2A16368   7.797  19.070   6.174 -0.0131 -0.1746  0.2358
 1128YOPC   C3A16369   8.018  18.755   6.509  0.3396 -0.0900  0.1710
 1128YOPC   C4A16370   8.044  18.352   6.549  0.2810 -0.1109  0.2155
 1128YOPC   C1B16371   7.978  18.793   5.494  0.2679 -0.0510  0.0268
 1128YOPC   C2B16372   8.309  18.488   5.479  0.0296  0.1769 -0.3557
 1128YOPC   D3B16373   8.663  18.542   5.599 -0.4953  0.1264  0.0716
 1128YOPC   C4B16374   8.770  18.810   5.837  0.1910  0.0743 -0.1158
 1129YOPC   NC316375   8.244  10.210   4.624 -0.0129 -0.0695  0.0714
 1129YOPC   PO416376   8.635  10.341   4.787 -0.0736  0.1917  0.1082
 1129YOPC   GL116377   8.718  10.524   5.207  0.3436 -0.0663  0.2730
 1129YOPC   GL216378   8.862  10.180   5.408  0.2035 -0.0671 -0.1931
 1129YOPC   C1A16379   8.429  10.624   5.534 -0.1019 -0.0486 -0.1705
 1129YOPC   D2A16380   8.348  10.481   5.959 -0.0690  0.0712  0.0702
 1129YOPC   C3A16381   8.285  10.804   6.283  0.0109  0.2180 -0.1893
 1129YOPC   C4A16382   8.038  10.880   6.643 -0.3158  0.0727 -0.1559
 1129YOPC   C1B16383   8.488  10.117   5.637  0.0129 -0.1451 -0.2393
 1129YOPC   C2B16384   8.264  10.001   6.006 -0.0594 -0.0624 -0.1140
 1129YOPC   D3B16385   8.093   9.632   6.096 -0.1464  0.1122  0.3261
 1129YOPC   C4B16386   7.940   9.277   5.841 -0.4227  0.1048  0.2507
 1130YOPC   NC316387  16.979   4.274   5.057  0.1319 -0.0334 -0.1206
 1130YOPC   PO416388  17.293   3.982   5.174 -0.0565 -0.2956  0.0581
 1130YOPC   GL116389  17.450   4.258   5.500  0.0326  0.2226 -0.1026
 1130YOPC   GL216390  17.792   4.083   5.587  0.2307  0.3068  0.2555
 1130YOPC   C1A16391  17.524   4.292   5.908  0.1283 -0.0689 -0.1677
 1130YOPC   D2A16392  17.567   4.219   6.237  0.4577  0.0620 -0.1685
 1130YOPC   C3A16393  17.360   4.164   6.609  0.3474 -0.1005  0.1994
 1130YOPC   C4A16394  17.204   4.285   7.030  0.2748 -0.1399 -0.1156
 1130YOPC   C1B16395  18.043   3.652   5.799  0.0516  0.3217 -0.3593
 1130YOPC   C2B16396  18.437   3.409   5.724  0.0361  0.0527  0.2043
 1130YOPC   D3B16397  18.757   3.673   5.743  0.3613 -0.0776 -0.0024
 1130YOPC   C4B16398  18.877   4.064   5.700  0.1020 -0.0079  0.0362
 1131YOPC   NC316399   7.974  18.080   4.709 -0.3281  0.1208 -0.2759
 1131YOPC   PO416400   8.095  18.372   4.968 -0.0561 -0.1891 -0.1143
 1131YOPC   GL116401   7.759  18.153   5.218 -0.1311  0.1579 -0.2751
 1131YOPC   GL216402   7.730  17.901   5.112 -0.0154  0.1074  0.0868
 1131YOPC   C1A16403   7.519  18.319   5.591 -0.0934  0.0401  0.1123
 1131YOPC   D2A16404   7.408  18.354   6.010 -0.1176 -0.0090 -0.0433
 1131YOPC   C3A16405   6.980  18.520   6.316  0.0637 -0.1260  0.1939
 1131YOPC   C4A16406   6.924  19.005   6.426 -0.0877  0.1633 -0.2903
 1131YOPC   C1B16407   7.639  17.832   5.564 -0.0278  0.2050 -0.1019
 1131YOPC   C2B16408   7.495  17.867   5.977  0.2289 -0.2248  0.0790
 1131YOPC   D3B16409   7.803  17.996   6.212  0.0319  0.2224  0.1897
 1131YOPC   C4B16410   8.284  18.037   6.228 -0.0984 -0.6055 -0.1816
 1132YOPC   NC316411   3.264   5.404   4.784 -0.0107 -0.0831  0.1860
 1132YOPC   PO416412   3.581   5.674   4.994  0.1567 -0.4119 -0.2120
 1132YOPC   GL116413   3.536   5.668   5.492  0.2798 -0.0356  0.3524
 1132YOPC   GL216414   3.687   5.925   5.502 -0.0401  0.0568  0.0320
 1132YOPC   C1A16415   3.413   5.502   5.889  0.2749 -0.0241 -0.2207
 1132YOPC   D2A16416   3.026   5.693   6.066 -0.2498 -0.2586  0.0177
 1132YOPC   C3A16417   2.591   5.776   6.194  0.2704 -0.5097  0.1239
 1132YOPC   C4A16418   2.375   5.865   6.597  0.0533 -0.3603 -0.0603
 1132YOPC   C1B16419   3.932   5.765   5.810 -0.2267  0.3213 -0.0641
 1132YOPC   C2B16420   3.828   5.575   6.141 -0.3112  0.1323  0.0870
 1132YOPC   D3B16421   3.674   5.173   6.373  0.1333 -0.0331  0.2349
 1132YOPC   C4B16422   3.791   4.881   6.569  0.1501  0.1043 -0.0226
 1133YOPC   NC316423   4.797  18.977   4.205  0.1534 -0.1040  0.2560
 1133YOPC   PO416424   4.476  18.954   4.402  0.0532 -0.1100  0.2332
 1133YOPC   GL116425   4.762  18.727   4.654  0.1192  0.0165  0.0979
 1133YOPC   GL216426   4.598  18.849   4.940  0.1189  0.2497 -0.1636
 1133YOPC   C1A16427   4.907  18.419   4.843 -0.2771  0.1958  0.0303
 1133YOPC   D2A16428   4.996  18.261   5.239  0.0803  0.2400 -0.1198
 1133YOPC   C3A16429   5.120  17.880   5.375  0.2666  0.1327  0.1411
 1133YOPC   C4A16430   5.068  17.627   4.999  0.0501  0.1240  0.1466
 1133YOPC   C1B16431   4.599  19.026   5.382 -0.0846  0.2919 -0.1741
 1133YOPC   C2B16432   4.889  19.023   5.583 -0.0966  0.0611  0.1500
 1133YOPC   D3B16433   5.195  18.668   5.621  0.3258  0.1293 -0.1450
 1133YOPC   C4B16434   5.470  18.552   5.972 -0.0706 -0.4140 -0.0421
 1134YOPC   NC316435   9.895   6.886   4.482 -0.1034  0.2947  0.4851
 1134YOPC   PO416436  10.080   7.374   4.646  0.4136  0.1310  0.0238
 1134YOPC   GL116437   9.845   7.270   5.056  0.1411 -0.0584 -0.2848
 1134YOPC   GL216438   9.460   7.332   5.221  0.0132 -0.2750 -0.1616
 1134YOPC   C1A16439   9.686   6.934   5.431  0.3213 -0.1722 -0.1669
 1134YOPC   D2A16440   9.448   6.657   5.684 -0.2492  0.1516  0.1600
 1134YOPC   C3A16441   9.641   6.545   6.093 -0.1726 -0.0870 -0.1897
 1134YOPC   C4A16442   9.794   6.788   6.405  0.1712 -0.0241 -0.2643
 1134YOPC   C1B16443   9.301   7.517   5.744 -0.1901  0.1872  0.2128
 1134YOPC   C2B16444   9.395   7.808   6.012 -0.3643  0.2119  0.1401
 1134YOPC   D3B16445   9.646   7.693   6.253 -0.2143  0.0487  0.1026
 1134YOPC   C4B16446   9.717   7.321   6.399  0.0826 -0.1833 -0.0275
 1135YOPC   NC316447  10.562   0.922   5.251 -0.0572 -0.0063  0.1871
 1135YOPC   PO416448  10.903   0.697   5.508  0.1190 -0.3302 -0.2730
 1135YOPC   GL116449  11.108   0.793   5.885  0.1715  0.1371  0.1820
 1135YOPC   GL216450  11.533   0.954   5.809 -0.2701 -0.0904 -0.0952
 1135YOPC   C1A16451  11.117   0.924   6.270  0.0856  0.2283  0.0953
 1135YOPC   D2A16452  10.838   1.110   6.576 -0.1101 -0.0438  0.2650
 1135YOPC   C3A16453  11.145   1.308   6.902  0.2377  0.3501  0.3074
 1135YOPC   C4A16454  11.073   1.379   7.343 -0.0620  0.0629  0.1467
 1135YOPC   C1B16455  11.604   1.136   6.263  0.1511 -0.0289 -0.0921
 1135YOPC   C2B16456  11.604   1.063   6.737 -0.2713  0.2449 -0.4100
 1135YOPC   D3B16457  11.701   0.725   6.843  0.3148  0.1011  0.0093
 1135YOPC   C4B16458  11.970   0.421   7.072  0.0438  0.4532 -0.1937
 1136YOPC   NC316459  18.305  13.699   4.426  0.0310 -0.4362  0.0618
 1136YOPC   PO416460  18.755  13.534   4.559  0.1564 -0.1373  0.3182
 1136YOPC   GL116461  18.826  13.389   4.951  0.0581  0.0855  0.2016
 1136YOPC   GL216462  19.109  13.122   5.113 -0.1829  0.0106 -0.0256
 1136YOPC   C1A16463  18.649  13.142   5.275  0.2280 -0.0163 -0.0228
 1136YOPC   D2A16464  18.600  13.151   5.721  0.2253  0.1078  0.2553
 1136YOPC   C3A16465  18.375  13.303   6.012 -0.1254 -0.2249 -0.3698
 1136YOPC   C4A16466  17.976  13.401   6.112  0.0203 -0.4660 -0.3147
 1136YOPC   C1B16467  19.111  13.093   5.614  0.3363 -0.0744  0.1099
 1136YOPC   C2B16468  19.102  13.183   6.048  0.1459 -0.2143  0.1243
 1136YOPC   D3B16469  18.731  13.236   6.409 -0.0167 -0.2348 -0.1962
 1136YOPC   C4B16470  18.400  13.021   6.558 -0.2385 -0.2093 -0.0240
 1137YOPC   NC316471   7.121  14.935   5.097  0.3829 -0.0895  0.1510
 1137YOPC   PO416472   7.330  15.287   4.777 -0.0283 -0.0900  0.1786
 1137YOPC   GL116473   7.369  15.514   5.088 -0.0605 -0.2879  0.0858
 1137YOPC   GL216474   7.656  15.611   5.260 -0.0042 -0.1988 -0.1956
 1137YOPC   C1A16475   7.190  15.754   5.432  0.1183 -0.2493 -0.0697
 1137YOPC   D2A16476   7.260  15.931   5.862 -0.1660  0.1675  0.2479
 1137YOPC   C3A16477   7.351  15.663   6.230 -0.2008  0.1574 -0.0928
 1137YOPC   C4A16478   7.741  15.472   6.378 -0.1143  0.2754  0.2054
 1137YOPC   C1B16479   7.494  15.355   5.629 -0.3628 -0.2380  0.2765
 1137YOPC   C2B16480   7.441  14.864   5.736 -0.0500  0.0579  0.0368
 1137YOPC   D3B16481   7.277  14.509   5.843  0.5967 -0.1864  0.1523
 1137YOPC   C4B16482   7.501  14.336   5.499  0.0360  0.1794 -0.1355
 1138YOPC   NC316483  16.237   5.492   5.164  0.0909 -0.2680 -0.1851
 1138YOPC   PO416484  16.014   5.307   5.404  0.1122 -0.1305 -0.0646
 1138YOPC   GL116485  15.947   5.213   5.771  0.0178 -0.1566  0.0445
 1138YOPC   GL216486  16.119   5.035   5.854  0.2380  0.4447 -0.1437
 1138YOPC   C1A16487  15.762   5.364   6.107  0.2060  0.0336 -0.2761
 1138YOPC   D2A16488  15.301   5.502   6.117  0.0125  0.2854 -0.0835
 1138YOPC   C3A16489  15.096   5.307   6.400 -0.1712 -0.0209  0.0265
 1138YOPC   C4A16490  14.719   5.279   6.726  0.0035  0.1842 -0.1909
 1138YOPC   C1B16491  16.511   5.006   6.018  0.3287 -0.1078 -0.1434
 1138YOPC   C2B16492  16.867   4.972   6.274 -0.1243 -0.2048  0.3141
 1138YOPC   D3B16493  16.873   5.021   6.692 -0.2450 -0.1068 -0.3531
 1138YOPC   C4B16494  17.011   5.118   7.034  0.1691  0.2069  0.0213
 1139YOPC   NC316495   3.035  16.288   4.527 -0.1280  0.1749  0.0946
 1139YOPC   PO416496   3.107  16.446   4.845  0.0645 -0.0727 -0.3043
 1139YOPC   GL116497   3.355  16.598   5.192 -0.2384  0.1673 -0.4467
 1139YOPC   GL216498   3.173  16.445   5.482  0.2163  0.0063 -0.0964
 1139YOPC   C1A16499   3.646  16.514   5.533  0.0269  0.2944 -0.0705
 1139YOPC   D2A16500   3.979  16.296   5.787  0.0632 -0.0005 -0.0081
 1139YOPC   C3A16501   4.193  16.326   6.216  0.1800  0.0728 -0.0982
 1139YOPC   C4A16502   4.600  16.323   6.420  0.2701 -0.0300  0.0723
 1139YOPC   C1B16503   3.185  16.896   5.543  0.0247 -0.0571  0.0385
 1139YOPC   C2B16504   3.272  17.238   5.639  0.1349  0.1192 -0.0047
 1139YOPC   D3B16505   3.684  17.508   5.822 -0.0744  0.0570 -0.1147
 1139YOPC   C4B16506   4.067  17.276   5.936 -0.1833  0.1663  0.2159
 1140YOPC   NC316507   3.299  13.854   4.671 -0.0868 -0.1464  0.0539
 1140YOPC   PO416508   3.480  13.487   4.869 -0.2469 -0.0688 -0.2781
 1140YOPC   GL116509   3.257  13.297   5.189  0.0108 -0.2438 -0.1331
 1140YOPC   GL216510   3.392  13.611   5.369  0.1759  0.2195 -0.2358
 1140YOPC   C1A16511   3.391  13.106   5.611 -0.1576  0.1999  0.2848
 1140YOPC   D2A16512   3.579  13.023   6.022 -0.3767 -0.3515  0.1418
 1140YOPC   C3A16513   3.668  12.678   6.152  0.0995  0.0755  0.0855
 1140YOPC   C4A16514   3.780  12.495   6.582  0.0212 -0.2495  0.1048
 1140YOPC   C1B16515   3.735  13.611   5.713 -0.0832 -0.3589  0.1414
 1140YOPC   C2B16516   3.879  13.397   6.212  0.1723  0.1307 -0.1108
 1140YOPC   D3B16517   4.168  13.036   6.005  0.3256 -0.1463  0.0107
 1140YOPC   C4B16518   4.420  12.798   5.657 -0.1716  0.1974  0.1760
 1141YOPC   NC316519   2.442  15.563   4.401 -0.2438 -0.0556 -0.1874
 1141YOPC   PO416520   2.233  15.763   4.662 -0.2920 -0.0930 -0.0022
 1141YOPC   GL116521   2.496  15.718   5.084 -0.3613 -0.2769 -0.1189
 1141YOPC   GL216522   2.361  15.491   5.149  0.3554  0.2113  0.2468
 1141YOPC   C1A16523   2.490  15.971   5.444  0.3465  0.2500 -0.2681
 1141YOPC   D2A16524   2.551  15.935   5.906  0.4282 -0.4405 -0.3052
 1141YOPC   C3A16525   2.555  16.349   6.201 -0.0235  0.2157  0.1810
 1141YOPC   C4A16526   2.718  16.337   6.686 -0.0195  0.0277 -0.0262
 1141YOPC   C1B16527   2.216  15.597   5.474  0.1986  0.0004  0.0692
 1141YOPC   C2B16528   2.003  15.768   5.800  0.1138  0.1042 -0.4941
 1141YOPC   D3B16529   1.877  16.127   5.643 -0.1918  0.0797 -0.0365
 1141YOPC   C4B16530   1.859  16.573   5.585 -0.2961 -0.0326 -0.0417
 1142YOPC   NC316531  18.725   1.026   4.911 -0.0540 -0.1899  0.2538
 1142YOPC   PO416532  18.508   1.143   5.281 -0.0961 -0.1466  0.2998
 1142YOPC   GL116533  18.388   1.304   5.658  0.0139 -0.2617 -0.2613
 1142YOPC   GL216534  18.674   1.453   5.788 -0.1886  0.1223 -0.0203
 1142YOPC   C1A16535  18.184   1.589   5.886 -0.2995 -0.0161  0.0534
 1142YOPC   D2A16536  18.219   1.646   6.278 -0.1249 -0.2930  0.1351
 1142YOPC   C3A16537  18.292   1.948   6.670 -0.2621 -0.0218  0.3520
 1142YOPC   C4A16538  18.686   2.237   6.910 -0.5801  0.1637  0.1856
 1142YOPC   C1B16539  18.669   1.507   6.161  0.1777 -0.1771 -0.2083
 1142YOPC   C2B16540  18.494   1.417   6.640  0.0308  0.1450  0.0875
 1142YOPC   D3B16541  18.783   1.279   6.816  0.0500  0.1032 -0.0979
 1142YOPC   C4B16542  18.868   0.819   6.582  0.2879 -0.2177 -0.0954
 1143YOPC   NC316543  15.675   6.184   5.348  0.0202  0.2522 -0.2659
 1143YOPC   PO416544  15.333   5.906   5.460 -0.0097 -0.1671  0.0542
 1143YOPC   GL116545  15.436   5.982   5.888  0.0369  0.2180  0.0543
 1143YOPC   GL216546  15.646   6.310   5.833  0.2452  0.1046  0.1733
 1143YOPC   C1A16547  15.644   5.857   6.254  0.4171  0.0717  0.4165
 1143YOPC   D2A16548  15.771   6.093   6.622  0.0309 -0.4332 -0.0198
 1143YOPC   C3A16549  15.922   5.826   6.957 -0.0158 -0.1592  0.1514
 1143YOPC   C4A16550  15.974   5.806   7.405 -0.2219  0.4361 -0.1993
 1143YOPC   C1B16551  15.779   6.425   6.192  0.2970 -0.1373 -0.1496
 1143YOPC   C2B16552  15.943   6.576   6.530  0.0083 -0.0742 -0.0831
 1143YOPC   D3B16553  16.207   6.364   6.839 -0.2666  0.3348 -0.1702
 1143YOPC   C4B16554  16.230   6.206   7.257  0.1081 -0.2033 -0.1021
 1144YOPC   NC316555  14.989  11.330   4.659 -0.1111 -0.2624  0.1972
 1144YOPC   PO416556  15.393  11.089   4.772  0.2478 -0.1419  0.1389
 1144YOPC   GL116557  15.239  11.005   5.175 -0.1855 -0.0769  0.1843
 1144YOPC   GL216558  15.005  11.147   5.325  0.4149  0.0822  0.0557
 1144YOPC   C1A16559  15.367  10.852   5.589  0.0540 -0.1689 -0.1701
 1144YOPC   D2A16560  15.708  10.907   5.861  0.2695  0.3430 -0.2215
 1144YOPC   C3A16561  15.564  11.187   6.193 -0.0233 -0.3199 -0.0682
 1144YOPC   C4A16562  15.436  11.142   6.594  0.3615  0.1650  0.0252
 1144YOPC   C1B16563  15.100  11.127   5.849 -0.0575 -0.3889 -0.1234
 1144YOPC   C2B16564  15.158  10.899   6.199  0.0722 -0.2305  0.0307
 1144YOPC   D3B16565  14.839  10.502   6.289 -0.1369  0.0577  0.1845
 1144YOPC   C4B16566  14.724  10.477   6.772  0.1927 -0.0464  0.0160
 1145YOPC   NC316567   2.878   2.313   4.639 -0.1588  0.1125 -0.1628
 1145YOPC   PO416568   3.260   2.345   4.707 -0.0849 -0.0612  0.0763
 1145YOPC   GL116569   3.364   2.323   5.128 -0.0603 -0.0732  0.0712
 1145YOPC   GL216570   3.614   2.390   5.274 -0.3159 -0.1289  0.2252
 1145YOPC   C1A16571   3.575   1.875   5.367  0.4772 -0.1394 -0.0719
 1145YOPC   D2A16572   3.607   1.860   5.760  0.5119  0.2338 -0.0471
 1145YOPC   C3A16573   3.919   2.155   5.780  0.2701 -0.0363  0.0380
 1145YOPC   C4A16574   4.127   2.185   5.389  0.3320  0.4286 -0.1141
 1145YOPC   C1B16575   3.372   2.294   5.626 -0.0568  0.1952  0.1255
 1145YOPC   C2B16576   3.405   2.178   6.041  0.1512  0.1392 -0.0553
 1145YOPC   D3B16577   3.084   2.402   6.351  0.2010 -0.0156 -0.1052
 1145YOPC   C4B16578   2.808   2.680   6.228 -0.2699 -0.0632  0.1452
 1146ERGO   ROH16579   2.519   7.357   8.597  0.0684 -0.0515 -0.0094
 1146ERGO    R116580   2.474   7.356   8.318 -0.0920 -0.0317  0.0155
 1146ERGO    R216581   2.283   7.516   8.197  0.0674  0.2288  0.0984
 1146ERGO    R316582   2.494   7.596   8.046  0.1052 -0.1009 -0.0317
 1146ERGO    R416583   2.262   7.613   7.867  0.0368  0.1714  0.0833
 1146ERGO    R516584   2.448   7.506   7.828 -0.1285 -0.0966  0.0146
 1146ERGO    C116585   2.448   7.746   7.531  0.0545 -0.1718 -0.0476
 1146ERGO    C216586   2.347   7.760   7.228 -0.2597  0.2285  0.0673
 1147ERGO   ROH16587  13.003   1.728   5.686 -0.2135  0.0568  0.0667
 1147ERGO    R116588  12.886   1.705   5.943 -0.1586  0.1162  0.0971
 1147ERGO    R216589  12.965   1.513   6.126 -0.1975  0.0862  0.0812
 1147ERGO    R316590  12.999   1.729   6.288 -0.0602  0.0757  0.0681
 1147ERGO    R416591  12.995   1.498   6.470  0.0138  0.0704  0.0640
 1147ERGO    R516592  12.870   1.677   6.483  0.0514  0.0913  0.1474
 1147ERGO    C116593  13.044   1.692   6.823  0.2656  0.0514  0.0418
 1147ERGO    C216594  13.130   1.824   7.132  0.2943  0.3416 -0.0760
 1148ERGO   ROH16595   2.941   6.791   5.394 -0.0504 -0.0808  0.2377
 1148ERGO    R116596   3.013   6.855   5.660 -0.0040  0.0982  0.1851
 1148ERGO    R216597   3.276   6.889   5.740  0.0210  0.0794  0.1357
 1148ERGO    R316598   3.183   7.128   5.829  0.0972  0.1754 -0.0422
 1148ERGO    R416599   3.451   7.107   5.944 -0.0015  0.0892  0.1427
 1148ERGO    R516600   3.267   7.147   6.052 -0.0445  0.2449 -0.0002
 1148ERGO    C116601   3.465   7.459   6.145  0.0569  0.1850 -0.0201
 1148ERGO    C216602   3.612   7.734   6.372 -0.0804  0.0300  0.0580
 1149ERGO   ROH16603  16.582  12.468   5.550  0.3045 -0.3069 -0.1957
 1149ERGO    R116604  16.699  12.379   5.792  0.2158 -0.1155 -0.0802
 1149ERGO    R216605  16.917  12.503   5.905  0.1485 -0.0013 -0.0765
 1149ERGO    R316606  16.756  12.516   6.124  0.0550  0.1331 -0.1515
 1149ERGO    R416607  17.028  12.498   6.233 -0.0018 -0.0102 -0.0247
 1149ERGO    R516608  16.859  12.369   6.282 -0.1030  0.0978 -0.0778
 1149ERGO    C116609  16.942  12.506   6.629 -0.1770  0.1108 -0.0648
 1149ERGO    C216610  17.071  12.581   7.083  0.2420  0.0176  0.0627
 1150ERGO   ROH16611  15.314  14.614   8.958 -0.2446  0.1085  0.0099
 1150ERGO    R116612  15.233  14.498   8.713  0.1326 -0.0532 -0.0456
 1150ERGO    R216613  15.073  14.631   8.530 -0.0697 -0.3779 -0.1160
 1150ERGO    R316614  15.275  14.570   8.359  0.1625  0.0733 -0.0160
 1150ERGO    R416615  15.083  14.719   8.196 -0.0564 -0.2867 -0.0916
 1150ERGO    R516616  15.166  14.523   8.152  0.3775 -0.1122 -0.0896
 1150ERGO    C116617  15.278  14.714   7.841  0.1695  0.1898  0.0166
 1150ERGO    C216618  15.336  14.989   7.566 -0.0230 -0.1351 -0.1309
 1151ERGO   ROH16619  14.237  11.443   8.835  0.1191  0.0378  0.0035
 1151ERGO    R116620  14.101  11.608   8.649  0.0530  0.0027  0.0207
 1151ERGO    R216621  14.210  11.842   8.550  0.0701 -0.0798 -0.1559
 1151ERGO    R316622  14.157  11.726   8.310 -0.1317 -0.1682 -0.0721
 1151ERGO    R416623  14.010  11.979   8.304  0.3641  0.1349 -0.2814
 1151ERGO    R516624  13.928  11.781   8.266 -0.0288  0.2560 -0.1341
 1151ERGO    C116625  13.844  11.951   7.935  0.3457  0.1770 -0.2756
 1151ERGO    C216626  13.842  12.042   7.627 -0.1082 -0.1096 -0.0590
 1152ERGO   ROH16627  10.676  10.768   5.610 -0.1127 -0.0271  0.0623
 1152ERGO    R116628  10.702  10.617   5.848 -0.1014  0.0278  0.0963
 1152ERGO    R216629  10.868  10.398   5.867 -0.2047 -0.0508  0.0970
 1152ERGO    R316630  10.969  10.533   6.081 -0.0574 -0.0400  0.0218
 1152ERGO    R416631  11.116  10.278   6.077 -0.1521 -0.0959  0.0096
 1152ERGO    R516632  11.006  10.363   6.246 -0.0445 -0.0181  0.0421
 1152ERGO    C116633  11.355  10.336   6.399  0.0167 -0.1122 -0.1118
 1152ERGO    C216634  11.727  10.191   6.400 -0.1627  0.0742 -0.1590
 1153ERGO   ROH16635  15.487   6.859   6.002 -0.1247  0.2483 -0.1029
 1153ERGO    R116636  15.491   6.852   6.285 -0.1921  0.1873 -0.1037
 1153ERGO    R216637  15.285   6.743   6.434 -0.1794  0.0612 -0.1803
 1153ERGO    R316638  15.486   6.595   6.543 -0.1400  0.1276 -0.1614
 1153ERGO    R416639  15.300   6.640   6.764 -0.1568  0.0987 -0.1689
 1153ERGO    R516640  15.513   6.684   6.764 -0.1683  0.1581 -0.1694
 1153ERGO    C116641  15.497   6.442   7.058 -0.1065  0.1828 -0.1446
 1153ERGO    C216642  15.555   6.200   7.196 -0.2923 -0.0822  0.1942
 1154ERGO   ROH16643  13.828   1.687   5.514  0.0701  0.1833  0.1740
 1154ERGO    R116644  13.799   1.631   5.790 -0.0174  0.1352  0.1555
 1154ERGO    R216645  13.552   1.627   5.915 -0.0726 -0.0161  0.0513
 1154ERGO    R316646  13.632   1.379   5.992  0.0351  0.0185  0.0519
 1154ERGO    R416647  13.449   1.465   6.203  0.0095 -0.0670  0.0523
 1154ERGO    R516648  13.652   1.393   6.229  0.0360  0.0219  0.0477
 1154ERGO    C116649  13.465   1.138   6.442  0.1582 -0.0642  0.0535
 1154ERGO    C216650  13.630   0.838   6.701  0.0072 -0.1874  0.2238
 1155ERGO   ROH16651   6.009  11.642   5.410  0.2138 -0.2810  0.2214
 1155ERGO    R116652   6.010  11.768   5.663  0.3524 -0.2028  0.1825
 1155ERGO    R216653   6.213  11.936   5.745  0.2446  0.0756 -0.1065
 1155ERGO    R316654   6.009  12.110   5.789  0.0757 -0.1609  0.0758
 1155ERGO    R416655   6.241  12.231   5.923  0.0468  0.0751 -0.0722
 1155ERGO    R516656   6.046  12.190   6.012  0.1535 -0.1633  0.0661
 1155ERGO    C116657   6.066  12.567   6.067 -0.2269 -0.1471  0.1191
 1155ERGO    C216658   6.080  12.752   6.308 -0.1263 -0.1143  0.1431
 1156ERGO   ROH16659   8.980  16.664   5.307 -0.2114  0.1531  0.1034
 1156ERGO    R116660   9.045  16.458   5.490 -0.2290  0.0663  0.0127
 1156ERGO    R216661   8.986  16.474   5.760 -0.0557  0.0358  0.0525
 1156ERGO    R316662   8.862  16.237   5.715 -0.2318  0.1236  0.0673
 1156ERGO    R416663   8.965  16.216   5.989  0.0483 -0.0594 -0.0440
 1156ERGO    R516664   9.000  16.076   5.826 -0.1972 -0.0036 -0.1520
 1156ERGO    C116665   8.835  15.843   6.079 -0.0565 -0.0323 -0.0862
 1156ERGO    C216666   8.620  15.813   6.389  0.0029 -0.1507  0.0870
 1157ERGO   ROH16667   3.287  10.018   5.004  0.0315  0.0042  0.0696
 1157ERGO    R116668   3.197   9.907   5.248 -0.0843  0.0672  0.0566
 1157ERGO    R216669   3.370   9.805   5.438 -0.1847 -0.0961  0.0667
 1157ERGO    R316670   3.240   9.978   5.602 -0.0478  0.0110  0.0622
 1157ERGO    R416671   3.390   9.804   5.783 -0.1570 -0.0668  0.0650
 1157ERGO    R516672   3.177   9.846   5.791 -0.1227  0.0813  0.0821
 1157ERGO    C116673   3.280   9.966   6.138 -0.0124  0.0507  0.0599
 1157ERGO    C216674   3.571  10.164   6.509  0.1276 -0.2545  0.0549
 1158ERGO   ROH16675  15.342  18.192   8.841 -0.3236  0.1052 -0.0058
 1158ERGO    R116676  15.407  18.371   8.631 -0.2230  0.0445 -0.0257
 1158ERGO    R216677  15.612  18.322   8.452 -0.1778 -0.0363  0.0522
 1158ERGO    R316678  15.417  18.360   8.267 -0.1106 -0.0380 -0.0212
 1158ERGO    R416679  15.667  18.396   8.119 -0.0534 -0.0828  0.0607
 1158ERGO    R516680  15.500  18.535   8.127 -0.0426 -0.0628 -0.0144
 1158ERGO    C116681  15.515  18.473   7.751  0.0821 -0.1115 -0.0033
 1158ERGO    C216682  15.612  18.491   7.473 -0.0209 -0.0889  0.1027
 1159ERGO   ROH16683   0.017   3.740   8.713  0.0324  0.1186  0.0156
 1159ERGO    R116684   0.234   3.736   8.532  0.0263  0.3332  0.0033
 1159ERGO    R216685   0.252   3.552   8.325  0.2857  0.2303  0.1261
 1159ERGO    R316686   0.279   3.776   8.173 -0.0580  0.1745 -0.0290
 1159ERGO    R416687   0.350   3.555   7.994  0.5642  0.1425  0.2038
 1159ERGO    R516688   0.470   3.732   8.036  0.1680  0.4478  0.1722
 1159ERGO    C116689   0.433   3.766   7.658  0.4037  0.0390  0.1034
 1159ERGO    C216690   0.340   3.797   7.370 -0.1202  0.0381  0.0269
 1160ERGO   ROH16691   0.730  11.358   5.150 -0.1912 -0.0703 -0.1329
 1160ERGO    R116692   0.639  11.236   5.389 -0.0625  0.0126 -0.0412
 1160ERGO    R216693   0.796  11.218   5.616 -0.0033  0.2516 -0.0620
 1160ERGO    R316694   0.584  11.339   5.734 -0.0595  0.1831 -0.0904
 1160ERGO    R416695   0.747  11.239   5.957 -0.0451  0.2501 -0.0675
 1160ERGO    R516696   0.535  11.201   5.923 -0.0300  0.1732 -0.0883
 1160ERGO    C116697   0.518  11.366   6.267 -0.1222  0.1850 -0.0975
 1160ERGO    C216698   0.441  11.369   6.494 -0.1363  0.2026  0.0250
 1161ERGO   ROH16699  11.289   8.692   5.222 -0.0473 -0.0205 -0.0635
 1161ERGO    R116700  11.274   8.492   5.423 -0.0036  0.0123 -0.0273
 1161ERGO    R216701  11.497   8.362   5.520  0.0252  0.0770 -0.0051
 1161ERGO    R316702  11.401   8.447   5.760  0.0089  0.1007 -0.0202
 1161ERGO    R416703  11.639   8.290   5.827 -0.0073  0.0942  0.0140
 1161ERGO    R516704  11.439   8.263   5.908 -0.0148  0.1116 -0.0019
 1161ERGO    C116705  11.632   8.327   6.231 -0.0416  0.1266  0.0111
 1161ERGO    C216706  11.581   8.330   6.705 -0.2383 -0.1581  0.1523
 1162ERGO   ROH16707   3.785  19.456   8.571  0.0039  0.1653 -0.0586
 1162ERGO    R116708   3.549  19.429   8.416  0.0142  0.1021 -0.0658
 1162ERGO    R216709   3.446  19.637   8.264 -0.0118  0.0626 -0.1114
 1162ERGO    R316710   3.460  19.453   8.064  0.0310  0.0263 -0.0739
 1162ERGO    R416711   3.248  19.636   7.981 -0.1980 -0.2033  0.0172
 1162ERGO    R516712   3.233  19.419   7.998  0.0205 -0.2110  0.0818
 1162ERGO    C116713   3.145  19.462   7.629 -0.2662 -0.3925  0.1274
 1162ERGO    C216714   3.194  19.489   7.245  0.0510 -0.1008  0.0297
 1163ERGO   ROH16715   6.273  12.363   8.812  0.0027  0.1352 -0.0494
 1163ERGO    R116716   6.397  12.449   8.573  0.0951  0.0274 -0.0417
 1163ERGO    R216717   6.568  12.288   8.428  0.0047 -0.1080 -0.0058
 1163ERGO    R316718   6.398  12.345   8.224  0.0675 -0.0078 -0.0302
 1163ERGO    R416719   6.665  12.388   8.112  0.0932  0.0865  0.0817
 1163ERGO    R516720   6.500  12.530   8.111  0.0815  0.0668  0.1089
 1163ERGO    C116721   6.562  12.499   7.736  0.2038  0.2938  0.1095
 1163ERGO    C216722   6.674  12.491   7.509 -0.1980 -0.2471 -0.1622
 1164ERGO   ROH16723   6.047  15.406   5.532  0.0120 -0.0911 -0.1200
 1164ERGO    R116724   6.143  15.285   5.770  0.1041 -0.2293 -0.2261
 1164ERGO    R216725   6.408  15.217   5.806  0.1950  0.1206 -0.2169
 1164ERGO    R316726   6.383  15.368   6.031 -0.1095 -0.1740 -0.0432
 1164ERGO    R416727   6.559  15.147   6.109  0.2801  0.0381 -0.2773
 1164ERGO    R516728   6.375  15.208   6.209  0.1477 -0.4011 -0.2252
 1164ERGO    C116729   6.623  15.247   6.496  0.0439 -0.2864 -0.1495
 1164ERGO    C216730   6.929  15.069   6.566  0.3446  0.0340 -0.2237
 1165ERGO   ROH16731  11.739  19.394   8.636 -0.0090 -0.0853 -0.1957
 1165ERGO    R116732  11.633  19.281   8.399 -0.0218  0.1218 -0.2923
 1165ERGO    R216733  11.646  19.408   8.154  0.2127  0.2170 -0.2372
 1165ERGO    R316734  11.762  19.175   8.076  0.0158  0.1326 -0.2799
 1165ERGO    R416735  11.621  19.272   7.838  0.0335  0.2513 -0.2380
 1165ERGO    R516736  11.602  19.075   7.929 -0.0941  0.2627 -0.2467
 1165ERGO    C116737  11.716  18.973   7.580 -0.2555  0.1919 -0.2785
 1165ERGO    C216738  11.645  18.860   7.318  0.2157 -0.0076  0.2820
 1166ERGO   ROH16739  16.158   9.165   5.637  0.1207  0.1669  0.0071
 1166ERGO    R116740  16.255   9.245   5.891  0.1420 -0.0038  0.0549
 1166ERGO    R216741  16.096   9.371   6.079  0.2144  0.0797  0.0652
 1166ERGO    R316742  16.182   9.169   6.239 -0.0005 -0.0538  0.0134
 1166ERGO    R416743  16.071   9.367   6.423  0.1649 -0.0108  0.0601
 1166ERGO    R516744  16.269   9.278   6.432  0.0779 -0.2026  0.0605
 1166ERGO    C116745  16.136   9.174   6.774 -0.0656 -0.1888  0.0085
 1166ERGO    C216746  16.090   9.040   6.935 -0.0588  0.0396 -0.3607
 1167ERGO   ROH16747   6.185   7.649   5.364  0.0405 -0.0858  0.0871
 1167ERGO    R116748   6.382   7.603   5.562  0.2309  0.0293 -0.0714
 1167ERGO    R216749   6.632   7.719   5.552  0.0818  0.3610 -0.1561
 1167ERGO    R316750   6.568   7.803   5.803  0.1281  0.1056 -0.0558
 1167ERGO    R416751   6.845   7.889   5.765  0.1012  0.1913 -0.0384
 1167ERGO    R516752   6.768   7.770   5.930  0.1631  0.0161 -0.1355
 1167ERGO    C116753   6.909   8.067   6.124  0.1561 -0.1472  0.1243
 1167ERGO    C216754   7.024   8.180   6.538  0.2164 -0.0510 -0.1142
 1168ERGO   ROH16755   3.858   8.752   5.228 -0.0189 -0.1431 -0.1132
 1168ERGO    R116756   3.663   8.650   5.405  0.0995 -0.1106  0.0389
 1168ERGO    R216757   3.655   8.717   5.673  0.2052  0.0379  0.0072
 1168ERGO    R316758   3.398   8.787   5.614  0.1538 -0.0814  0.0877
 1168ERGO    R416759   3.406   8.769   5.907  0.2970  0.0921  0.0933
 1168ERGO    R516760   3.267   8.667   5.774  0.2680 -0.0313  0.2196
 1168ERGO    C116761   3.021   8.865   5.989  0.3022  0.0116  0.2190
 1168ERGO    C216762   2.947   8.989   6.328 -0.0159  0.3002 -0.0965
 1169ERGO   ROH16763   8.745  15.996   8.527 -0.2538 -0.1272 -0.0352
 1169ERGO    R116764   8.735  15.846   8.287 -0.2047 -0.0370 -0.0927
 1169ERGO    R216765   8.548  15.895   8.088 -0.0563  0.1416 -0.1778
 1169ERGO    R316766   8.770  15.913   7.932  0.0409  0.0610 -0.0552
 1169ERGO    R416767   8.554  15.847   7.746  0.1042  0.1056 -0.1722
 1169ERGO    R516768   8.742  15.741   7.768  0.0700  0.0449 -0.0548
 1169ERGO    C116769   8.765  15.837   7.400  0.2890  0.0090 -0.0538
 1169ERGO    C216770   8.909  15.730   7.140  0.1904 -0.1634 -0.2429
 1170ERGO   ROH16771  12.340   7.955   8.607  0.1022 -0.0388 -0.0926
 1170ERGO    R116772  12.530   7.862   8.419 -0.1639 -0.2088 -0.2870
 1170ERGO    R216773  12.468   7.816   8.154 -0.3507  0.3852 -0.3642
 1170ERGO    R316774  12.676   7.984   8.109  0.0664 -0.0438 -0.1158
 1170ERGO    R416775  12.655   7.827   7.863 -0.2858  0.3211 -0.3241
 1170ERGO    R516776  12.833   7.853   7.985 -0.2269 -0.2619 -0.2627
 1170ERGO    C116777  12.960   7.991   7.652  0.1437 -0.1189 -0.0677
 1170ERGO    C216778  13.146   8.132   7.410  0.0932 -0.0558 -0.4670
 1171ERGO   ROH16779  19.656  14.581   5.290  0.1338  0.0510  0.0392
 1171ERGO    R116780  19.575  14.472   5.539  0.0489  0.0537  0.0129
 1171ERGO    R216781  19.755  14.387   5.730 -0.0165 -0.1103  0.0026
 1171ERGO    R316782  19.617  14.557   5.891  0.0926 -0.0481  0.0325
 1171ERGO    R416783  19.657  14.317   6.054  0.0306 -0.0617  0.0277
 1171ERGO    R516784  19.467  14.415   6.012  0.0614  0.0175  0.0710
 1171ERGO    C116785  19.470  14.436   6.393  0.1603  0.0251  0.0704
 1171ERGO    C216786  19.518  14.350   6.776 -0.1578 -0.1674  0.0849
 1172ERGO   ROH16787  17.950   6.041   5.655 -0.1642 -0.1330  0.0943
 1172ERGO    R116788  18.163   5.901   5.778 -0.1529 -0.2883 -0.0973
 1172ERGO    R216789  18.196   5.892   6.053  0.1922 -0.1513 -0.1325
 1172ERGO    R316790  18.196   5.623   6.011 -0.1543 -0.1836  0.0305
 1172ERGO    R416791  18.309   5.657   6.279  0.0204 -0.1468 -0.0395
 1172ERGO    R516792  18.399   5.547   6.114 -0.1897 -0.3622 -0.0217
 1172ERGO    C116793  18.376   5.268   6.372 -0.4052 -0.1746  0.1677
 1172ERGO    C216794  18.583   5.114   6.690  0.0846  0.1244  0.0174
 1173ERGO   ROH16795  15.431   1.725   5.933  0.1179 -0.1508 -0.0104
 1173ERGO    R116796  15.430   1.805   6.204 -0.0109 -0.1008 -0.0244
 1173ERGO    R216797  15.638   1.746   6.377 -0.0464  0.0165  0.0608
 1173ERGO    R316798  15.636   2.015   6.419 -0.1724  0.0238  0.0104
 1173ERGO    R416799  15.817   1.909   6.624  0.0354  0.1669 -0.0962
 1173ERGO    R516800  15.644   2.038   6.657 -0.0168  0.0730  0.0008
 1173ERGO    C116801  15.919   2.256   6.807 -0.0351  0.2614 -0.2349
 1173ERGO    C216802  15.991   2.171   7.126 -0.2869  0.0927  0.4131
 1174ERGO   ROH16803   5.505   4.711   8.629 -0.1904  0.0788  0.1268
 1174ERGO    R116804   5.557   4.682   8.353  0.0900  0.0718  0.1757
 1174ERGO    R216805   5.736   4.497   8.253  0.0093 -0.1123  0.3435
 1174ERGO    R316806   5.523   4.420   8.103  0.0815  0.1477  0.1003
 1174ERGO    R416807   5.754   4.390   7.925  0.2045  0.0536  0.2988
 1174ERGO    R516808   5.572   4.502   7.884  0.3426  0.2236  0.1911
 1174ERGO    C116809   5.565   4.255   7.593  0.3859  0.3944  0.0445
 1174ERGO    C216810   5.668   4.212   7.261  0.0282  0.3114 -0.2687
 1175ERGO   ROH16811   4.724   3.017   8.597  0.0601 -0.1869  0.1127
 1175ERGO    R116812   4.890   3.205   8.464 -0.0941 -0.1156  0.0196
 1175ERGO    R216813   5.104   3.128   8.307  0.0693 -0.0163  0.1952
 1175ERGO    R316814   4.978   3.281   8.120 -0.0193 -0.3311 -0.0117
 1175ERGO    R416815   5.241   3.222   8.004  0.2348  0.0924  0.3014
 1175ERGO    R516816   5.152   3.419   8.030 -0.1655 -0.0484  0.1186
 1175ERGO    C116817   5.203   3.419   7.652  0.2480 -0.1398  0.1691
 1175ERGO    C216818   5.242   3.391   7.337  0.0453  0.2460 -0.1169
 1176ERGO   ROH16819  19.506  13.032   8.595 -0.1060 -0.0908  0.0329
 1176ERGO    R116820  19.546  12.992   8.318  0.2520  0.1816  0.0378
 1176ERGO    R216821  19.337  12.989   8.137  0.3868 -0.3936 -0.1195
 1176ERGO    R316822  19.486  13.179   8.012 -0.1104  0.1715  0.0954
 1176ERGO    R416823  19.288  13.096   7.812  0.3593 -0.4879 -0.1480
 1176ERGO    R516824  19.505  13.101   7.786  0.4066  0.2660  0.0872
 1176ERGO    C116825  19.400  13.337   7.505 -0.1233 -0.0121  0.0373
 1176ERGO    C216826  19.260  13.506   7.199  0.2935  0.2269  0.0737
 1177ERGO   ROH16827   5.825   3.862   5.333 -0.1432  0.4370  0.0270
 1177ERGO    R116828   5.950   4.071   5.477  0.1763  0.3124 -0.0621
 1177ERGO    R216829   5.961   4.075   5.753 -0.0193  0.5192 -0.0534
 1177ERGO    R316830   6.228   4.101   5.710  0.0780 -0.0581  0.1110
 1177ERGO    R416831   6.169   4.291   5.925  0.3009  0.2598 -0.1029
 1177ERGO    R516832   6.270   4.336   5.737  0.5332 -0.1087 -0.0723
 1177ERGO    C116833   6.540   4.442   5.985  0.5787 -0.4333  0.0226
 1177ERGO    C216834   6.613   4.617   6.286  0.1613  0.5107  0.0488
 1178ERGO   ROH16835   2.087   2.229   5.609  0.2560  0.1611  0.1318
 1178ERGO    R116836   2.034   2.034   5.807 -0.0877  0.1060 -0.0075
 1178ERGO    R216837   2.165   2.028   6.050  0.0701 -0.4239 -0.0893
 1178ERGO    R316838   1.913   2.031   6.150  0.1272  0.1050  0.0688
 1178ERGO    R416839   2.084   2.088   6.380  0.4195 -0.5095  0.0163
 1178ERGO    R516840   1.933   1.932   6.367  0.0249 -0.1377 -0.0320
 1178ERGO    C116841   1.800   2.126   6.667  0.6766 -0.0629  0.2261
 1178ERGO    C216842   1.559   2.286   6.824  0.2370  0.1252 -0.1858
 1179ERGO   ROH16843  12.035  17.187   5.540  0.1995  0.3925  0.0820
 1179ERGO    R116844  11.877  17.385   5.666  0.3131  0.3201  0.3436
 1179ERGO    R216845  11.601  17.374   5.672  0.2783  0.6846 -0.0579
 1179ERGO    R316846  11.638  17.397   5.940 -0.0340 -0.0092  0.0657
 1179ERGO    R416847  11.393  17.549   5.886  0.4211  0.7557  0.0240
 1179ERGO    R516848  11.570  17.621   5.991  0.4768  0.0755  0.4544
 1179ERGO    C116849  11.307  17.672   6.262  0.2112  0.1459  0.1877
 1179ERGO    C216850  11.259  17.804   6.618  0.4787  0.0529 -0.2525
 1180ERGO   ROH16851   0.747  10.038   5.007  0.2411 -0.1914  0.1491
 1180ERGO    R116852   0.870  10.024   5.262  0.1115 -0.3437  0.2042
 1180ERGO    R216853   0.857  10.231   5.444  0.3365 -0.3036  0.1705
 1180ERGO    R316854   0.760  10.038   5.609 -0.0205 -0.1443  0.1578
 1180ERGO    R416855   0.849  10.251   5.789  0.4046 -0.3134  0.1734
 1180ERGO    R516856   0.907  10.041   5.798  0.0118 -0.4369  0.1470
 1180ERGO    C116857   0.752  10.080   6.144  0.1091 -0.1696  0.1631
 1180ERGO    C216858   0.645   9.939   6.509 -0.0480  0.0514  0.0171
 1181ERGO   ROH16859   8.809  19.177   5.170  0.2506 -0.0896 -0.1092
 1181ERGO    R116860   8.835  19.142   5.450  0.4561 -0.0248 -0.1195
 1181ERGO    R216861   9.000  19.301   5.604  0.1292  0.3982 -0.1909
 1181ERGO    R316862   8.773  19.340   5.748  0.0761 -0.1718 -0.0958
 1181ERGO    R416863   8.984  19.470   5.905 -0.1831  0.4777 -0.2485
 1181ERGO    R516864   8.843  19.320   5.977  0.2548  0.1030 -0.1201
 1181ERGO    C116865   8.761  19.605   6.216 -0.4148 -0.0111 -0.1927
 1181ERGO    C216866   8.763  19.882   6.443  0.0296  0.0989  0.0510
 1182ERGO   ROH16867   8.588   2.279   8.448 -0.2133  0.0294 -0.1294
 1182ERGO    R116868   8.579   2.202   8.176 -0.3689  0.0261 -0.1246
 1182ERGO    R216869   8.350   2.222   8.022 -0.3723  0.3447 -0.0879
 1182ERGO    R316870   8.512   2.365   7.857 -0.1932  0.1096 -0.1194
 1182ERGO    R416871   8.293   2.273   7.685 -0.2885  0.3229 -0.1055
 1182ERGO    R516872   8.506   2.245   7.650 -0.3204  0.0618 -0.0864
 1182ERGO    C116873   8.413   2.437   7.334 -0.0716  0.0895 -0.1451
 1182ERGO    C216874   8.292   2.656   7.026 -0.0239  0.1381 -0.2840
 1183ERGO   ROH16875   0.154  18.486   5.624  0.2421  0.0587  0.0059
 1183ERGO    R116876   0.053  18.471   5.888  0.3612 -0.0308  0.0458
 1183ERGO    R216877   0.201  18.545   6.109  0.3144  0.2998 -0.0376
 1183ERGO    R316878  -0.013  18.704   6.160  0.0507 -0.0513 -0.0047
 1183ERGO    R416879   0.092  18.634   6.425  0.4806  0.4329 -0.0155
 1183ERGO    R516880  -0.113  18.608   6.356  0.4389 -0.0446  0.2151
 1183ERGO    C116881  -0.172  18.836   6.657  0.3298  0.1808  0.0282
 1183ERGO    C216882  -0.228  18.879   6.999 -0.1266 -0.1621 -0.0365
 1184ERGO   ROH16883   6.747  10.457   5.687 -0.0691 -0.1192  0.1001
 1184ERGO    R116884   6.932  10.531   5.887 -0.0162 -0.0160  0.0155
 1184ERGO    R216885   6.963  10.792   5.971  0.0511  0.0435 -0.1661
 1184ERGO    R316886   6.918  10.685   6.217  0.0704  0.2148 -0.0884
 1184ERGO    R416887   7.032  10.951   6.271  0.1180  0.2219 -0.2758
 1184ERGO    R516888   7.104  10.760   6.349  0.0954  0.2672 -0.1621
 1184ERGO    C116889   7.031  10.942   6.676  0.1751  0.4867 -0.2665
 1184ERGO    C216890   6.851  11.033   6.984  0.1822  0.0202 -0.3655
 1185ERGO   ROH16891   8.077  12.571   5.385  0.2283  0.2507  0.0748
 1185ERGO    R116892   7.872  12.645   5.565  0.1987  0.1049  0.1015
 1185ERGO    R216893   7.920  12.792   5.794  0.1211  0.1597  0.0809
 1185ERGO    R316894   7.729  12.955   5.690 -0.0245  0.0048  0.1001
 1185ERGO    R416895   7.767  13.051   5.965  0.1148  0.2007  0.0149
 1185ERGO    R516896   7.578  12.994   5.872  0.0780  0.0523  0.1764
 1185ERGO    C116897   7.498  13.354   5.967 -0.0255  0.0791 -0.0055
 1185ERGO    C216898   7.475  13.623   6.199 -0.0735  0.2563  0.3592
 1186ERGO   ROH16899  10.386   0.751   6.530 -0.0864  0.0290  0.1647
 1186ERGO    R116900  10.282   1.013   6.508 -0.0576  0.0361  0.1307
 1186ERGO    R216901  10.265   1.185   6.723 -0.0596  0.0537  0.1095
 1186ERGO    R316902  10.405   1.352   6.560 -0.0310  0.0313  0.1084
 1186ERGO    R416903  10.259   1.530   6.743  0.0859  0.0536  0.1901
 1186ERGO    R516904  10.256   1.537   6.525  0.0320  0.1017  0.1879
 1186ERGO    C116905  10.387   1.888   6.601  0.1975  0.0324  0.2361
 1186ERGO    C216906  10.406   2.320   6.648  0.2714 -0.0196 -0.0844
 1187ERGO   ROH16907  15.919   5.884   5.646 -0.0702  0.0756 -0.0016
 1187ERGO    R116908  16.125   5.927   5.836 -0.0686  0.1267 -0.0151
 1187ERGO    R216909  16.094   6.092   6.055 -0.1693 -0.0468  0.1027
 1187ERGO    R316910  16.172   5.871   6.192  0.0511 -0.0738 -0.0602
 1187ERGO    R416911  16.240   6.095   6.368  0.0689 -0.1199 -0.0057
 1187ERGO    R516912  16.374   5.937   6.302  0.1024 -0.0206 -0.1837
 1187ERGO    C116913  16.399   5.888   6.679  0.4146 -0.1879 -0.2217
 1187ERGO    C216914  16.498   5.956   6.962 -0.0480  0.0971  0.1573
 1188ERGO   ROH16915   2.501   5.730   5.017  0.0000 -0.0911 -0.1058
 1188ERGO    R116916   2.524   5.739   5.299  0.0922  0.0148 -0.1153
 1188ERGO    R216917   2.373   5.577   5.466  0.0391  0.1787  0.0026
 1188ERGO    R316918   2.617   5.507   5.564  0.0264  0.0667 -0.0472
 1188ERGO    R416919   2.430   5.445   5.780  0.0338  0.0557 -0.0483
 1188ERGO    R516920   2.609   5.568   5.795  0.0740 -0.0087 -0.0269
 1188ERGO    C116921   2.692   5.302   6.055  0.0189 -0.1211 -0.1247
 1188ERGO    C216922   2.716   5.225   6.344 -0.1614  0.1478  0.0645
 1189ERGO   ROH16923   9.020   4.350   9.013  0.2251 -0.0708 -0.0147
 1189ERGO    R116924   8.850   4.425   8.799  0.0904 -0.1874  0.0480
 1189ERGO    R216925   8.870   4.669   8.671 -0.2296 -0.0996  0.1372
 1189ERGO    R316926   8.890   4.513   8.449 -0.0781  0.0051  0.0779
 1189ERGO    R416927   8.740   4.749   8.361 -0.1845 -0.0604  0.1296
 1189ERGO    R516928   8.680   4.541   8.338 -0.0549 -0.0778  0.0268
 1189ERGO    C116929   8.682   4.650   7.972 -0.0163  0.0606  0.0694
 1189ERGO    C216930   8.533   4.757   7.735  0.0953 -0.2456  0.0324
 1190ERGO   ROH16931   9.871   4.160   8.862  0.1441 -0.0125  0.0424
 1190ERGO    R116932   9.807   3.964   8.668  0.1644  0.0113  0.0142
 1190ERGO    R216933   9.591   3.987   8.498  0.1366 -0.0095  0.0600
 1190ERGO    R316934   9.779   3.948   8.306  0.1096  0.0718  0.0136
 1190ERGO    R416935   9.523   3.928   8.164  0.0632 -0.2841  0.1190
 1190ERGO    R516936   9.684   3.781   8.162  0.2234 -0.1221  0.1507
 1190ERGO    C116937   9.660   3.858   7.790 -0.0049 -0.3677  0.1098
 1190ERGO    C216938   9.578   4.010   7.503  0.3345 -0.2451 -0.1684
 1191ERGO   ROH16939  13.807   4.308   6.137  0.0204  0.3072  0.1505
 1191ERGO    R116940  14.043   4.275   6.291  0.0112  0.0638  0.1173
 1191ERGO    R216941  14.078   4.396   6.537  0.1663  0.0177  0.1213
 1191ERGO    R316942  14.128   4.142   6.619 -0.0780 -0.0397  0.0982
 1191ERGO    R416943  14.260   4.312   6.818  0.1237 -0.1888  0.0882
 1191ERGO    R516944  14.352   4.150   6.704 -0.0572 -0.2741  0.0662
 1191ERGO    C116945  14.413   4.024   7.059 -0.1305 -0.3629  0.0473
 1191ERGO    C216946  14.552   3.777   7.278  0.2062 -0.1148  0.1207
 1192ERGO   ROH16947  19.069  17.277   8.894  0.1222  0.0123 -0.0108
 1192ERGO    R116948  19.180  17.280   8.634  0.1729  0.0480  0.0110
 1192ERGO    R216949  19.030  17.235   8.407  0.2513 -0.1104 -0.0118
 1192ERGO    R316950  19.135  17.473   8.329  0.0858 -0.0432 -0.0343
 1192ERGO    R416951  19.125  17.313   8.084  0.1554 -0.0583 -0.0277
 1192ERGO    R516952  19.300  17.415   8.165  0.1015  0.0583 -0.0556
 1192ERGO    C116953  19.279  17.582   7.822 -0.0556  0.0354 -0.0581
 1192ERGO    C216954  19.346  17.555   7.447 -0.0189 -0.0672  0.2532
 1193ERGO   ROH16955  15.682  13.638   8.986 -0.2836  0.0733  0.2050
 1193ERGO    R116956  15.535  13.496   8.790 -0.1260  0.0079  0.1326
 1193ERGO    R216957  15.389  13.623   8.594 -0.1506 -0.0564  0.1127
 1193ERGO    R316958  15.537  13.467   8.428  0.0063  0.0743  0.1266
 1193ERGO    R416959  15.388  13.646   8.249 -0.0393  0.0360  0.1177
 1193ERGO    R516960  15.394  13.428   8.239  0.0951  0.0375  0.0630
 1193ERGO    C116961  15.527  13.512   7.892  0.1730  0.2123  0.1337
 1193ERGO    C216962  15.557  13.533   7.547  0.0579  0.0127 -0.2237
 1194ERGO   ROH16963  15.425   0.400   5.727 -0.1727  0.1104 -0.0484
 1194ERGO    R116964  15.306   0.253   5.938  0.0123  0.0054 -0.0133
 1194ERGO    R216965  15.388   0.278   6.201  0.1089  0.0285 -0.0374
 1194ERGO    R316966  15.125   0.330   6.244  0.0919 -0.1457  0.0704
 1194ERGO    R416967  15.254   0.380   6.503  0.1721  0.0632 -0.0221
 1194ERGO    R516968  15.084   0.249   6.466  0.2544 -0.0739  0.1219
 1194ERGO    C116969  14.929   0.488   6.719  0.1931 -0.0801  0.0880
 1194ERGO    C216970  14.910   0.487   7.070 -0.0319 -0.0822  0.1611
 1195ERGO   ROH16971   8.480   3.218   8.957 -0.2383 -0.2806  0.0428
 1195ERGO    R116972   8.349   3.314   8.725 -0.0701 -0.1047  0.0168
 1195ERGO    R216973   8.484   3.439   8.519  0.1327 -0.2411  0.0549
 1195ERGO    R316974   8.363   3.249   8.367 -0.0538 -0.0938  0.0175
 1195ERGO    R416975   8.464   3.445   8.174  0.0323 -0.1091  0.0635
 1195ERGO    R516976   8.260   3.372   8.190 -0.0129  0.0411  0.0930
 1195ERGO    C116977   8.339   3.271   7.831 -0.2013  0.1060  0.0333
 1195ERGO    C216978   8.401   3.413   7.595  0.0850  0.0726  0.0742
 1196ERGO   ROH16979   7.603   3.761   8.672  0.2225  0.0204  0.0462
 1196ERGO    R116980   7.465   3.860   8.445  0.0739 -0.1570  0.0564
 1196ERGO    R216981   7.583   4.026   8.260 -0.1684  0.0340  0.0683
 1196ERGO    R316982   7.500   3.837   8.083  0.1019 -0.0735  0.0526
 1196ERGO    R416983   7.595   4.060   7.916 -0.2103  0.0942  0.0740
 1196ERGO    R516984   7.399   3.963   7.906 -0.0797 -0.1906  0.0657
 1196ERGO    C116985   7.523   3.902   7.550  0.0191  0.0284  0.0628
 1196ERGO    C216986   7.454   4.044   7.285 -0.1869  0.1419  0.2213
 1197ERGO   ROH16987  12.746   8.988   8.325 -0.1001  0.1554 -0.1071
 1197ERGO    R116988  12.592   8.869   8.119  0.1102  0.0107 -0.1818
 1197ERGO    R216989  12.450   9.019   7.934 -0.0329 -0.1238 -0.1713
 1197ERGO    R316990  12.592   8.872   7.756  0.2042  0.1097 -0.1836
 1197ERGO    R416991  12.372   8.983   7.600  0.0015 -0.2341 -0.1695
 1197ERGO    R516992  12.427   8.773   7.614  0.3461 -0.1561 -0.1790
 1197ERGO    C116993  12.459   8.824   7.237  0.2441 -0.0792 -0.1800
 1197ERGO    C216994  12.300   8.804   6.918 -0.0404 -0.1847 -0.4659
 1198ERGO   ROH16995   8.781  11.553   5.267 -0.2443  0.0011  0.0638
 1198ERGO    R116996   8.853  11.627   5.531  0.0140 -0.0345  0.0053
 1198ERGO    R216997   9.096  11.557   5.644  0.1780  0.0541 -0.2834
 1198ERGO    R316998   9.115  11.825   5.688  0.0934  0.0532 -0.2345
 1198ERGO    R416999   9.259  11.703   5.912  0.2388  0.0641 -0.3249
 1198ERGO    R517000   9.097  11.848   5.925  0.1889 -0.0022 -0.2224
 1198ERGO    C117001   9.372  12.038   6.109  0.1951  0.0690 -0.3031
 1198ERGO    C217002   9.771  12.083   6.206  0.0520 -0.0466  0.0479
 1199ERGO   ROH17003  16.451   8.881   9.165  0.0320 -0.0104 -0.1900
 1199ERGO    R117004  16.526   8.830   8.897 -0.1157 -0.2818 -0.1852
 1199ERGO    R217005  16.376   8.671   8.728 -0.4992 -0.0323 -0.1017
 1199ERGO    R317006  16.384   8.890   8.568 -0.0465 -0.0985 -0.1813
 1199ERGO    R417007  16.305   8.671   8.390 -0.2010 -0.0460 -0.1661
 1199ERGO    R517008  16.471   8.809   8.360  0.0216 -0.2936 -0.0744
 1199ERGO    C117009  16.271   8.877   8.042  0.3974 -0.1162 -0.2782
 1199ERGO    C217010  16.248   8.830   7.651 -0.0898 -0.2160  0.3341
 1200ERGO   ROH17011  15.108  16.698   8.834 -0.0942  0.0847  0.2294
 1200ERGO    R117012  15.054  16.875   8.620 -0.1075  0.0073  0.1720
 1200ERGO    R217013  15.164  17.128   8.604 -0.0637 -0.0328  0.0460
 1200ERGO    R317014  15.247  17.043   8.360 -0.1398 -0.1327  0.0515
 1200ERGO    R417015  15.260  17.335   8.345  0.3202 -0.1244  0.1071
 1200ERGO    R517016  15.156  17.203   8.207  0.1343  0.0487  0.0564
 1200ERGO    C117017  15.395  17.375   7.965  0.4724 -0.2713  0.1478
 1200ERGO    C217018  15.634  17.453   7.832  0.0375 -0.1517  0.0871
 1201ERGO   ROH17019  18.304  18.596   9.023 -0.0926 -0.1879 -0.0762
 1201ERGO    R117020  18.133  18.499   8.819 -0.2317 -0.0550 -0.0232
 1201ERGO    R217021  17.925  18.649   8.715  0.0725  0.2483 -0.2043
 1201ERGO    R317022  18.047  18.594   8.478  0.0269 -0.2033 -0.1336
 1201ERGO    R417023  17.763  18.617   8.411  0.0762  0.3609 -0.2199
 1201ERGO    R517024  17.894  18.450   8.364 -0.2635  0.0291 -0.0564
 1201ERGO    C117025  17.783  18.547   8.013  0.0358  0.0025 -0.1625
 1201ERGO    C217026  17.757  18.900   7.776 -0.3845  0.4764 -0.1204
 1202ERGO   ROH17027   1.631   5.253   5.199  0.3236 -0.0060 -0.0683
 1202ERGO    R117028   1.524   5.084   5.400 -0.0098  0.1380 -0.1175
 1202ERGO    R217029   1.683   4.923   5.559 -0.3085 -0.1015 -0.0525
 1202ERGO    R317030   1.554   5.051   5.761 -0.2122  0.0801 -0.1045
 1202ERGO    R417031   1.684   4.820   5.889 -0.3409  0.0636 -0.0006
 1202ERGO    R517032   1.473   4.874   5.901 -0.3079  0.1992 -0.0074
 1202ERGO    C117033   1.564   4.881   6.271 -0.2695  0.3302 -0.0192
 1202ERGO    C217034   1.658   4.762   6.629 -0.1714  0.0774  0.1251
 1203ERGO   ROH17035   4.444   3.467   5.171 -0.3155 -0.0807 -0.0711
 1203ERGO    R117036   4.524   3.588   5.414 -0.1993 -0.0342 -0.1320
 1203ERGO    R217037   4.471   3.852   5.474 -0.2595 -0.0498 -0.1174
 1203ERGO    R317038   4.360   3.746   5.697 -0.0728 -0.0770 -0.0336
 1203ERGO    R417039   4.452   4.012   5.780 -0.4096  0.0972 -0.2006
 1203ERGO    R517040   4.500   3.822   5.876 -0.1348  0.2110 -0.1024
 1203ERGO    C117041   4.337   4.004   6.168 -0.3217  0.1573 -0.1703
 1203ERGO    C217042   4.210   3.937   6.463  0.3430  0.1590 -0.2646
 1204ERGO   ROH17043   8.368  11.925   8.682  0.2403 -0.2111  0.0226
 1204ERGO    R117044   8.369  12.101   8.460 -0.2665 -0.1956  0.0193
 1204ERGO    R217045   8.598  12.158   8.317 -0.3596  0.6235  0.1408
 1204ERGO    R317046   8.447  12.078   8.106  0.0183  0.0585  0.0623
 1204ERGO    R417047   8.638  12.268   7.992 -0.5968  0.7740  0.1610
 1204ERGO    R517048   8.421  12.275   7.972 -0.6378 -0.0151  0.0515
 1204ERGO    C117049   8.519  12.258   7.604 -0.3802  0.3311  0.0992
 1204ERGO    C217050   8.419  12.044   7.337 -0.3141  0.2057  0.0853
 1205ERGO   ROH17051   4.816   7.907   5.525  0.0738  0.0019  0.1509
 1205ERGO    R117052   4.706   7.900   5.786  0.1910 -0.0266  0.1996
 1205ERGO    R217053   4.472   7.766   5.846  0.0850  0.1766  0.2351
 1205ERGO    R317054   4.627   7.646   6.034  0.0530 -0.0815  0.1017
 1205ERGO    R417055   4.355   7.552   6.091 -0.0412  0.2467  0.2376
 1205ERGO    R517056   4.492   7.647   6.232  0.1714  0.0314  0.1864
 1205ERGO    C117057   4.432   7.315   6.410 -0.1447  0.0452  0.1138
 1205ERGO    C217058   4.688   7.127   6.617  0.1741 -0.0481 -0.1521
 1206ERGO   ROH17059  17.360   0.562   5.832 -0.2216 -0.0683 -0.0346
 1206ERGO    R117060  17.397   0.487   6.103 -0.0978 -0.0689 -0.0493
 1206ERGO    R217061  17.192   0.389   6.260 -0.0935  0.1643  0.1241
 1206ERGO    R317062  17.365   0.183   6.300 -0.2735 -0.0103  0.0096
 1206ERGO    R417063  17.239   0.225   6.560  0.1046  0.2560  0.1424
 1206ERGO    R517064  17.453   0.220   6.519  0.0448 -0.0046 -0.1208
 1206ERGO    C117065  17.429  -0.063   6.773  0.0509  0.1455  0.0456
 1206ERGO    C217066  17.276  -0.218   7.078  0.3791 -0.1799  0.3882
 1207ERGO   ROH17067   8.561  10.986   8.891 -0.1432  0.1962  0.1119
 1207ERGO    R117068   8.591  10.921   8.618  0.0102  0.0929  0.1512
 1207ERGO    R217069   8.379  10.840   8.460  0.1106 -0.0418  0.0792
 1207ERGO    R317070   8.460  11.045   8.301  0.1209 -0.0791  0.0378
 1207ERGO    R417071   8.428  10.817   8.119 -0.1682 -0.0348  0.0364
 1207ERGO    R517072   8.606  10.941   8.141 -0.0706 -0.1548 -0.0879
 1207ERGO    C117073   8.533  10.995   7.771 -0.3210 -0.0658 -0.0272
 1207ERGO    C217074   8.573  10.925   7.498 -0.4987 -0.0358  0.0358
 1208ERGO   ROH17075   7.965   3.936   5.735 -0.1078 -0.0465 -0.0638
 1208ERGO    R117076   8.160   3.888   5.934 -0.1516 -0.1100 -0.0358
 1208ERGO    R217077   8.295   4.092   6.061 -0.0490 -0.1560 -0.0707
 1208ERGO    R317078   8.204   3.970   6.286 -0.1374 -0.0542 -0.0504
 1208ERGO    R417079   8.458   4.092   6.367 -0.0969 -0.1411 -0.0451
 1208ERGO    R517080   8.401   3.883   6.391 -0.1909 -0.1102  0.0045
 1208ERGO    C117081   8.466   3.976   6.755 -0.2076 -0.0368 -0.0111
 1208ERGO    C217082   8.726   4.109   7.002 -0.2312  0.0509  0.0293
 1209ERGO   ROH17083   1.039  10.063   8.407  0.1921  0.2803 -0.0764
 1209ERGO    R117084   1.013  10.196   8.158  0.1615  0.1849 -0.1250
 1209ERGO    R217085   1.203  10.178   7.959  0.0528 -0.0391 -0.2148
 1209ERGO    R317086   0.991  10.099   7.808 -0.0787  0.0363 -0.0710
 1209ERGO    R417087   1.199  10.167   7.614 -0.1407 -0.1709 -0.2100
 1209ERGO    R517088   0.996  10.245   7.618 -0.0887 -0.0409 -0.1296
 1209ERGO    C117089   0.998  10.087   7.271 -0.3767 -0.1768 -0.0722
 1209ERGO    C217090   0.919  10.149   6.948  0.3094  0.1786 -0.0469
 1210ERGO   ROH17091  18.727   9.652   5.149  0.0536 -0.2471 -0.0574
 1210ERGO    R117092  18.891   9.793   5.332  0.0696 -0.3171 -0.0176
 1210ERGO    R217093  19.164   9.749   5.351  0.1183 -0.1268 -0.2567
 1210ERGO    R317094  19.177  10.018   5.311 -0.1185 -0.0679  0.0273
 1210ERGO    R417095  19.416   9.954   5.468  0.0146 -0.0578 -0.1535
 1210ERGO    R517096  19.265  10.104   5.516 -0.0882 -0.2246  0.0853
 1210ERGO    C117097  19.575  10.326   5.500 -0.2679  0.0376  0.1732
 1210ERGO    C217098  19.886  10.396   5.456 -0.1257 -0.3137 -0.1117
 1211ERGO   ROH17099  12.783   5.648   5.690  0.1784  0.0867 -0.1434
 1211ERGO    R117100  12.822   5.798   5.927  0.1244 -0.0050 -0.0765
 1211ERGO    R217101  12.970   6.031   5.933  0.1746 -0.0408  0.0594
 1211ERGO    R317102  12.744   6.133   6.045  0.1566 -0.0280  0.0123
 1211ERGO    R417103  12.957   6.314   6.132  0.1147  0.0981 -0.1376
 1211ERGO    R517104  12.814   6.211   6.260  0.1583  0.1448 -0.0488
 1211ERGO    C117105  12.738   6.573   6.353  0.0630  0.1910 -0.2965
 1211ERGO    C217106  12.712   6.875   6.658  0.1983 -0.0244  0.0483
 1212ERGO   ROH17107  19.033  18.817   8.825 -0.0849 -0.1207  0.0254
 1212ERGO    R117108  19.156  18.739   8.582 -0.3099 -0.1220 -0.0917
 1212ERGO    R217109  19.044  18.792   8.335 -0.3475  0.2378 -0.0081
 1212ERGO    R317110  19.285  18.906   8.286 -0.1943 -0.0843 -0.0191
 1212ERGO    R417111  19.170  18.861   8.021 -0.2687  0.0804 -0.0107
 1212ERGO    R517112  19.366  18.795   8.090 -0.3534 -0.1842 -0.0261
 1212ERGO    C117113  19.471  19.008   7.793 -0.0791 -0.3134 -0.0226
 1212ERGO    C217114  19.681  18.944   7.542 -0.2158  0.0641  0.5295
 1213ERGO   ROH17115   9.161   1.680   5.594  0.2826 -0.2496  0.2193
 1213ERGO    R117116   9.067   1.815   5.824  0.0117 -0.0716  0.0131
 1213ERGO    R217117   8.801   1.880   5.861 -0.0784 -0.2456 -0.2403
 1213ERGO    R317118   8.834   1.745   6.095 -0.1180  0.0266 -0.0761
 1213ERGO    R417119   8.552   1.826   6.094 -0.1461 -0.1182 -0.2839
 1213ERGO    R517120   8.697   1.864   6.251 -0.2415  0.1240 -0.2644
 1213ERGO    C117121   8.437   1.668   6.449 -0.2225  0.2115 -0.1551
 1213ERGO    C217122   8.185   1.826   6.508 -0.1111 -0.4636  0.3609
 1214ERGO   ROH17123  11.330   4.955   5.559  0.3092 -0.1353 -0.1207
 1214ERGO    R117124  11.350   4.786   5.784  0.1325 -0.1024 -0.0802
 1214ERGO    R217125  11.312   4.876   6.043 -0.0087 -0.0529 -0.1224
 1214ERGO    R317126  11.130   4.675   6.052 -0.0573 -0.0143 -0.1958
 1214ERGO    R417127  11.224   4.702   6.328 -0.1599 -0.0275 -0.1515
 1214ERGO    R517128  11.220   4.519   6.209 -0.1503 -0.0320 -0.1537
 1214ERGO    C117129  11.002   4.411   6.502 -0.2936  0.0236 -0.2374
 1214ERGO    C217130  11.025   4.205   6.704  0.1208  0.0222 -0.1159
 1215ERGO   ROH17131  18.372   0.868   6.083  0.0967  0.2920 -0.2450
 1215ERGO    R117132  18.272   1.096   6.218 -0.0892  0.1568 -0.1506
 1215ERGO    R217133  18.002   1.138   6.259 -0.1277 -0.0552 -0.1744
 1215ERGO    R317134  18.077   1.160   6.519 -0.1880 -0.1271 -0.1505
 1215ERGO    R417135  17.788   1.212   6.520 -0.1901 -0.1344 -0.2025
 1215ERGO    R517136  17.944   1.340   6.604 -0.2120 -0.1541 -0.1304
 1215ERGO    C117137  17.735   1.276   6.917 -0.2830 -0.2481 -0.1965
 1215ERGO    C217138  17.523   1.519   7.066  0.0568  0.0051 -0.0383
 1216ERGO   ROH17139   3.818   1.245   5.230 -0.1615  0.3166 -0.1517
 1216ERGO    R117140   3.695   1.323   5.472 -0.1773  0.1301 -0.0982
 1216ERGO    R217141   3.722   1.178   5.706  0.0348  0.0956 -0.1411
 1216ERGO    R317142   3.806   1.416   5.807 -0.1807  0.1585 -0.1052
 1216ERGO    R417143   3.771   1.243   6.042  0.3872 -0.0478 -0.1604
 1216ERGO    R517144   3.682   1.440   6.011  0.0512 -0.1535  0.0798
 1216ERGO    C117145   3.879   1.505   6.332  0.3902 -0.0723 -0.1381
 1216ERGO    C217146   3.669   1.409   6.631 -0.2966 -0.0423 -0.1905
 1217ERGO   ROH17147  17.259  16.234   9.264 -0.0829  0.1948 -0.0267
 1217ERGO    R117148  17.392  16.284   9.020 -0.0936  0.0528 -0.0612
 1217ERGO    R217149  17.569  16.105   8.906 -0.0673  0.0112  0.0638
 1217ERGO    R317150  17.407  16.131   8.690 -0.0647 -0.1646  0.0371
 1217ERGO    R417151  17.676  16.107   8.578  0.0022  0.1598  0.0854
 1217ERGO    R517152  17.532  16.265   8.537 -0.1855  0.0012  0.0714
 1217ERGO    C117153  17.586  16.133   8.183  0.0450  0.0812  0.0729
 1217ERGO    C217154  17.512  16.109   7.744 -0.1007 -0.0622 -0.4089
 1218ERGO   ROH17155  11.614   9.503   8.607 -0.0071 -0.0804 -0.1365
 1218ERGO    R117156  11.484   9.548   8.359  0.0373  0.1156 -0.1271
 1218ERGO    R217157  11.570   9.738   8.178  0.3332 -0.0302 -0.1502
 1218ERGO    R317158  11.573   9.527   8.007 -0.0266 -0.0542 -0.1333
 1218ERGO    R417159  11.559   9.763   7.834  0.2391 -0.0514 -0.1485
 1218ERGO    R517160  11.424   9.591   7.830 -0.0035  0.1352 -0.0828
 1218ERGO    C117161  11.555   9.580   7.472 -0.1535 -0.0863 -0.1316
 1218ERGO    C217162  11.562   9.528   7.096  0.3016  0.0731 -0.0294
 1219ERGO   ROH17163  15.469  16.228   5.520 -0.2995  0.0227  0.1587
 1219ERGO    R117164  15.525  16.115   5.774 -0.1431 -0.0422  0.0963
 1219ERGO    R217165  15.745  15.956   5.820  0.0039  0.1247 -0.0276
 1219ERGO    R317166  15.793  16.135   6.019 -0.1002  0.0775  0.0417
 1219ERGO    R417167  15.922  15.887   6.110  0.1483  0.1425 -0.1100
 1219ERGO    R517168  15.776  16.006   6.220  0.0700 -0.0357 -0.0118
 1219ERGO    C117169  16.069  16.015   6.465  0.1348  0.1086 -0.0929
 1219ERGO    C217170  16.121  16.088   6.683  0.1408 -0.1348  0.3660
 1220ERGO   ROH17171   4.688   7.574   8.421  0.0060  0.0581  0.0530
 1220ERGO    R117172   4.673   7.355   8.243 -0.4502  0.0075  0.1416
 1220ERGO    R217173   4.463   7.320   8.066 -0.3317  0.6138 -0.1427
 1220ERGO    R317174   4.663   7.307   7.882 -0.0816 -0.1177  0.1429
 1220ERGO    R417175   4.422   7.222   7.737 -0.2151  0.7253 -0.1912
 1220ERGO    R517176   4.611   7.113   7.751 -0.5978  0.0347  0.0983
 1220ERGO    C117177   4.586   7.153   7.373  0.0875  0.1035  0.0487
 1220ERGO    C217178   4.451   7.149   7.094  0.0147  0.0497 -0.1187
 1221ERGO   ROH17179   1.964   7.394   5.507 -0.0956 -0.0325 -0.1250
 1221ERGO    R117180   1.990   7.338   5.784 -0.1706 -0.0393 -0.1201
 1221ERGO    R217181   2.032   7.535   5.972 -0.0300 -0.0665 -0.1298
 1221ERGO    R317182   1.812   7.425   6.089 -0.1304  0.1196 -0.1398
 1221ERGO    R417183   1.988   7.492   6.313 -0.0227 -0.1282 -0.1360
 1221ERGO    R517184   1.899   7.298   6.272 -0.2292 -0.0300 -0.1899
 1221ERGO    C117185   1.757   7.364   6.620 -0.1127  0.0105 -0.1489
 1221ERGO    C217186   1.639   7.157   6.900  0.2290  0.0012 -0.0709
 1222ERGO   ROH17187   9.645   9.755   5.650  0.1580  0.2849  0.0867
 1222ERGO    R117188   9.698   9.512   5.784  0.1047  0.1776 -0.0826
 1222ERGO    R217189   9.926   9.362   5.737  0.1092  0.1978 -0.1332
 1222ERGO    R317190   9.956   9.383   6.007  0.0350 -0.0074 -0.1070
 1222ERGO    R417191  10.120   9.152   5.931  0.0967  0.0818 -0.2450
 1222ERGO    R517192   9.964   9.157   6.084  0.0566 -0.0666 -0.2814
 1222ERGO    C117193  10.262   9.050   6.297  0.0198 -0.1782 -0.2856
 1222ERGO    C217194  10.381   8.920   6.474 -0.2303  0.1190 -0.1611
 1223ERGO   ROH17195  10.773  14.407   5.223  0.2174  0.0292 -0.3269
 1223ERGO    R117196  10.798  14.389   5.505  0.0978 -0.1741 -0.3276
 1223ERGO    R217197  10.984  14.225   5.627  0.2262 -0.0624 -0.3724
 1223ERGO    R317198  11.056  14.456   5.752 -0.0997 -0.0787 -0.1432
 1223ERGO    R417199  11.138  14.242   5.936  0.0471 -0.1456 -0.2775
 1223ERGO    R517200  11.012  14.413   5.984 -0.1755 -0.3237 -0.1976
 1223ERGO    C117201  11.296  14.468   6.233 -0.3631 -0.2093 -0.0070
 1223ERGO    C217202  11.254  14.423   6.541  0.1977  0.3836 -0.2825
 1224ERGO   ROH17203  17.302   9.972   8.813  0.2744  0.1084  0.2102
 1224ERGO    R117204  17.419  10.012   8.558  0.1446 -0.0510  0.1234
 1224ERGO    R217205  17.432   9.812   8.368 -0.2065 -0.0908  0.1350
 1224ERGO    R317206  17.309   9.998   8.212 -0.1115  0.0271  0.1991
 1224ERGO    R417207  17.410   9.797   8.023 -0.2255  0.0305  0.1309
 1224ERGO    R517208  17.447  10.012   8.017 -0.1088  0.0144  0.1992
 1224ERGO    C117209  17.282   9.963   7.676 -0.1472  0.2117  0.1886
 1224ERGO    C217210  17.194   9.941   7.288  0.1088  0.1315 -0.2592
 1225ERGO   ROH17211   8.147  17.269   5.031 -0.2370  0.1355  0.0724
 1225ERGO    R117212   8.047  17.236   5.294 -0.2494 -0.1708  0.0325
 1225ERGO    R217213   7.890  17.427   5.418  0.1159 -0.1061  0.4090
 1225ERGO    R317214   7.719  17.218   5.451 -0.2625  0.1303  0.0474
 1225ERGO    R417215   7.695  17.374   5.698  0.0843 -0.2731  0.3567
 1225ERGO    R517216   7.739  17.161   5.683 -0.3051 -0.3428 -0.0533
 1225ERGO    C117217   7.421  17.147   5.892 -0.2893 -0.1485 -0.0131
 1225ERGO    C217218   7.303  17.178   6.149 -0.2020  0.2073 -0.1992
 1226ERGO   ROH17219  15.569  14.490   5.822  0.2693  0.1156  0.0066
 1226ERGO    R117220  15.586  14.608   6.079  0.1635  0.0873  0.0278
 1226ERGO    R217221  15.390  14.576   6.271  0.0773  0.0739 -0.0577
 1226ERGO    R317222  15.598  14.491   6.423  0.0096  0.0476  0.0198
 1226ERGO    R417223  15.433  14.651   6.605  0.0102  0.1342 -0.0628
 1226ERGO    R517224  15.646  14.677   6.567  0.0258  0.0626 -0.0087
 1226ERGO    C117225  15.655  14.616   6.943 -0.0924  0.1446  0.0071
 1226ERGO    C217226  15.491  14.512   7.258  0.2524  0.0762 -0.1158
 1227ERGO   ROH17227   5.558  10.101   5.374 -0.1626 -0.2341 -0.2513
 1227ERGO    R117228   5.371  10.074   5.584 -0.0352 -0.2923 -0.1446
 1227ERGO    R217229   5.104  10.136   5.554 -0.0348 -0.1936  0.0617
 1227ERGO    R317230   5.067   9.883   5.644 -0.0551 -0.2329 -0.0529
 1227ERGO    R417231   4.810  10.017   5.691 -0.0574 -0.2446 -0.0286
 1227ERGO    R517232   4.928   9.909   5.839 -0.0803 -0.3127 -0.0588
 1227ERGO    C117233   4.603   9.710   5.855 -0.0896 -0.3110 -0.1887
 1227ERGO    C217234   4.222   9.673   6.023 -0.2806  0.0548  0.2560
 1228ERGO   ROH17235   1.699   8.743   8.609  0.0603  0.0825 -0.1558
 1228ERGO    R117236   1.641   8.758   8.332  0.0093  0.3598 -0.1319
 1228ERGO    R217237   1.520   8.551   8.194  0.4643  0.2764 -0.4212
 1228ERGO    R317238   1.344   8.746   8.124  0.0121 -0.0053 -0.1208
 1228ERGO    R417239   1.291   8.527   7.937  0.5231  0.1464 -0.4639
 1228ERGO    R517240   1.333   8.734   7.885  0.0533  0.3407 -0.1453
 1228ERGO    C117241   0.991   8.695   7.722  0.1329 -0.1938 -0.2067
 1228ERGO    C217242   0.768   8.756   7.421 -0.1444  0.0045  0.1325
 1229ERGO   ROH17243   3.992  16.603   8.524  0.1748  0.1591  0.0750
 1229ERGO    R117244   3.977  16.685   8.254  0.0704  0.0139  0.0360
 1229ERGO    R217245   4.191  16.667   8.080  0.0338  0.0109 -0.0124
 1229ERGO    R317246   4.014  16.528   7.928  0.0473 -0.1406  0.1079
 1229ERGO    R417247   4.158  16.698   7.738 -0.3716  0.1348  0.0327
 1229ERGO    R517248   3.942  16.685   7.762 -0.3314 -0.1518  0.2556
 1229ERGO    C117249   3.973  16.586   7.395 -0.5949  0.0649  0.1719
 1229ERGO    C217250   4.077  16.645   7.086  0.0207  0.2173 -0.2119
 1230ERGO   ROH17251   2.254   4.513   8.572  0.0453  0.0272 -0.0904
 1230ERGO    R117252   2.141   4.505   8.312  0.0134  0.1002 -0.0784
 1230ERGO    R217253   2.280   4.586   8.087  0.0492 -0.0076 -0.0913
 1230ERGO    R317254   2.215   4.338   7.997 -0.1401  0.0363 -0.0827
 1230ERGO    R417255   2.342   4.470   7.768  0.1562 -0.1297 -0.0272
 1230ERGO    R517256   2.147   4.373   7.770  0.0505  0.0655 -0.1408
 1230ERGO    C117257   2.318   4.168   7.498  0.0408 -0.1595  0.0182
 1230ERGO    C217258   2.552   3.921   7.308  0.0149 -0.2466  0.0162
 1231ERGO   ROH17259   8.831  18.481   8.469  0.1142 -0.1696  0.0041
 1231ERGO    R117260   8.881  18.404   8.201  0.1869  0.0414 -0.0432
 1231ERGO    R217261   8.685  18.406   8.006  0.1892 -0.0225 -0.0353
 1231ERGO    R317262   8.863  18.562   7.873  0.0427  0.2245  0.0480
 1231ERGO    R417263   8.683  18.462   7.665  0.3968 -0.2355 -0.0750
 1231ERGO    R517264   8.900  18.448   7.666  0.4404  0.1522  0.1433
 1231ERGO    C117265   8.850  18.642   7.342  0.3803 -0.1277 -0.0200
 1231ERGO    C217266   8.674  18.738   7.105  0.1379 -0.0997  0.2231
 1232ERGO   ROH17267   0.358  10.767   8.747  0.1366 -0.3046  0.0040
 1232ERGO    R117268   0.357  10.639   8.494  0.1175 -0.0990 -0.1038
 1232ERGO    R217269   0.128  10.615   8.340  0.0658 -0.1261 -0.0296
 1232ERGO    R317270   0.283  10.733   8.150 -0.0916  0.1373  0.0029
 1232ERGO    R417271   0.026  10.683   8.017 -0.0352 -0.1629 -0.0038
 1232ERGO    R517272   0.223  10.620   7.947  0.0493  0.1176 -0.0285
 1232ERGO    C117273   0.111  10.833   7.651 -0.2417  0.0630  0.0417
 1232ERGO    C217274  -0.000  10.689   7.357 -0.0703 -0.2086 -0.1240
 1233ERGO   ROH17275  16.109  15.949   5.420 -0.1536  0.0563  0.0383
 1233ERGO    R117276  16.163  15.964   5.697 -0.0465  0.0494  0.0175
 1233ERGO    R217277  16.211  15.741   5.852 -0.1055  0.0389  0.0127
 1233ERGO    R317278  16.438  15.875   5.919 -0.0118 -0.0724 -0.0711
 1233ERGO    R417279  16.437  15.641   6.094  0.0711 -0.2206 -0.2510
 1233ERGO    R517280  16.455  15.849   6.156  0.1775 -0.2672 -0.0995
 1233ERGO    C117281  16.781  15.709   6.298  0.2621 -0.4762 -0.4833
 1233ERGO    C217282  16.992  15.850   6.577  0.0584 -0.0734 -0.2652
 1234ERGO   ROH17283   1.618  11.131   8.504  0.1148 -0.2095  0.0470
 1234ERGO    R117284   1.583  11.195   8.231  0.0106 -0.1681  0.0700
 1234ERGO    R217285   1.761  11.115   8.035  0.0053 -0.0271  0.0082
 1234ERGO    R317286   1.537  11.011   7.920  0.0327 -0.1242  0.0403
 1234ERGO    R417287   1.688  11.128   7.697 -0.1734  0.1791  0.0516
 1234ERGO    R517288   1.480  11.168   7.748 -0.1850 -0.0335  0.1900
 1234ERGO    C117289   1.436  11.038   7.393 -0.2516  0.2081  0.1072
 1234ERGO    C217290   1.408  10.993   7.068  0.1584 -0.0024 -0.1552
 1235ERGO   ROH17291   7.062   2.573   8.658  0.0528  0.3252 -0.1650
 1235ERGO    R117292   7.083   2.491   8.388 -0.2727  0.1866 -0.1547
 1235ERGO    R217293   6.874   2.513   8.209 -0.3610  0.5100 -0.0326
 1235ERGO    R317294   7.058   2.648   8.061 -0.1955  0.1267 -0.1869
 1235ERGO    R417295   6.834   2.604   7.878 -0.3106  0.3544 -0.0810
 1235ERGO    R517296   7.042   2.551   7.843 -0.4081  0.0089 -0.1142
 1235ERGO    C117297   6.983   2.784   7.546 -0.1258 -0.0960 -0.2540
 1235ERGO    C217298   7.120   2.761   7.232  0.0599 -0.1005  0.2333
 1236ERGO   ROH17299   5.747   9.378   6.257  0.2206 -0.2104  0.1773
 1236ERGO    R117300   5.577   9.485   6.457  0.1112 -0.1579  0.0573
 1236ERGO    R217301   5.664   9.539   6.713 -0.0531 -0.1836  0.1187
 1236ERGO    R317302   5.565   9.786   6.661  0.0580 -0.1530  0.0476
 1236ERGO    R417303   5.481   9.729   6.936  0.0534 -0.0275  0.0748
 1236ERGO    R517304   5.352   9.789   6.771  0.0671 -0.0197  0.0651
 1236ERGO    C117305   5.281  10.072   7.016  0.2197  0.0920 -0.0176
 1236ERGO    C217306   5.397  10.256   7.167 -0.0788 -0.1890 -0.1951
 1237ERGO   ROH17307  19.391   2.534   5.254  0.0036 -0.0969  0.1555
 1237ERGO    R117308  19.257   2.430   5.481  0.1467 -0.2779  0.1573
 1237ERGO    R217309  19.389   2.295   5.683  0.3459 -0.0232  0.1959
 1237ERGO    R317310  19.270   2.480   5.841  0.0184 -0.1931  0.1505
 1237ERGO    R417311  19.303   2.245   6.014  0.4350 -0.1008  0.2088
 1237ERGO    R517312  19.118   2.353   5.977  0.2389 -0.4341  0.1822
 1237ERGO    C117313  19.141   2.390   6.356  0.1792 -0.3055  0.1738
 1237ERGO    C217314  19.118   2.189   6.613  0.0962 -0.3171 -0.0363
 1238ERGO   ROH17315   4.086   0.355   8.983 -0.1520  0.1265  0.0585
 1238ERGO    R117316   4.111   0.502   8.743 -0.1659  0.1939  0.0978
 1238ERGO    R217317   4.229   0.398   8.516 -0.0195  0.3181  0.1147
 1238ERGO    R317318   3.995   0.470   8.400 -0.0281  0.1889  0.0511
 1238ERGO    R417319   4.192   0.483   8.183  0.0271  0.3105  0.1078
 1238ERGO    R517320   4.056   0.642   8.244 -0.0814  0.2304  0.0758
 1238ERGO    C117321   3.950   0.600   7.880  0.0462  0.1847  0.0440
 1238ERGO    C217322   3.989   0.404   7.552  0.3005 -0.2324 -0.1316
 1239ERGO   ROH17323   9.227   7.426   6.384 -0.0327  0.0396  0.1339
 1239ERGO    R117324   8.944   7.430   6.395 -0.0404  0.0763 -0.0313
 1239ERGO    R217325   8.786   7.289   6.218  0.0482 -0.0404 -0.0196
 1239ERGO    R317326   8.679   7.186   6.446 -0.0917  0.1381 -0.0029
 1239ERGO    R417327   8.449   7.227   6.269  0.0406 -0.2147 -0.2648
 1239ERGO    R517328   8.471   7.302   6.472 -0.1993  0.0264 -0.3234
 1239ERGO    C117329   8.153   7.095   6.512 -0.0952 -0.1487 -0.3918
 1239ERGO    C217330   7.791   7.085   6.302 -0.1996  0.1386  0.2731
 1240ERGO   ROH17331   5.878  18.837   4.898 -0.0772 -0.1337 -0.1513
 1240ERGO    R117332   5.962  18.778   5.162  0.0641 -0.1240 -0.1926
 1240ERGO    R217333   5.811  18.845   5.384  0.2732  0.0632 -0.1008
 1240ERGO    R317334   5.837  18.581   5.441  0.0998  0.0570 -0.0475
 1240ERGO    R417335   5.912  18.718   5.689  0.1355  0.0525 -0.0595
 1240ERGO    R517336   6.030  18.569   5.583  0.0640 -0.0384 -0.0086
 1240ERGO    C117337   5.995  18.396   5.921 -0.1076  0.0406  0.0146
 1240ERGO    C217338   5.848  18.425   6.304  0.1322  0.0087  0.1642
 1241ERGO   ROH17339  10.621  17.910   8.445  0.1837  0.1357  0.1607
 1241ERGO    R117340  10.601  17.919   8.163  0.0950  0.1529  0.1674
 1241ERGO    R217341  10.548  18.153   8.025  0.1981  0.1883  0.1896
 1241ERGO    R317342  10.775  18.087   7.891  0.1113  0.0461  0.1105
 1241ERGO    R417343  10.591  18.183   7.684  0.1229  0.2511  0.1857
 1241ERGO    R517344  10.697  17.992   7.685 -0.0243  0.1635  0.1041
 1241ERGO    C117345  10.829  18.139   7.359 -0.0024  0.1540  0.1091
 1241ERGO    C217346  10.736  18.277   7.060 -0.2075 -0.2681  0.1001
 1242ERGO   ROH17347  11.589  13.757   5.485  0.1759  0.2895 -0.3456
 1242ERGO    R117348  11.705  13.972   5.628  0.1711  0.1511 -0.1315
 1242ERGO    R217349  11.554  14.172   5.744  0.1801  0.1550 -0.1394
 1242ERGO    R317350  11.691  14.101   5.968 -0.0287 -0.0336 -0.0658
 1242ERGO    R417351  11.632  14.384   6.006  0.2117  0.0229 -0.0393
 1242ERGO    R517352  11.827  14.290   6.018  0.1223 -0.1688  0.0648
 1242ERGO    C117353  11.806  14.440   6.368  0.0341 -0.2312  0.0881
 1242ERGO    C217354  11.726  14.535   6.719  0.1699 -0.0739 -0.1270
 1243ERGO   ROH17355  17.316  12.348   8.856 -0.0050  0.2664 -0.0813
 1243ERGO    R117356  17.307  12.416   8.582 -0.0153  0.0851 -0.1267
 1243ERGO    R217357  17.515  12.363   8.409  0.0576  0.1435 -0.0574
 1243ERGO    R317358  17.321  12.237   8.265  0.1815 -0.1065 -0.0124
 1243ERGO    R417359  17.500  12.354   8.063  0.0258  0.0646 -0.0543
 1243ERGO    R517360  17.284  12.381   8.077 -0.0073 -0.1808 -0.0342
 1243ERGO    C117361  17.309  12.231   7.727  0.1238 -0.2163 -0.0102
 1243ERGO    C217362  17.371  12.329   7.373 -0.0242 -0.3436  0.1318
 1244ERGO   ROH17363   3.988   6.530   8.537 -0.1795  0.0883  0.1097
 1244ERGO    R117364   3.968   6.502   8.256 -0.0448  0.0793  0.1004
 1244ERGO    R217365   3.725   6.499   8.124  0.0132 -0.0456 -0.0034
 1244ERGO    R317366   3.838   6.700   7.979 -0.0290  0.0137  0.0455
 1244ERGO    R417367   3.603   6.620   7.824  0.0525 -0.0836 -0.0346
 1244ERGO    R517368   3.808   6.633   7.751  0.0719  0.0118  0.0309
 1244ERGO    C117369   3.637   6.878   7.514  0.0357 -0.0500 -0.0071
 1244ERGO    C217370   3.504   7.106   7.341 -0.0434  0.0649  0.0567
 1245ERGO   ROH17371  18.292  11.616   8.695 -0.1328 -0.2409  0.1200
 1245ERGO    R117372  18.097  11.546   8.501 -0.0786 -0.1602  0.0353
 1245ERGO    R217373  18.073  11.679   8.260  0.0642 -0.1325  0.0325
 1245ERGO    R317374  18.098  11.429   8.157  0.0234 -0.1339  0.0271
 1245ERGO    R417375  17.930  11.573   7.964  0.0744 -0.1012  0.0165
 1245ERGO    R517376  17.883  11.383   8.061  0.0275 -0.0913  0.0043
 1245ERGO    C117377  17.869  11.277   7.695  0.0420 -0.0843  0.0021
 1245ERGO    C217378  17.676  11.334   7.426  0.0670  0.2188  0.2736
 1246ERGO   ROH17379   8.817  12.591   5.656  0.3582  0.0429 -0.0207
 1246ERGO    R117380   8.886  12.378   5.828  0.4182  0.1177  0.0448
 1246ERGO    R217381   9.066  12.407   6.036  0.1400  0.3281  0.2509
 1246ERGO    R317382   8.861  12.308   6.185  0.0905  0.0624  0.0170
 1246ERGO    R417383   9.095  12.295   6.362 -0.1262  0.6740  0.4017
 1246ERGO    R517384   8.961  12.131   6.312  0.2584  0.3562  0.3247
 1246ERGO    C117385   8.920  12.137   6.691 -0.3278  0.6258  0.2700
 1246ERGO    C217386   8.822  12.317   7.123  0.2189  0.1209  0.1178
 1247ERGO   ROH17387   5.350   0.147   5.074 -0.0800 -0.1334 -0.0121
 1247ERGO    R117388   5.451   0.046   5.319 -0.0556 -0.1164 -0.0153
 1247ERGO    R217389   5.548   0.210   5.518  0.0705 -0.1082 -0.0834
 1247ERGO    R317390   5.369   0.076   5.672  0.0551  0.0068  0.0012
 1247ERGO    R417391   5.499   0.263   5.856  0.2997 -0.1093 -0.0480
 1247ERGO    R517392   5.480   0.047   5.882  0.1538 -0.1000 -0.0638
 1247ERGO    C117393   5.302   0.167   6.197  0.4188 -0.0020  0.0519
 1247ERGO    C217394   5.129   0.315   6.357 -0.2043  0.3001 -0.1801
 1248ERGO   ROH17395   6.535   0.486   5.538 -0.0193  0.0738 -0.0682
 1248ERGO    R117396   6.504   0.362   5.791 -0.1675 -0.1486 -0.1933
 1248ERGO    R217397   6.579   0.484   6.027  0.0709 -0.5161 -0.0763
 1248ERGO    R317398   6.322   0.431   6.099 -0.0039 -0.1887 -0.0849
 1248ERGO    R417399   6.458   0.490   6.351  0.0749 -0.3612 -0.0761
 1248ERGO    R517400   6.341   0.312   6.305 -0.1555 -0.2177 -0.0822
 1248ERGO    C117401   6.147   0.443   6.606  0.0071  0.0363 -0.0840
 1248ERGO    C217402   6.095   0.523   6.803  0.0097 -0.0717 -0.3243
 1249ERGO   ROH17403  15.531   4.982   5.908 -0.0416  0.0441 -0.2048
 1249ERGO    R117404  15.623   4.880   6.156 -0.0067  0.0844 -0.2016
 1249ERGO    R217405  15.870   4.758   6.185  0.0204  0.1421 -0.2045
 1249ERGO    R317406  15.903   4.944   6.380 -0.0096  0.1638 -0.2193
 1249ERGO    R417407  16.173   4.846   6.325 -0.0282 -0.0508  0.0291
 1249ERGO    R517408  16.076   4.854   6.519 -0.1894  0.0651 -0.0513
 1249ERGO    C117409  16.381   5.071   6.590 -0.0847 -0.1427  0.1513
 1249ERGO    C217410  16.529   5.400   6.624 -0.0602  0.1547  0.0447
 1250ERGO   ROH17411   0.346  13.577   8.521  0.3036 -0.1128  0.1141
 1250ERGO    R117412   0.363  13.720   8.278  0.3614 -0.0997  0.1265
 1250ERGO    R217413   0.573  13.688   8.101  0.2154 -0.3727 -0.0018
 1250ERGO    R317414   0.374  13.638   7.923  0.0348 -0.0648  0.1048
 1250ERGO    R417415   0.593  13.747   7.761  0.0226 -0.1591  0.0207
 1250ERGO    R517416   0.388  13.819   7.767  0.0897  0.0328  0.2189
 1250ERGO    C117417   0.418  13.734   7.396 -0.2593  0.2544  0.1339
 1250ERGO    C217418   0.426  13.673   7.071 -0.0330  0.2304 -0.1856
 1251ERGO   ROH17419   1.129  14.158   5.337  0.0254  0.0114  0.0722
 1251ERGO    R117420   0.988  14.247   5.566  0.0660  0.0067  0.1008
 1251ERGO    R217421   0.765  14.116   5.664  0.0409  0.0393  0.1022
 1251ERGO    R317422   0.908  14.115   5.895  0.0674 -0.0319  0.0844
 1251ERGO    R417423   0.639  14.032   5.975  0.0629  0.0203  0.1045
 1251ERGO    R517424   0.755  14.194   6.060  0.1101 -0.0239  0.1158
 1251ERGO    C117425   0.700  13.981   6.372  0.1005 -0.0577  0.0892
 1251ERGO    C217426   0.433  13.816   6.506  0.2560 -0.4966  0.1197
 1252ERGO   ROH17427   6.917   2.149   5.302  0.1311 -0.0695 -0.0233
 1252ERGO    R117428   6.781   2.186   5.547  0.2434 -0.0179  0.0317
 1252ERGO    R217429   6.856   2.377   5.732  0.0761  0.3044 -0.2271
 1252ERGO    R317430   6.596   2.453   5.710 -0.0663 -0.1254 -0.1346
 1252ERGO    R417431   6.665   2.502   5.992  0.0650  0.2864 -0.2264
 1252ERGO    R517432   6.497   2.384   5.917  0.1879 -0.0640  0.0144
 1252ERGO    C117433   6.310   2.646   6.122 -0.0750 -0.1275 -0.1391
 1252ERGO    C217434   6.277   2.857   6.458  0.0950  0.0152 -0.0292
 1253ERGO   ROH17435  13.044  19.347   8.897  0.0171  0.1153 -0.0598
 1253ERGO    R117436  13.124  19.308   8.628 -0.0281 -0.0714 -0.0470
 1253ERGO    R217437  13.225  19.512   8.472 -0.2037 -0.1413 -0.2553
 1253ERGO    R317438  13.432  19.339   8.436 -0.0979 -0.0379 -0.1545
 1253ERGO    R417439  13.450  19.525   8.210 -0.2124 -0.1591 -0.2641
 1253ERGO    R517440  13.442  19.307   8.199 -0.0803 -0.1716 -0.1364
 1253ERGO    C117441  13.776  19.370   8.024 -0.1181 -0.0724 -0.1747
 1253ERGO    C217442  14.051  19.387   7.936 -0.0631 -0.1290 -0.0064
 1254ERGO   ROH17443  19.356   8.766   8.891 -0.0143 -0.0921  0.1017
 1254ERGO    R117444  19.414   8.850   8.627  0.0767 -0.0401  0.1370
 1254ERGO    R217445  19.402   8.679   8.411  0.1922 -0.0089  0.1030
 1254ERGO    R317446  19.235   8.868   8.310  0.1986 -0.0219  0.0691
 1254ERGO    R417447  19.353   8.740   8.074  0.1626 -0.0939  0.0920
 1254ERGO    R517448  19.351   8.954   8.119  0.1853 -0.0828  0.0347
 1254ERGO    C117449  19.168   8.954   7.784  0.1511 -0.1557  0.0536
 1254ERGO    C217450  19.209   9.010   7.436  0.1827 -0.0385  0.2489
 1255ERGO   ROH17451  18.854  13.981   5.007  0.1105 -0.1806 -0.1014
 1255ERGO    R117452  18.788  13.821   5.230  0.2052 -0.1939 -0.0833
 1255ERGO    R217453  18.979  13.697   5.387  0.2909  0.1240  0.0673
 1255ERGO    R317454  18.851  13.826   5.589 -0.0034  0.0218 -0.0464
 1255ERGO    R417455  18.987  13.601   5.719  0.2503  0.2519  0.1065
 1255ERGO    R517456  18.775  13.651   5.733  0.1650 -0.0393 -0.0262
 1255ERGO    C117457  18.872  13.667   6.102 -0.0494  0.2306  0.0225
 1255ERGO    C217458  18.952  13.765   6.419  0.5184  0.1721  0.1261
 1256ERGO   ROH17459  17.390   2.879   5.951  0.1314  0.3174 -0.2207
 1256ERGO    R117460  17.373   3.039   6.184  0.0825  0.0863 -0.0595
 1256ERGO    R217461  17.376   2.932   6.439  0.2283 -0.1644 -0.1533
 1256ERGO    R317462  17.582   3.106   6.474  0.1233 -0.0511 -0.0569
 1256ERGO    R417463  17.499   3.035   6.745  0.0480 -0.1115 -0.1001
 1256ERGO    R517464  17.519   3.236   6.664 -0.0259 -0.0947 -0.0781
 1256ERGO    C117465  17.763   3.259   6.956 -0.1558  0.0256  0.0215
 1256ERGO    C217466  18.148   3.197   7.024  0.1375  0.1295  0.1843
 1257ERGO   ROH17467  13.308  14.150   9.125 -0.4718 -0.4798 -0.0017
 1257ERGO    R117468  13.215  14.061   8.873 -0.3717 -0.2015 -0.1400
 1257ERGO    R217469  13.010  14.187   8.736 -0.0965  0.1442 -0.2365
 1257ERGO    R317470  13.194  14.197   8.536  0.0848  0.0435 -0.0805
 1257ERGO    R417471  12.937  14.162   8.399  0.1599  0.2132 -0.3001
 1257ERGO    R517472  13.115  14.038   8.375  0.1122  0.0976 -0.1567
 1257ERGO    C117473  13.067  14.156   8.015  0.4795  0.1589 -0.1907
 1257ERGO    C217474  12.845  14.307   7.851  0.0736 -0.2364  0.1252
 1258ERGO   ROH17475   1.135  17.765   5.200 -0.0918 -0.0468  0.0808
 1258ERGO    R117476   1.065  17.996   5.348 -0.1762 -0.1488  0.2027
 1258ERGO    R217477   1.030  17.993   5.622  0.2185 -0.2229  0.2573
 1258ERGO    R317478   1.212  18.195   5.615 -0.0412  0.0108  0.0118
 1258ERGO    R417479   1.044  18.254   5.848  0.1870 -0.2044  0.2376
 1258ERGO    R517480   1.089  18.389   5.682 -0.2021 -0.1440  0.1735
 1258ERGO    C117481   1.223  18.596   5.972 -0.0752  0.0258 -0.0044
 1258ERGO    C217482   1.202  18.886   6.101 -0.0705 -0.1340  0.2846
 1259ERGO   ROH17483   7.232  19.440   5.294 -0.0838 -0.0573 -0.3211
 1259ERGO    R117484   7.222  19.212   5.462 -0.2396  0.1045 -0.1066
 1259ERGO    R217485   7.449  19.086   5.554 -0.3227 -0.1412 -0.2406
 1259ERGO    R317486   7.334  19.126   5.797 -0.0088  0.2438 -0.1443
 1259ERGO    R417487   7.484  18.875   5.826 -0.5119 -0.0824 -0.1688
 1259ERGO    R517488   7.272  18.906   5.871 -0.4179  0.4010  0.0250
 1259ERGO    C117489   7.396  18.790   6.212 -0.3273  0.3130 -0.0365
 1259ERGO    C217490   7.415  18.625   6.485 -0.0714  0.1958  0.0368
 1260ERGO   ROH17491   9.150   0.480   8.509  0.0878 -0.0181 -0.1077
 1260ERGO    R117492   9.069   0.500   8.238 -0.1110  0.1971 -0.0343
 1260ERGO    R217493   9.127   0.719   8.081  0.2642  0.0805 -0.0568
 1260ERGO    R317494   9.231   0.531   7.914 -0.3193 -0.1554 -0.1811
 1260ERGO    R417495   9.153   0.754   7.739  0.4769  0.3057 -0.0202
 1260ERGO    R517496   9.094   0.545   7.718 -0.2440  0.4936 -0.2172
 1260ERGO    C117497   9.266   0.599   7.382  0.0529  0.2155 -0.1155
 1260ERGO    C217498   9.362   0.504   7.081  0.2441  0.1613  0.2179
 1261ERGO   ROH17499   9.074  16.929   8.407  0.2479  0.2927  0.0432
 1261ERGO    R117500   9.053  16.832   8.142  0.3100  0.0742  0.1165
 1261ERGO    R217501   8.974  16.992   7.930 -0.0558 -0.2021  0.0354
 1261ERGO    R317502   9.208  16.907   7.821  0.0568  0.1290  0.0052
 1261ERGO    R417503   9.029  16.943   7.593  0.0638  0.1319  0.0020
 1261ERGO    R517504   9.141  16.763   7.642  0.2409  0.2056 -0.1268
 1261ERGO    C117505   9.280  16.834   7.294  0.2392  0.6374 -0.0457
 1261ERGO    C217506   9.400  16.741   7.083 -0.4157 -0.2958  0.0717
 1262ERGO   ROH17507   4.267  12.097   5.539 -0.1298 -0.0013 -0.0730
 1262ERGO    R117508   4.193  11.861   5.677 -0.2696  0.0230 -0.1042
 1262ERGO    R217509   4.265  11.813   5.940 -0.0889 -0.1603 -0.1828
 1262ERGO    R317510   3.998  11.777   5.972 -0.1049  0.1241  0.0348
 1262ERGO    R417511   4.116  11.667   6.216 -0.0008 -0.2409 -0.1772
 1262ERGO    R517512   3.978  11.566   6.082 -0.2480  0.0434 -0.1443
 1262ERGO    C117513   3.778  11.550   6.406  0.0355 -0.0209  0.0305
 1262ERGO    C217514   3.543  11.545   6.632  0.1819 -0.4288 -0.0680
 1263ERGO   ROH17515  12.774  15.103   5.120  0.1239  0.1152 -0.1151
 1263ERGO    R117516  12.668  15.036   5.374 -0.0188  0.0351 -0.1944
 1263ERGO    R217517  12.702  14.788   5.489  0.0798  0.0598 -0.1729
 1263ERGO    R317518  12.801  14.933   5.697 -0.1838  0.1315 -0.0938
 1263ERGO    R417519  12.681  14.695   5.821  0.3073 -0.2037 -0.2281
 1263ERGO    R517520  12.639  14.903   5.871 -0.1105 -0.3111 -0.0878
 1263ERGO    C117521  12.762  14.777   6.210  0.1923 -0.2900 -0.1861
 1263ERGO    C217522  12.712  14.800   6.417 -0.0889 -0.3032 -0.1145
 1264ERGO   ROH17523  14.592   8.901   9.181  0.1604  0.4736  0.0064
 1264ERGO    R117524  14.737   8.887   8.939  0.1033  0.4088 -0.0239
 1264ERGO    R217525  14.647   8.744   8.719  0.1858  0.1117  0.1303
 1264ERGO    R317526  14.682   8.982   8.591 -0.1043  0.0385 -0.0972
 1264ERGO    R417527  14.632   8.788   8.377  0.0510 -0.2103  0.0912
 1264ERGO    R517528  14.802   8.924   8.392 -0.0925 -0.0106 -0.0747
 1264ERGO    C117529  14.656   9.036   8.057 -0.2999 -0.4664 -0.1452
 1264ERGO    C217530  14.632   9.001   7.761  0.1774  0.0737  0.0190
 1265ERGO   ROH17531  14.042   9.416   5.559  0.1872  0.1179 -0.0998
 1265ERGO    R117532  13.939   9.605   5.743  0.1213  0.0355 -0.0512
 1265ERGO    R217533  13.757   9.536   5.939  0.0457 -0.0521 -0.1482
 1265ERGO    R317534  13.941   9.649   6.104 -0.0125 -0.1310 -0.0288
 1265ERGO    R417535  13.691   9.650   6.259 -0.1144 -0.0204 -0.1921
 1265ERGO    R517536  13.820   9.822   6.218 -0.0124 -0.0772 -0.1104
 1265ERGO    C117537  13.826   9.823   6.600 -0.2623 -0.0759 -0.1056
 1265ERGO    C217538  14.026   9.889   6.949  0.0368  0.0305 -0.3127
 1266ERGO   ROH17539  12.193  10.205   8.486  0.1157  0.1076 -0.1253
 1266ERGO    R117540  12.219  10.391   8.274 -0.0087  0.0005 -0.2365
 1266ERGO    R217541  12.429  10.383   8.094 -0.0163  0.0179 -0.2460
 1266ERGO    R317542  12.228  10.378   7.910 -0.0274 -0.2068 -0.2312
 1266ERGO    R417543  12.474  10.395   7.751 -0.0516  0.1495 -0.2466
 1266ERGO    R517544  12.301  10.527   7.738 -0.2317 -0.0700 -0.2055
 1266ERGO    C117545  12.312  10.396   7.380 -0.0827  0.0152 -0.2332
 1266ERGO    C217546  12.165  10.430   7.154 -0.0983  0.3977 -0.2837
 1267ERGO   ROH17547  17.288   8.340   5.808  0.1270  0.1977 -0.0648
 1267ERGO    R117548  17.521   8.291   5.961  0.1337  0.1222 -0.0987
 1267ERGO    R217549  17.761   8.416   5.910  0.0854  0.2894  0.0682
 1267ERGO    R317550  17.744   8.485   6.173  0.0274 -0.0213  0.1493
 1267ERGO    R417551  18.028   8.516   6.106  0.0389  0.0740  0.2455
 1267ERGO    R517552  17.946   8.399   6.270  0.0106 -0.1257  0.0908
 1267ERGO    C117553  18.167   8.639   6.467 -0.0428 -0.3432  0.4248
 1267ERGO    C217554  18.355   8.903   6.346 -0.1352 -0.3932 -0.0044
 1268ERGO   ROH17555   3.812   3.386   8.763  0.0526 -0.0690  0.0303
 1268ERGO    R117556   3.860   3.259   8.515 -0.1120 -0.1505  0.0395
 1268ERGO    R217557   3.655   3.164   8.354 -0.2444  0.2033 -0.0038
 1268ERGO    R317558   3.776   3.320   8.166  0.0673  0.0017  0.0205
 1268ERGO    R417559   3.660   3.098   8.015 -0.1335  0.0983  0.0174
 1268ERGO    R517560   3.867   3.164   8.009 -0.0374 -0.1660  0.1183
 1268ERGO    C117561   3.776   3.205   7.641  0.2237 -0.1521  0.0524
 1268ERGO    C217562   3.751   3.238   7.328 -0.1002  0.0859 -0.2942
 1269ERGO   ROH17563  14.503   8.092   6.087 -0.3227  0.2105 -0.0022
 1269ERGO    R117564  14.637   8.335   6.142 -0.0075 -0.0062  0.2275
 1269ERGO    R217565  14.505   8.562   6.228  0.1842  0.2568 -0.1294
 1269ERGO    R317566  14.687   8.552   6.431 -0.2743 -0.0243  0.2880
 1269ERGO    R417567  14.597   8.832   6.423  0.6659  0.3014 -0.4044
 1269ERGO    R517568  14.804   8.760   6.415  0.4747 -0.4230  0.1627
 1269ERGO    C117569  14.821   8.980   6.727  0.5160  0.0635 -0.1727
 1269ERGO    C217570  14.978   9.054   7.005 -0.1505  0.0665  0.0042
 1270ERGO   ROH17571   7.860  18.334   8.202 -0.2017 -0.0532 -0.1149
 1270ERGO    R117572   7.756  18.245   7.954 -0.1150 -0.1378 -0.1207
 1270ERGO    R217573   7.819  18.366   7.713 -0.0782 -0.1846 -0.1305
 1270ERGO    R317574   7.891  18.114   7.642 -0.0038 -0.1859 -0.0542
 1270ERGO    R417575   7.842  18.251   7.388 -0.1590 -0.3016 -0.0957
 1270ERGO    R517576   7.753  18.063   7.454 -0.0607 -0.3153  0.0169
 1270ERGO    C117577   7.923  17.947   7.133 -0.1360 -0.3713 -0.0039
 1270ERGO    C217578   8.260  18.030   7.019  0.2489 -0.0879  0.0340
 1271ERGO   ROH17579   6.222  16.686   4.917 -0.1299  0.3720  0.0394
 1271ERGO    R117580   6.090  16.891   5.060 -0.1671  0.2385  0.2019
 1271ERGO    R217581   5.843  16.855   5.179 -0.1893  0.1163  0.1308
 1271ERGO    R317582   5.974  16.944   5.401 -0.2276 -0.0754  0.2312
 1271ERGO    R417583   5.692  16.929   5.481 -0.2531 -0.0019  0.1278
 1271ERGO    R517584   5.823  17.102   5.499 -0.1870 -0.0724  0.2795
 1271ERGO    C117585   5.726  17.056   5.865 -0.3262 -0.2510  0.2204
 1271ERGO    C217586   5.711  17.236   6.239  0.0126  0.0593 -0.0524
 1272ERGO   ROH17587   2.146  17.406   8.316 -0.0680 -0.0095  0.1977
 1272ERGO    R117588   2.005  17.419   8.071 -0.0191  0.0709  0.1728
 1272ERGO    R217589   2.120  17.512   7.837  0.0748  0.0048  0.1896
 1272ERGO    R317590   2.036  17.273   7.740 -0.0448  0.0513  0.1795
 1272ERGO    R417591   1.971  17.465   7.529  0.2726  0.0566  0.0855
 1272ERGO    R517592   1.834  17.324   7.622  0.0865  0.1884  0.0127
 1272ERGO    C117593   1.806  17.214   7.258  0.2755  0.1305  0.0154
 1272ERGO    C217594   1.617  17.120   6.904  0.2426  0.1328  0.3202
 1273ERGO   ROH17595  14.577  10.301   5.401 -0.2787 -0.2084  0.0357
 1273ERGO    R117596  14.742  10.231   5.620 -0.2630 -0.0601  0.0713
 1273ERGO    R217597  14.656  10.246   5.882 -0.3678 -0.2304  0.0443
 1273ERGO    R317598  14.735   9.986   5.889 -0.0482 -0.1387  0.0091
 1273ERGO    R417599  14.701  10.060   6.170 -0.4590 -0.2985  0.0153
 1273ERGO    R517600  14.878   9.972   6.080 -0.2396 -0.0384  0.1678
 1273ERGO    C117601  14.802   9.708   6.344 -0.2120 -0.2522 -0.0346
 1273ERGO    C217602  14.937   9.356   6.465  0.2689  0.2353  0.1414
 1274ERGO   ROH17603  15.623  12.881   5.840 -0.0922 -0.1305 -0.0406
 1274ERGO    R117604  15.825  13.064   5.914 -0.1257 -0.0663 -0.1072
 1274ERGO    R217605  15.769  13.325   5.988 -0.1896 -0.0994 -0.0409
 1274ERGO    R317606  15.909  13.258   6.211 -0.0585 -0.0804 -0.1168
 1274ERGO    R417607  15.887  13.550   6.222 -0.2278 -0.0943 -0.0263
 1274ERGO    R517608  16.071  13.433   6.234 -0.1520  0.0098 -0.1343
 1274ERGO    C117609  16.088  13.618   6.568 -0.1271 -0.0735 -0.0889
 1274ERGO    C217610  16.093  13.772   6.909  0.2632 -0.2962  0.1826
 1275ERGO   ROH17611  11.712   5.186   8.749 -0.0994 -0.1107  0.0108
 1275ERGO    R117612  11.826   5.047   8.531 -0.0429 -0.1079  0.0387
 1275ERGO    R217613  11.691   5.005   8.294  0.0174 -0.1080  0.0054
 1275ERGO    R317614  11.912   5.121   8.185  0.0435 -0.1054  0.0603
 1275ERGO    R417615  11.722   5.100   7.963 -0.0017  0.1369  0.0717
 1275ERGO    R517616  11.927   5.026   7.966 -0.0275  0.0572 -0.0174
 1275ERGO    C117617  11.947   5.264   7.668  0.0116  0.2819  0.1618
 1275ERGO    C217618  11.891   5.325   7.298 -0.3367 -0.3408 -0.4807
 1276ERGO   ROH17619   0.481  15.119   5.373  0.1140 -0.0605 -0.0629
 1276ERGO    R117620   0.583  15.086   5.635  0.0086  0.0013 -0.0140
 1276ERGO    R217621   0.605  15.296   5.813 -0.1339  0.0278 -0.0295
 1276ERGO    R317622   0.460  15.132   5.975 -0.1544  0.0034 -0.0720
 1276ERGO    R417623   0.581  15.328   6.157  0.0229 -0.1682  0.0015
 1276ERGO    R517624   0.594  15.110   6.172 -0.0831 -0.1871 -0.1374
 1276ERGO    C117625   0.432  15.192   6.508  0.0949 -0.3054 -0.0204
 1276ERGO    C217626   0.519  15.016   6.827  0.2253  0.2413 -0.0514
 1277ERGO   ROH17627  11.041  12.917   5.433 -0.1211 -0.0570 -0.1836
 1277ERGO    R117628  11.012  12.705   5.619 -0.1463 -0.0934 -0.2301
 1277ERGO    R217629  11.009  12.746   5.892  0.0684 -0.1734 -0.2173
 1277ERGO    R317630  10.774  12.610   5.877 -0.0406 -0.0040 -0.0971
 1277ERGO    R417631  10.825  12.641   6.165  0.2065 -0.1602 -0.1168
 1277ERGO    R517632  10.784  12.454   6.059 -0.0054 -0.0907 -0.1696
 1277ERGO    C117633  10.497  12.452   6.310  0.1845  0.0064  0.0546
 1277ERGO    C217634  10.108  12.453   6.406  0.1285 -0.0706  0.4259
 1278ERGO   ROH17635   2.696  19.331   5.389 -0.0315 -0.0946 -0.1463
 1278ERGO    R117636   2.610  19.188   5.617 -0.0276 -0.1681 -0.1903
 1278ERGO    R217637   2.672  18.922   5.659  0.3273 -0.0736 -0.0750
 1278ERGO    R317638   2.767  19.015   5.896 -0.0168  0.1275 -0.0101
 1278ERGO    R417639   2.759  18.724   5.928  0.1382  0.1438  0.1517
 1278ERGO    R517640   2.668  18.871   6.060 -0.1178  0.1617 -0.0427
 1278ERGO    C117641   2.899  18.695   6.308 -0.2949  0.4590  0.3446
 1278ERGO    C217642   3.130  18.444   6.523  0.4042 -0.2314 -0.1246
 1279ERGO   ROH17643   1.788  11.396   5.115  0.0310  0.1182  0.1805
 1279ERGO    R117644   1.826  11.402   5.395 -0.0751  0.1533  0.1951
 1279ERGO    R217645   1.616  11.400   5.574 -0.1414 -0.0134  0.1206
 1279ERGO    R317646   1.748  11.186   5.677 -0.0050  0.0926  0.1679
 1279ERGO    R417647   1.633  11.322   5.910 -0.1397  0.0377  0.1319
 1279ERGO    R517648   1.842  11.267   5.882 -0.0963  0.1835  0.1732
 1279ERGO    C117649   1.766  11.075   6.203 -0.0107  0.1670  0.1830
 1279ERGO    C217650   1.744  11.044   6.580 -0.4355 -0.0599 -0.0953
 1280ERGO   ROH17651  17.435  16.451   5.640  0.0121  0.0093  0.0510
 1280ERGO    R117652  17.433  16.223   5.809 -0.0737  0.0211  0.0652
 1280ERGO    R217653  17.644  16.159   5.974 -0.0583 -0.1014 -0.0053
 1280ERGO    R317654  17.452  16.159   6.167  0.0081  0.0296  0.0633
 1280ERGO    R417655  17.671  15.999   6.280 -0.1315 -0.2895 -0.0953
 1280ERGO    R517656  17.462  15.938   6.260 -0.2153 -0.0350 -0.0530
 1280ERGO    C117657  17.506  15.906   6.638 -0.1119 -0.2759 -0.0833
 1280ERGO    C217658  17.678  15.964   6.961 -0.0728  0.0624  0.1416
 1281ERGO   ROH17659   5.176  17.145   8.646  0.1298 -0.0404  0.0211
 1281ERGO    R117660   5.310  17.023   8.429 -0.1347 -0.2384 -0.0377
 1281ERGO    R217661   5.182  16.856   8.249 -0.4923  0.0631 -0.0817
 1281ERGO    R317662   5.286  17.029   8.066 -0.1769 -0.0693 -0.0312
 1281ERGO    R417663   5.198  16.799   7.909 -0.5189  0.1086 -0.0899
 1281ERGO    R517664   5.396  16.888   7.907 -0.3744 -0.2139 -0.0365
 1281ERGO    C117665   5.305  16.927   7.539 -0.2382  0.0107 -0.0473
 1281ERGO    C217666   5.428  17.028   7.255 -0.1287  0.1628  0.0561
 1282ERGO   ROH17667   8.089  13.406   8.731  0.1457  0.0172  0.0802
 1282ERGO    R117668   8.086  13.607   8.532  0.2841  0.0319  0.0911
 1282ERGO    R217669   8.307  13.669   8.379  0.2720 -0.2637 -0.0587
 1282ERGO    R317670   8.138  13.623   8.172  0.0640 -0.0295  0.0557
 1282ERGO    R417671   8.368  13.758   8.051  0.1720 -0.3560 -0.1024
 1282ERGO    R517672   8.159  13.818   8.034  0.2420 -0.0619  0.0393
 1282ERGO    C117673   8.244  13.768   7.665 -0.0815 -0.1898 -0.0205
 1282ERGO    C217674   8.273  13.875   7.326 -0.2384  0.2080 -0.0978
 1283ERGO   ROH17675  16.398   3.439   5.901  0.0082  0.1189 -0.0875
 1283ERGO    R117676  16.470   3.385   6.169  0.0097  0.1024 -0.0922
 1283ERGO    R217677  16.671   3.522   6.300 -0.0700  0.1715 -0.0509
 1283ERGO    R317678  16.477   3.568   6.483 -0.1048  0.0438 -0.0535
 1283ERGO    R417679  16.728   3.626   6.624 -0.1099 -0.1956  0.0792
 1283ERGO    R517680  16.570   3.490   6.690 -0.1815 -0.2157 -0.1083
 1283ERGO    C117681  16.577   3.730   6.986 -0.1658 -0.5292  0.1525
 1283ERGO    C217682  16.407   3.589   7.287  0.1691 -0.0418 -0.0924
 1284ERGO   ROH17683   2.181  18.006   5.660 -0.2477 -0.0244  0.0865
 1284ERGO    R117684   2.053  17.860   5.866 -0.5527 -0.1140 -0.1599
 1284ERGO    R217685   1.877  17.653   5.814  0.0471 -0.5578 -0.5260
 1284ERGO    R317686   2.044  17.514   5.977 -0.1116 -0.0458  0.1168
 1284ERGO    R417687   1.800  17.353   5.968  0.2582 -0.6500 -0.5946
 1284ERGO    R517688   1.901  17.424   6.147 -0.4731 -0.2687 -0.2790
 1284ERGO    C117689   1.911  17.048   6.211  0.2322 -0.2233 -0.0312
 1284ERGO    C217690   1.927  16.663   6.160  0.1783  0.4450  0.1590
 1285ERGO   ROH17691   3.917  18.835   5.021  0.2927 -0.3945  0.0010
 1285ERGO    R117692   3.834  18.915   5.279  0.0814 -0.2420 -0.1101
 1285ERGO    R217693   3.668  18.761   5.437 -0.0738 -0.1390 -0.1609
 1285ERGO    R317694   3.868  18.790   5.619 -0.2186 -0.0627 -0.0116
 1285ERGO    R417695   3.643  18.680   5.772 -0.2361 -0.2728 -0.2043
 1285ERGO    R517696   3.757  18.860   5.819 -0.3977 -0.2138 -0.0611
 1285ERGO    C117697   3.816  18.660   6.138 -0.4666 -0.2789 -0.0894
 1285ERGO    C217698   3.732  18.459   6.406 -0.0352  0.0402  0.1350
 1286ERGO   ROH17699  10.923   8.441   8.623  0.1832 -0.0042 -0.1028
 1286ERGO    R117700  10.939   8.352   8.355  0.1332  0.0328 -0.1176
 1286ERGO    R217701  10.766   8.163   8.251  0.1579 -0.0012 -0.0903
 1286ERGO    R317702  10.722   8.354   8.062  0.0512  0.0075 -0.0584
 1286ERGO    R417703  10.684   8.100   7.921  0.0248  0.0091 -0.0605
 1286ERGO    R517704  10.817   8.263   7.862 -0.0207  0.0329 -0.1063
 1286ERGO    C117705  10.596   8.243   7.552 -0.1530  0.0234 -0.0131
 1286ERGO    C217706  10.283   8.128   7.397 -0.0603 -0.1285  0.0096
 1287ERGO   ROH17707  10.818   2.651   5.366 -0.1011  0.2170 -0.0689
 1287ERGO    R117708  10.726   2.662   5.633 -0.0921  0.1051 -0.0608
 1287ERGO    R217709  10.897   2.651   5.850 -0.0912 -0.0854 -0.0672
 1287ERGO    R317710  10.771   2.881   5.920  0.0033 -0.0714  0.0611
 1287ERGO    R417711  10.936   2.815   6.152  0.0703 -0.1984 -0.0253
 1287ERGO    R517712  10.722   2.855   6.153  0.0837 -0.1352  0.0697
 1287ERGO    C117713  10.840   3.127   6.393  0.2530 -0.2512  0.1195
 1287ERGO    C217714  10.739   3.308   6.722 -0.4859 -0.2237 -0.0150
 1288ERGO   ROH17715   6.260  18.063   8.417 -0.1065 -0.0542 -0.0947
 1288ERGO    R117716   6.216  17.939   8.166 -0.0633 -0.0414 -0.1078
 1288ERGO    R217717   6.222  18.078   7.928 -0.1312 -0.0106 -0.0864
 1288ERGO    R317718   6.405  17.889   7.859 -0.0553  0.0742 -0.1236
 1288ERGO    R417719   6.306  17.993   7.604  0.1654  0.3476 -0.1105
 1288ERGO    R517720   6.312  17.785   7.665  0.1215  0.2751 -0.3266
 1288ERGO    C117721   6.527  17.766   7.350  0.4093  0.6355 -0.1594
 1288ERGO    C217722   6.533  17.872   7.071  0.0711 -0.1467  0.0860
 1289ERGO   ROH17723  10.101  16.436   8.795 -0.0298  0.1569 -0.2158
 1289ERGO    R117724  10.117  16.523   8.526 -0.2105  0.0869 -0.2521
 1289ERGO    R217725  10.326  16.453   8.358 -0.0578  0.4350 -0.2339
 1289ERGO    R317726  10.124  16.366   8.197  0.0969 -0.0395 -0.1852
 1289ERGO    R417727  10.317  16.488   8.014 -0.2147  0.3540 -0.2378
 1289ERGO    R517728  10.105  16.535   8.029 -0.3154 -0.1126 -0.2111
 1289ERGO    C117729  10.123  16.428   7.664 -0.1608 -0.1383 -0.1945
 1289ERGO    C217730  10.280  16.380   7.358  0.0519  0.0199 -0.0182
 1290ERGO   ROH17731   1.112  15.880   5.084  0.0711 -0.0143  0.0568
 1290ERGO    R117732   1.117  16.007   5.337  0.0509 -0.1661  0.1328
 1290ERGO    R217733   0.987  16.245   5.388  0.2422 -0.0801  0.1973
 1290ERGO    R317734   0.874  16.103   5.590  0.0032 -0.0911  0.0613
 1290ERGO    R417735   0.767  16.374   5.622  0.3047  0.0269  0.1990
 1290ERGO    R517736   0.868  16.256   5.774  0.1176 -0.1987  0.1626
 1290ERGO    C117737   0.533  16.316   5.947  0.1167  0.0786  0.0723
 1290ERGO    C217738   0.418  16.216   6.240 -0.0141  0.2739 -0.1623
 1291ERGO   ROH17739  18.068   9.144   9.212 -0.2796  0.0881 -0.0906
 1291ERGO    R117740  18.131   9.093   8.941 -0.1352 -0.1363 -0.0175
 1291ERGO    R217741  18.050   8.864   8.810 -0.3094 -0.1142  0.0536
 1291ERGO    R317742  17.946   9.041   8.632  0.0320 -0.0862 -0.1284
 1291ERGO    R417743  18.024   8.810   8.469 -0.3628 -0.4007  0.0998
 1291ERGO    R517744  18.083   9.017   8.437  0.0217 -0.5265 -0.0955
 1291ERGO    C117745  17.911   8.945   8.104 -0.0734 -0.5411 -0.0441
 1291ERGO    C217746  17.769   8.888   7.754 -0.1562 -0.1254 -0.0794
 1292ERGO   ROH17747  17.019  11.438   5.576  0.1736 -0.1815  0.1577
 1292ERGO    R117748  17.062  11.402   5.854  0.0789 -0.1066  0.1832
 1292ERGO    R217749  16.895  11.510   6.046 -0.0500 -0.1453  0.0968
 1292ERGO    R317750  16.881  11.253   6.132  0.0346 -0.1351  0.1389
 1292ERGO    R417751  16.866  11.415   6.376  0.2094 -0.1073  0.1316
 1292ERGO    R517752  17.006  11.252   6.336  0.1907 -0.1013  0.0443
 1292ERGO    C117753  16.836  11.118   6.650  0.4399 -0.0756  0.1914
 1292ERGO    C217754  16.737  11.145   6.993 -0.1014 -0.0192  0.1956
 1293ERGO   ROH17755  12.040   1.088   5.716 -0.0598  0.0532  0.0614
 1293ERGO    R117756  11.973   1.035   5.986  0.0146  0.0837  0.0873
 1293ERGO    R217757  11.969   0.779   6.091 -0.1342  0.0740  0.0710
 1293ERGO    R317758  12.137   0.886   6.275  0.0292 -0.0636  0.0034
 1293ERGO    R417759  12.031   0.644   6.403 -0.2019  0.0843  0.0881
 1293ERGO    R517760  12.028   0.846   6.485  0.0388  0.1069  0.0395
 1293ERGO    C117761  12.225   0.666   6.758 -0.0880 -0.0389  0.0347
 1293ERGO    C217762  12.475   0.420   6.983  0.3205 -0.0981 -0.1699
 1294ERGO   ROH17763   5.184   6.796   5.437  0.3083 -0.1422 -0.1044
 1294ERGO    R117764   5.377   6.992   5.504  0.1026  0.0391 -0.0297
 1294ERGO    R217765   5.333   7.183   5.698 -0.0965 -0.0851  0.0564
 1294ERGO    R317766   5.566   7.087   5.800  0.0110  0.1153  0.0032
 1294ERGO    R417767   5.474   7.284   5.997 -0.1737 -0.0599  0.0843
 1294ERGO    R517768   5.670   7.278   5.901 -0.1759  0.1793  0.0704
 1294ERGO    C117769   5.775   7.252   6.266 -0.1179  0.1428  0.0505
 1294ERGO    C217770   5.913   7.521   6.487  0.0776 -0.2152 -0.0499
 1295ERGO   ROH17771  16.821  17.530   5.488 -0.0571  0.0660 -0.0313
 1295ERGO    R117772  17.092  17.603   5.529 -0.0734  0.1026  0.0086
 1295ERGO    R217773  17.188  17.690   5.773 -0.1022  0.0359  0.0423
 1295ERGO    R317774  17.368  17.490   5.736 -0.0627  0.0836 -0.0165
 1295ERGO    R417775  17.471  17.642   5.966 -0.0801  0.0483  0.0128
 1295ERGO    R517776  17.580  17.592   5.784 -0.0817  0.1156 -0.0048
 1295ERGO    C117777  17.805  17.426   6.044 -0.0304  0.1006 -0.0596
 1295ERGO    C217778  18.096  17.386   6.254  0.1317  0.0017 -0.0051
 1296ERGO   ROH17779  10.469  14.756   5.582  0.1845 -0.0549  0.2190
 1296ERGO    R117780  10.381  14.528   5.724  0.0652 -0.0190  0.2031
 1296ERGO    R217781  10.547  14.385   5.894 -0.0206 -0.0926  0.2232
 1296ERGO    R317782  10.347  14.430   6.073 -0.0268 -0.0106  0.1971
 1296ERGO    R417783  10.541  14.265   6.218 -0.1060 -0.0809  0.2268
 1296ERGO    R517784  10.329  14.224   6.194 -0.1199 -0.0010  0.2015
 1296ERGO    C117785  10.351  14.237   6.575 -0.1615  0.0030  0.2045
 1296ERGO    C217786  10.373  14.254   6.926  0.1643  0.0758  0.1814
 1297ERGO   ROH17787  16.079  17.842   5.421  0.0518  0.0202 -0.0244
 1297ERGO    R117788  15.984  17.662   5.617  0.0945 -0.0669 -0.0840
 1297ERGO    R217789  16.146  17.472   5.736  0.1851  0.0552 -0.0146
 1297ERGO    R317790  16.058  17.587   5.966 -0.0235 -0.0294 -0.0501
 1297ERGO    R417791  16.203  17.348   6.053  0.2792  0.1704  0.0149
 1297ERGO    R517792  15.999  17.402   6.106  0.1900 -0.0942 -0.0403
 1297ERGO    C117793  16.154  17.383   6.454  0.1382  0.1582 -0.0013
 1297ERGO    C217794  16.268  17.248   6.824  0.2094  0.3696 -0.2266
 1298ERGO   ROH17795  10.866   6.592   8.563  0.0408 -0.2026  0.1192
 1298ERGO    R117796  10.822   6.394   8.366  0.0585 -0.1226  0.0336
 1298ERGO    R217797  10.743   6.455   8.108  0.0908 -0.0164  0.0468
 1298ERGO    R317798  10.962   6.308   8.041  0.0954  0.0050  0.0159
 1298ERGO    R417799  10.833   6.371   7.785  0.0939  0.0481  0.0309
 1298ERGO    R517800  10.889   6.173   7.857  0.1015  0.0379 -0.0090
 1298ERGO    C117801  11.091   6.184   7.534  0.1001  0.1057 -0.0074
 1298ERGO    C217802  11.254   6.086   7.262 -0.0417  0.1905  0.3202
 1299ERGO   ROH17803  16.180  15.101   5.620 -0.0488 -0.1856  0.2137
 1299ERGO    R117804  16.339  15.229   5.815  0.0703 -0.2338  0.1487
 1299ERGO    R217805  16.337  15.155   6.081  0.1498 -0.2261  0.1518
 1299ERGO    R317806  16.605  15.132   6.044  0.1281 -0.3165  0.0478
 1299ERGO    R417807  16.574  15.177   6.332  0.2603 -0.2119  0.0471
 1299ERGO    R517808  16.700  15.291   6.196  0.2378 -0.2934 -0.0433
 1299ERGO    C117809  16.963  15.168   6.443  0.3045 -0.2882 -0.1115
 1299ERGO    C217810  17.104  15.015   6.754 -0.1594 -0.3553  0.0556
 1300ERGO   ROH17811  15.524   3.959   5.880  0.1253 -0.0136 -0.0369
 1300ERGO    R117812  15.502   3.874   6.149  0.2864  0.0825  0.0078
 1300ERGO    R217813  15.652   3.986   6.353  0.1241  0.4313 -0.0577
 1300ERGO    R317814  15.408   4.024   6.467  0.0653  0.0900 -0.0596
 1300ERGO    R417815  15.591   3.990   6.693  0.0810  0.1586 -0.0602
 1300ERGO    R517816  15.407   3.878   6.657  0.2075 -0.0275 -0.1469
 1300ERGO    C117817  15.327   4.027   6.998  0.0007 -0.3207 -0.0634
 1300ERGO    C217818  15.515   4.059   7.296  0.2651 -0.3321 -0.0970
 1301ERGO   ROH17819   6.216   1.442   5.342 -0.1670  0.1177 -0.0802
 1301ERGO    R117820   6.254   1.457   5.622 -0.1254  0.0813 -0.0842
 1301ERGO    R217821   6.086   1.601   5.788 -0.1348  0.0076 -0.0347
 1301ERGO    R317822   6.067   1.364   5.920 -0.0505 -0.0176 -0.0662
 1301ERGO    R417823   6.046   1.570   6.129 -0.3166 -0.0392 -0.0592
 1301ERGO    R517824   6.186   1.402   6.125 -0.1945  0.0537  0.0091
 1301ERGO    C117825   6.005   1.329   6.453 -0.3432 -0.0902 -0.1030
 1301ERGO    C217826   5.857   1.238   6.684  0.2728 -0.0569 -0.0543
 1302ERGO   ROH17827   5.268  14.966   8.729 -0.1245  0.2122 -0.1391
 1302ERGO    R117828   5.318  14.982   8.451 -0.1669 -0.1028 -0.1680
 1302ERGO    R217829   5.227  14.792   8.272 -0.5564 -0.0891  0.0104
 1302ERGO    R317830   5.120  15.008   8.147 -0.2033  0.0089 -0.1357
 1302ERGO    R417831   5.119  14.795   7.944 -0.6408 -0.1687  0.0366
 1302ERGO    R517832   5.205  14.995   7.923 -0.2824 -0.3325 -0.1526
 1302ERGO    C117833   4.955  15.000   7.635 -0.3585 -0.1230 -0.0853
 1302ERGO    C217834   4.819  15.003   7.384  0.2158  0.2234 -0.3018
 1303ERGO   ROH17835   1.752   9.224   5.773  0.0699  0.0644 -0.1772
 1303ERGO    R117836   1.881   9.262   6.023 -0.0401 -0.0281 -0.1050
 1303ERGO    R217837   2.119   9.399   6.048  0.0457 -0.1943  0.0275
 1303ERGO    R317838   1.979   9.544   6.230  0.0448 -0.0975 -0.0508
 1303ERGO    R417839   2.260   9.624   6.269  0.0473 -0.1078 -0.0615
 1303ERGO    R517840   2.122   9.550   6.423  0.0271 -0.0239 -0.0411
 1303ERGO    C117841   2.211   9.891   6.569  0.0473  0.0335 -0.1869
 1303ERGO    C217842   2.446  10.114   6.484  0.2178  0.2247 -0.2463
 1304ERGO   ROH17843   0.805   6.356   8.562  0.0497 -0.1133 -0.1638
 1304ERGO    R117844   0.784   6.186   8.337  0.1803 -0.2146 -0.1016
 1304ERGO    R217845   0.737   6.282   8.082 -0.0740 -0.3538 -0.1110
 1304ERGO    R317846   0.961   6.140   8.022  0.1010 -0.0622 -0.1701
 1304ERGO    R417847   0.843   6.206   7.762 -0.1326 -0.3233 -0.1375
 1304ERGO    R517848   0.898   6.007   7.833  0.1866 -0.2241 -0.0882
 1304ERGO    C117849   1.115   6.028   7.519 -0.0024 -0.0318 -0.2084
 1304ERGO    C217850   1.259   6.050   7.177  0.1814  0.1242  0.0796
 1305ERGO   ROH17851  18.559  13.925   9.078  0.1318 -0.0950  0.0841
 1305ERGO    R117852  18.447  13.930   8.818  0.1386 -0.0597  0.0819
 1305ERGO    R217853  18.358  14.163   8.699  0.0436 -0.0585  0.1527
 1305ERGO    R317854  18.526  14.087   8.499  0.0840  0.0756  0.1346
 1305ERGO    R417855  18.319  14.247   8.366  0.0386  0.0494  0.1800
 1305ERGO    R517856  18.381  14.045   8.313  0.1136  0.0925  0.1090
 1305ERGO    C117857  18.454  14.225   7.985  0.0734  0.2382  0.1790
 1305ERGO    C217858  18.237  14.344   7.679  0.1670 -0.0177 -0.0016
 1306ERGO   ROH17859  11.043   0.363   8.744 -0.0962 -0.0248  0.0930
 1306ERGO    R117860  11.087   0.320   8.468 -0.1071 -0.1898  0.1158
 1306ERGO    R217861  10.909   0.181   8.309 -0.2099 -0.1183  0.1655
 1306ERGO    R317862  10.918   0.406   8.157 -0.0107 -0.1943  0.0622
 1306ERGO    R417863  10.816   0.198   7.977 -0.0781 -0.2124  0.1233
 1306ERGO    R517864  10.987   0.328   7.941  0.0185 -0.3389  0.1231
 1306ERGO    C117865  10.770   0.419   7.640  0.1856 -0.3385  0.0016
 1306ERGO    C217866  10.882   0.496   7.310 -0.2437 -0.1502 -0.1193
 1307ERGO   ROH17867   8.160   1.089   5.503  0.1971  0.0260  0.0415
 1307ERGO    R117868   8.189   1.073   5.784  0.2404  0.0908  0.0414
 1307ERGO    R217869   8.005   0.945   5.946  0.1148  0.3685  0.1307
 1307ERGO    R317870   8.225   0.810   6.032 -0.0267  0.1311  0.1242
 1307ERGO    R417871   8.042   0.809   6.262  0.0325  0.4328  0.1680
 1307ERGO    R517872   8.250   0.876   6.261  0.1129  0.1802  0.0925
 1307ERGO    C117873   8.270   0.603   6.526 -0.1484  0.2475  0.1836
 1307ERGO    C217874   8.173   0.310   6.781 -0.0346  0.2018  0.0030
 1308ERGO   ROH17875   8.022  10.853   5.387 -0.0300  0.1746 -0.2250
 1308ERGO    R117876   7.941  10.913   5.652 -0.0507  0.0912 -0.2124
 1308ERGO    R217877   8.121  10.958   5.856 -0.0670 -0.0765 -0.1603
 1308ERGO    R317878   7.981  11.190   5.885  0.0264 -0.0293 -0.0810
 1308ERGO    R417879   8.191  11.202   6.091  0.0081 -0.2022 -0.0511
 1308ERGO    R517880   7.976  11.226   6.122  0.0141 -0.1251 -0.0663
 1308ERGO    C117881   8.101  11.561   6.255  0.1394 -0.2310  0.0869
 1308ERGO    C217882   8.476  11.725   6.461  0.5327  0.1436  0.3535
 1309ERGO   ROH17883  14.380  14.455   5.791  0.3286  0.2254 -0.2787
 1309ERGO    R117884  14.338  14.510   6.066 -0.0338  0.0445 -0.2927
 1309ERGO    R217885  14.519  14.652   6.219 -0.0501 -0.3697  0.1313
 1309ERGO    R317886  14.302  14.806   6.274  0.0922 -0.0790 -0.0917
 1309ERGO    R417887  14.510  14.902   6.457  0.0476 -0.3372  0.1018
 1309ERGO    R517888  14.310  14.836   6.512 -0.0970 -0.0720 -0.0842
 1309ERGO    C117889  14.302  15.192   6.648  0.2383 -0.0454 -0.1249
 1309ERGO    C217890  14.249  15.524   6.601  0.0956 -0.0645 -0.3659
 1310ERGO   ROH17891  15.414  15.696   5.461 -0.2204 -0.0765  0.0498
 1310ERGO    R117892  15.330  15.582   5.706  0.0607  0.0247  0.1983
 1310ERGO    R217893  15.489  15.580   5.931  0.2338  0.3314  0.0889
 1310ERGO    R317894  15.274  15.699   6.046  0.2105  0.2255  0.1549
 1310ERGO    R417895  15.440  15.613   6.272  0.1226 -0.0423  0.1129
 1310ERGO    R517896  15.229  15.566   6.241  0.1311  0.0143 -0.0067
 1310ERGO    C117897  15.209  15.744   6.578  0.0360 -0.3594  0.1890
 1310ERGO    C217898  15.238  15.841   6.926  0.0364 -0.1798 -0.0534
 1311ERGO   ROH17899  11.305  15.613   8.869 -0.2091 -0.0460  0.0281
 1311ERGO    R117900  11.283  15.542   8.595 -0.0610 -0.1000  0.0288
 1311ERGO    R217901  11.135  15.690   8.415 -0.1211 -0.2399 -0.0426
 1311ERGO    R317902  11.369  15.694   8.276 -0.0740 -0.0714  0.0398
 1311ERGO    R417903  11.161  15.737   8.073 -0.0272 -0.1872 -0.0279
 1311ERGO    R517904  11.317  15.584   8.069  0.0736 -0.0829  0.0101
 1311ERGO    C117905  11.395  15.768   7.744  0.0717  0.0015  0.0580
 1311ERGO    C217906  11.393  15.889   7.439 -0.0639  0.2648 -0.2232
 1312ERGO   ROH17907  12.468  16.604   5.576  0.1788  0.0043 -0.2144
 1312ERGO    R117908  12.588  16.594   5.832 -0.2095 -0.0616 -0.0252
 1312ERGO    R217909  12.501  16.425   6.031 -0.1934 -0.5068 -0.3747
 1312ERGO    R317910  12.760  16.345   6.033 -0.0158  0.0313 -0.0747
 1312ERGO    R417911  12.666  16.298   6.307 -0.3415 -0.4564 -0.2626
 1312ERGO    R517912  12.841  16.413   6.248 -0.4794 -0.0221  0.1260
 1312ERGO    C117913  13.006  16.149   6.470 -0.2610  0.0780  0.0843
 1312ERGO    C217914  13.048  16.027   6.841 -0.0787 -0.1758  0.0109
 1313ERGO   ROH17915   9.795   0.287   5.699  0.0290  0.0289  0.0200
 1313ERGO    R117916   9.729   0.290   5.974  0.0765  0.0688  0.0356
 1313ERGO    R217917   9.547   0.467   6.082  0.1958  0.2005  0.0803
 1313ERGO    R317918   9.430   0.240   6.175  0.0731  0.2638  0.0692
 1313ERGO    R417919   9.409   0.431   6.397  0.6616  0.0602  0.2728
 1313ERGO    R517920   9.494   0.230   6.406  0.4278 -0.0362 -0.0502
 1313ERGO    C117921   9.219   0.196   6.668  0.8176  0.0379  0.3743
 1313ERGO    C217922   8.991   0.075   6.840 -0.0874 -0.1160 -0.0424
 1314ERGO   ROH17923  19.861   5.179   8.356  0.0204  0.4146 -0.1061
 1314ERGO    R117924  19.670   5.198   8.148  0.0210  0.1620 -0.1305
 1314ERGO    R217925  19.724   5.322   7.907 -0.0493  0.0541 -0.1909
 1314ERGO    R317926  19.642   5.084   7.803  0.1124 -0.0593 -0.0701
 1314ERGO    R417927  19.623   5.275   7.580 -0.3447 -0.0823 -0.0852
 1314ERGO    R517928  19.464   5.144   7.654 -0.1270 -0.2674  0.1080
 1314ERGO    C117929  19.487   5.025   7.292 -0.3649 -0.2683  0.0896
 1314ERGO    C217930  19.368   4.954   7.037  0.1821  0.0792 -0.2411
 1315ERGO   ROH17931  18.973  15.309   5.300  0.0276 -0.0659  0.1603
 1315ERGO    R117932  18.903  15.384   5.564  0.1019  0.0487  0.1466
 1315ERGO    R217933  18.879  15.201   5.770  0.0133  0.1220  0.1938
 1315ERGO    R317934  19.056  15.366   5.893  0.1245  0.0479  0.1380
 1315ERGO    R417935  18.939  15.208   6.110  0.0978  0.1081  0.1804
 1315ERGO    R517936  18.949  15.425   6.099  0.1974  0.1095  0.1642
 1315ERGO    C117937  19.140  15.366   6.424  0.2516  0.0306  0.1203
 1315ERGO    C217938  19.293  15.341   6.737 -0.2942  0.2328  0.0837
 1316ERGO   ROH17939  16.314   0.134   9.138 -0.2890  0.2686 -0.0349
 1316ERGO    R117940  16.248   0.119   8.863 -0.5095  0.0718  0.0242
 1316ERGO    R217941  16.022   0.238   8.758 -0.3015  0.4998  0.0315
 1316ERGO    R317942  16.201   0.355   8.590 -0.1094 -0.1497 -0.2439
 1316ERGO    R417943  15.949   0.354   8.440 -0.3170  0.5845  0.0664
 1316ERGO    R517944  16.140   0.274   8.372 -0.6357 -0.0714 -0.1350
 1316ERGO    C117945  16.074   0.530   8.098 -0.1458  0.0242 -0.1719
 1316ERGO    C217946  16.100   0.460   7.737  0.0504  0.0789 -0.0528
 1317ERGO   ROH17947   9.914   7.668   8.544 -0.1529  0.0922 -0.1533
 1317ERGO    R117948   9.835   7.735   8.280 -0.0614  0.1285 -0.1728
 1317ERGO    R217949  10.002   7.865   8.103  0.0858 -0.0570 -0.1773
 1317ERGO    R317950   9.944   7.653   7.943 -0.1007 -0.0297 -0.1471
 1317ERGO    R417951   9.994   7.875   7.757  0.0254 -0.0862 -0.1764
 1317ERGO    R517952   9.817   7.747   7.763 -0.0660  0.0446 -0.1306
 1317ERGO    C117953   9.935   7.682   7.406 -0.1848 -0.0774 -0.1476
 1317ERGO    C217954   9.774   7.440   7.169  0.0972  0.0695 -0.2040
 1318ERGO   ROH17955  12.951  12.740   8.758 -0.1283 -0.0021  0.0892
 1318ERGO    R117956  13.085  12.619   8.539 -0.0458  0.1572  0.0506
 1318ERGO    R217957  13.007  12.375   8.434  0.1914  0.0829  0.0517
 1318ERGO    R317958  12.999  12.515   8.201 -0.0090  0.0901  0.0605
 1318ERGO    R417959  13.025  12.236   8.118  0.3527  0.1188  0.0432
 1318ERGO    R517960  13.152  12.401   8.057  0.1356  0.2954  0.0435
 1318ERGO    C117961  13.027  12.286   7.716  0.2585  0.1465  0.0465
 1318ERGO    C217962  12.972  12.436   7.479  0.0573  0.1407  0.1507
 1319ERGO   ROH17963  12.790   6.592   5.652 -0.2112 -0.1498 -0.0574
 1319ERGO    R117964  12.920   6.743   5.853 -0.1678 -0.2716  0.0094
 1319ERGO    R217965  12.918   7.020   5.857  0.1549 -0.2548 -0.0329
 1319ERGO    R317966  12.821   6.982   6.108 -0.0672 -0.1187 -0.0974
 1319ERGO    R417967  12.941   7.248   6.116  0.1202 -0.2204 -0.0621
 1319ERGO    R517968  12.983   7.084   6.251 -0.1106 -0.2120  0.0065
 1319ERGO    C117969  12.863   7.345   6.502 -0.1085 -0.0726 -0.1396
 1319ERGO    C217970  12.844   7.410   6.769  0.0790  0.0842 -0.3656
 1320ERGO   ROH17971  15.775  12.011   5.965 -0.3588 -0.0006  0.2271
 1320ERGO    R117972  15.858  11.899   6.212 -0.2417  0.0911  0.2306
 1320ERGO    R217973  16.123  11.877   6.284 -0.1969 -0.0385  0.0382
 1320ERGO    R317974  16.042  12.011   6.505  0.0594  0.1477  0.0243
 1320ERGO    R417975  16.269  11.850   6.596 -0.1351 -0.1427  0.0007
 1320ERGO    R517976  16.070  11.854   6.684 -0.1039  0.1632  0.0637
 1320ERGO    C117977  16.278  11.961   6.986  0.1417 -0.0287 -0.0342
 1320ERGO    C217978  16.415  12.022   7.332 -0.3713  0.1598 -0.1469
 1321ERGO   ROH17979   9.270   9.587   8.663 -0.0531 -0.2227  0.0795
 1321ERGO    R117980   9.329   9.500   8.400  0.1171 -0.1356  0.0910
 1321ERGO    R217981   9.183   9.581   8.180  0.0703 -0.3072  0.0739
 1321ERGO    R317982   9.427   9.655   8.086  0.0019 -0.0012  0.1166
 1321ERGO    R417983   9.249   9.674   7.853 -0.0163 -0.1487  0.0973
 1321ERGO    R517984   9.436   9.563   7.865  0.1220  0.0553  0.0879
 1321ERGO    C117985   9.517   9.798   7.575 -0.1308  0.2310  0.1511
 1321ERGO    C217986   9.587   9.981   7.319 -0.1642  0.0426  0.0694
 1322ERGO   ROH17987  18.277  12.228   5.379  0.2569  0.4408  0.0186
 1322ERGO    R117988  18.350  12.082   5.609 -0.1966  0.2121  0.0266
 1322ERGO    R217989  18.584  12.131   5.750 -0.1419 -0.3651  0.1469
 1322ERGO    R317990  18.413  12.155   5.960 -0.1888 -0.0121  0.0768
 1322ERGO    R417991  18.672  12.097   6.082 -0.2665 -0.1886  0.2007
 1322ERGO    R517992  18.486  11.990   6.116 -0.4012  0.0271  0.2339
 1322ERGO    C117993  18.562  12.100   6.473 -0.3830  0.2455  0.1663
 1322ERGO    C217994  18.535  12.168   6.859 -0.0301  0.1368 -0.4981
 1323ERGO   ROH17995  17.063   6.961   9.465  0.2262 -0.1067 -0.1134
 1323ERGO    R117996  17.012   6.912   9.191  0.0685 -0.0746 -0.0910
 1323ERGO    R217997  16.792   7.015   9.059  0.1340  0.1672 -0.0190
 1323ERGO    R317998  16.979   7.111   8.888  0.1856 -0.0619 -0.0948
 1323ERGO    R417999  16.751   7.042   8.717  0.0848  0.0997 -0.0188
 1323ERGO    R518000  16.956   6.974   8.692  0.0147 -0.1008 -0.0468
 1323ERGO    C118001  16.903   7.148   8.357  0.1047 -0.1547 -0.0899
 1323ERGO    C218002  16.847   7.224   8.071 -0.2650  0.0378 -0.0811
 1324ERGO   ROH18003  15.632   7.083   9.369 -0.0273 -0.1495 -0.0414
 1324ERGO    R118004  15.676   7.065   9.090 -0.0638 -0.2604 -0.0402
 1324ERGO    R218005  15.574   6.859   8.937 -0.3199 -0.1731  0.0076
 1324ERGO    R318006  15.471   7.063   8.789 -0.0853 -0.0771 -0.0280
 1324ERGO    R418007  15.470   6.832   8.608 -0.3927 -0.1214  0.0259
 1324ERGO    R518008  15.559   7.027   8.569 -0.1534 -0.2382 -0.0301
 1324ERGO    C118009  15.313   7.007   8.279 -0.2147 -0.0011  0.0033
 1324ERGO    C218010  15.489   7.081   7.925  0.0882 -0.0220 -0.0890
 1325ERGO   ROH18011  19.468  12.181   5.341 -0.0282  0.2133 -0.3235
 1325ERGO    R118012  19.725  12.220   5.452 -0.0568  0.1945 -0.2483
 1325ERGO    R218013  19.905  12.404   5.352 -0.0350  0.2289 -0.1575
 1325ERGO    R318014  19.908  12.493   5.609 -0.1088  0.1626 -0.1342
 1325ERGO    R418015  20.186  12.517   5.519  0.0142 -0.2834  0.1244
 1325ERGO    R518016  20.115  12.413   5.697 -0.3191 -0.2091  0.0366
 1325ERGO    C118017  20.352  12.666   5.857 -0.0264 -0.6439  0.3106
 1325ERGO    C218018  20.650  12.866   5.799 -0.0094  0.1560  0.0637
 1326ERGO   ROH18019  15.016   0.291   9.064  0.0666 -0.0035 -0.0944
 1326ERGO    R118020  14.924   0.308   8.796  0.1041  0.1268 -0.0979
 1326ERGO    R218021  15.045   0.469   8.607  0.3308 -0.0327 -0.0785
 1326ERGO    R318022  15.059   0.237   8.466  0.0267 -0.0467 -0.0965
 1326ERGO    R418023  15.063   0.449   8.263  0.4314 -0.0059 -0.0768
 1326ERGO    R518024  14.927   0.279   8.271  0.1551  0.1920 -0.1458
 1326ERGO    C118025  15.086   0.220   7.929  0.2046 -0.0035 -0.0927
 1326ERGO    C218026  15.074   0.340   7.532  0.2538 -0.3360 -0.3288
 1327ERGO   ROH18027  14.489  18.854   5.358  0.0198 -0.4699  0.0752
 1327ERGO    R118028  14.341  18.783   5.588  0.2688 -0.3551  0.2751
 1327ERGO    R218029  14.437  18.820   5.845  0.2815  0.4193  0.1789
 1327ERGO    R318030  14.204  18.956   5.878 -0.0483 -0.0644 -0.0370
 1327ERGO    R418031  14.270  18.856   6.145  0.3131  0.6437  0.1719
 1327ERGO    R518032  14.082  18.827   6.038  0.3240 -0.0414  0.2834
 1327ERGO    C118033  13.954  19.004   6.351  0.0219  0.3205 -0.0349
 1327ERGO    C218034  13.881  18.972   6.640  0.2613 -0.2563 -0.1615
 1328ERGO   ROH18035   7.376  13.997   8.884  0.3084  0.0086 -0.2011
 1328ERGO    R118036   7.250  13.893   8.653  0.1417 -0.1002 -0.0650
 1328ERGO    R218037   7.111  14.052   8.476 -0.0083 -0.1839 -0.0336
 1328ERGO    R318038   7.278  13.939   8.293 -0.1302 -0.2463 -0.1057
 1328ERGO    R418039   7.036  14.005   8.141 -0.2967 -0.4764  0.0673
 1328ERGO    R518040   7.133  13.810   8.152 -0.2016 -0.4200  0.1256
 1328ERGO    C118041   7.150  13.872   7.776 -0.5790 -0.7052  0.0584
 1328ERGO    C218042   7.166  13.969   7.364  0.3634  0.0654 -0.2755
 1329ERGO   ROH18043  12.681  18.789   5.675 -0.0501  0.1768  0.0178
 1329ERGO    R118044  12.748  18.736   5.945 -0.1199 -0.0315 -0.0038
 1329ERGO    R218045  12.938  18.882   6.082  0.0664 -0.3327  0.0675
 1329ERGO    R318046  12.736  18.917   6.260  0.1050 -0.1559  0.0784
 1329ERGO    R418047  12.966  19.052   6.382  0.1772 -0.1830 -0.0258
 1329ERGO    R518048  12.841  18.899   6.475  0.1276 -0.0842  0.0736
 1329ERGO    C118049  12.792  19.183   6.724  0.2778  0.0700 -0.0699
 1329ERGO    C218050  12.734  19.391   6.969 -0.1001 -0.1096  0.1872
 1330ERGO   ROH18051  19.925   7.040   8.719 -0.1679  0.1468 -0.0539
 1330ERGO    R118052  19.844   7.066   8.449 -0.1832  0.0615 -0.0579
 1330ERGO    R218053  19.958   6.920   8.244 -0.0166  0.1803 -0.0528
 1330ERGO    R318054  19.700   6.850   8.194  0.0564 -0.0928 -0.0646
 1330ERGO    R418055  19.811   6.918   7.931 -0.0495  0.1871 -0.0377
 1330ERGO    R518056  19.631   7.000   8.021 -0.1381 -0.0741  0.0288
 1330ERGO    C118057  19.484   6.851   7.702  0.0001 -0.0653 -0.0400
 1330ERGO    C218058  19.409   6.723   7.307  0.2160 -0.2718  0.0017
 1331ERGO   ROH18059  12.675   6.153   7.306  0.0520 -0.0416  0.3056
 1331ERGO    R118060  12.939   6.094   7.389  0.0810 -0.0471  0.2115
 1331ERGO    R218061  13.106   5.927   7.246  0.0022 -0.1087  0.1891
 1331ERGO    R318062  13.274   6.140   7.256  0.0302 -0.1239  0.0556
 1331ERGO    R418063  13.445   5.915   7.178 -0.0057 -0.1871  0.1631
 1331ERGO    R518064  13.478   6.051   7.344  0.0273 -0.0998  0.0846
 1331ERGO    C118065  13.799   6.109   7.147  0.0160 -0.2470  0.0226
 1331ERGO    C218066  14.160   6.215   7.220  0.2216 -0.2881  0.5062
 1332ERGO   ROH18067   9.923   4.167   5.425  0.1806 -0.2047  0.1905
 1332ERGO    R118068   9.957   4.338   5.647  0.2511 -0.0944  0.0957
 1332ERGO    R218069   9.783   4.342   5.861  0.1734  0.1939  0.0343
 1332ERGO    R318070  10.010   4.300   6.005  0.0869  0.0813  0.1397
 1332ERGO    R418071   9.806   4.371   6.205  0.0039  0.0571  0.0587
 1332ERGO    R518072  10.001   4.465   6.178  0.0411  0.0163  0.1978
 1332ERGO    C118073  10.033   4.348   6.540 -0.1760 -0.1282  0.1719
 1332ERGO    C218074  10.146   4.119   6.792 -0.1965 -0.0808  0.0658
 1333ERGO   ROH18075   1.925  19.589   5.959  0.1637 -0.2017 -0.0521
 1333ERGO    R118076   1.832  19.402   6.150  0.4455 -0.1875  0.1055
 1333ERGO    R218077   1.943  19.380   6.403  0.1745  0.5400  0.3185
 1333ERGO    R318078   1.685  19.415   6.483 -0.0683 -0.0778 -0.1184
 1333ERGO    R418079   1.802  19.242   6.687  0.0719  0.3773  0.1890
 1333ERGO    R518080   1.621  19.204   6.573  0.3415 -0.1886 -0.0781
 1333ERGO    C118081   1.478  19.194   6.927 -0.2158 -0.2976 -0.2965
 1333ERGO    C218082   1.258  19.281   7.184 -0.0037 -0.3509  0.0862
 1334ERGO   ROH18083  18.811  17.136   5.681 -0.0395  0.1487  0.0294
 1334ERGO    R118084  18.963  17.168   5.918 -0.0391  0.1361  0.0314
 1334ERGO    R218085  19.219  17.068   5.945 -0.0685  0.0587  0.0576
 1334ERGO    R318086  19.278  17.326   6.010  0.0066  0.0510  0.0192
 1334ERGO    R418087  19.451  17.163   6.183  0.2935  0.0394 -0.2781
 1334ERGO    R518088  19.314  17.320   6.247  0.3751  0.0104 -0.0336
 1334ERGO    C118089  19.642  17.459   6.383  0.5750  0.0210 -0.5096
 1334ERGO    C218090  19.892  17.462   6.384 -0.3494 -0.1220 -0.1540
 1335ERGO   ROH18091   7.805   7.670   8.870  0.0149  0.0101 -0.0852
 1335ERGO    R118092   7.745   7.775   8.615 -0.1373 -0.0875 -0.0901
 1335ERGO    R218093   7.939   7.869   8.442 -0.2595  0.0541 -0.1492
 1335ERGO    R318094   7.824   7.694   8.269 -0.1450 -0.0768 -0.0953
 1335ERGO    R418095   7.897   7.925   8.104 -0.1946 -0.1202 -0.1873
 1335ERGO    R518096   7.700   7.832   8.118 -0.1638 -0.1948 -0.1932
 1335ERGO    C118097   7.765   7.793   7.744 -0.0493 -0.3446 -0.1590
 1335ERGO    C218098   7.662   7.788   7.388  0.0617 -0.0392 -0.3735
 1336ERGO   ROH18099   9.680  19.680   8.764  0.2469  0.2605 -0.0565
 1336ERGO    R118100   9.743  19.616   8.496  0.1173  0.1557 -0.0623
 1336ERGO    R218101   9.550  19.597   8.298  0.0233  0.0732  0.0418
 1336ERGO    R318102   9.709  19.777   8.171 -0.0422  0.0253 -0.1130
 1336ERGO    R418103   9.631  19.587   7.962 -0.0031 -0.1705  0.0404
 1336ERGO    R518104   9.834  19.646   8.014 -0.0135 -0.0647 -0.0204
 1336ERGO    C118105   9.827  19.750   7.647 -0.0799 -0.3578 -0.1057
 1336ERGO    C218106   9.954  19.694   7.281  0.1559 -0.1603 -0.3600
 1337ERGO   ROH18107   3.506   4.321   8.525  0.2148 -0.0054  0.0221
 1337ERGO    R118108   3.582   4.281   8.255  0.0753 -0.1869  0.0072
 1337ERGO    R218109   3.402   4.204   8.060 -0.0919 -0.0251  0.0909
 1337ERGO    R318110   3.495   4.425   7.933  0.1449 -0.1777 -0.0070
 1337ERGO    R418111   3.375   4.261   7.721 -0.2698 -0.0263  0.1045
 1337ERGO    R518112   3.578   4.342   7.723 -0.1411 -0.3300 -0.0633
 1337ERGO    C118113   3.447   4.503   7.403 -0.1510 -0.1702  0.0204
 1337ERGO    C218114   3.365   4.458   6.969  0.0377  0.3450 -0.0508
 1338ERGO   ROH18115   6.224   2.945   5.269  0.1906 -0.2100  0.0570
 1338ERGO    R118116   6.439   3.023   5.435  0.1544 -0.0941  0.0494
 1338ERGO    R218117   6.401   3.141   5.682  0.0998 -0.1178  0.0492
 1338ERGO    R318118   6.561   2.938   5.767  0.2157 -0.0295  0.0449
 1338ERGO    R418119   6.529   3.112   6.002  0.0380 -0.0913  0.0766
 1338ERGO    R518120   6.717   3.044   5.915  0.1091  0.0515  0.1060
 1338ERGO    C118121   6.754   2.905   6.268  0.1107  0.0070  0.0886
 1338ERGO    C218122   6.921   3.016   6.538  0.1234  0.0325 -0.1295
 1339ERGO   ROH18123  15.351   8.545   5.547 -0.1209  0.1374  0.0297
 1339ERGO    R118124  15.260   8.596   5.810 -0.0380  0.0493  0.0771
 1339ERGO    R218125  15.404   8.523   6.034  0.0763  0.0500  0.0105
 1339ERGO    R318126  15.376   8.786   6.097  0.0092  0.0279  0.0703
 1339ERGO    R418127  15.335   8.644   6.350  0.3079 -0.0151  0.0875
 1339ERGO    R518128  15.201   8.790   6.260  0.1585 -0.0699  0.2309
 1339ERGO    C118129  15.269   8.962   6.594  0.3799 -0.0737  0.1885
 1339ERGO    C218130  15.504   9.013   6.885  0.3156 -0.0627  0.4570
 1340ERGO   ROH18131   4.038  18.591   8.285  0.3076  0.0451 -0.0682
 1340ERGO    R118132   3.846  18.561   8.080  0.2257  0.0880  0.0042
 1340ERGO    R218133   3.813  18.748   7.878  0.3250 -0.0010 -0.0829
 1340ERGO    R318134   3.849  18.532   7.717  0.0944 -0.1193  0.0157
 1340ERGO    R418135   3.734  18.737   7.542  0.2446 -0.0816 -0.0638
 1340ERGO    R518136   3.659  18.535   7.570  0.0577 -0.0086  0.0530
 1340ERGO    C118137   3.722  18.529   7.194 -0.0185 -0.2396  0.0400
 1340ERGO    C218138   3.617  18.404   6.919 -0.0565 -0.2337 -0.0665
 1341ERGO   ROH18139   3.048   3.106   5.609  0.1586  0.2197 -0.0285
 1341ERGO    R118140   3.142   2.945   5.822 -0.0645  0.1857  0.0471
 1341ERGO    R218141   3.408   2.870   5.847 -0.1801 -0.2660  0.0202
 1341ERGO    R318142   3.382   2.981   6.093  0.0755 -0.0584 -0.0422
 1341ERGO    R418143   3.621   2.813   6.113 -0.0565 -0.2432 -0.0728
 1341ERGO    R518144   3.447   2.807   6.244  0.0253  0.0012  0.0461
 1341ERGO    C118145   3.721   2.883   6.499  0.2555 -0.0349 -0.1854
 1341ERGO    C218146   3.872   2.973   6.787  0.0111 -0.0694  0.3867
 1342ERGO   ROH18147  19.574  19.377   5.351 -0.1751  0.0761  0.0270
 1342ERGO    R118148  19.558  19.435   5.627 -0.0633 -0.1783  0.0896
 1342ERGO    R218149  19.348  19.576   5.739  0.2018  0.1214  0.2260
 1342ERGO    R318150  19.332  19.359   5.901 -0.2217 -0.0261  0.0041
 1342ERGO    R418151  19.201  19.573   6.051  0.4001  0.1618  0.3216
 1342ERGO    R518152  19.363  19.447   6.122  0.1495 -0.3254  0.0836
 1342ERGO    C118153  19.100  19.368   6.386  0.1182  0.0469  0.1689
 1342ERGO    C218154  18.933  19.369   6.694  0.2199 -0.0532  0.1549
 1343ERGO   ROH18155   4.746   4.745   4.867  0.0245 -0.1275  0.0649
 1343ERGO    R118156   4.672   4.602   5.100 -0.0689 -0.0065  0.1104
 1343ERGO    R218157   4.792   4.364   5.173 -0.2595 -0.0887  0.1575
 1343ERGO    R318158   4.836   4.495   5.407 -0.1233 -0.0648  0.1196
 1343ERGO    R418159   4.803   4.214   5.484 -0.4454 -0.0122  0.2020
 1343ERGO    R518160   4.693   4.384   5.565 -0.2597  0.1400  0.1459
 1343ERGO    C118161   4.850   4.250   5.885 -0.4258  0.0548  0.1923
 1343ERGO    C218162   4.798   4.193   6.203 -0.3993 -0.0405 -0.0307
 1344ERGO   ROH18163   7.400  10.598   8.962  0.1091 -0.1273  0.0147
 1344ERGO    R118164   7.452  10.487   8.706  0.0781 -0.1044 -0.0023
 1344ERGO    R218165   7.328  10.578   8.476  0.0450 -0.0853  0.0184
 1344ERGO    R318166   7.583  10.606   8.388  0.0342 -0.0719 -0.0068
 1344ERGO    R418167   7.420  10.626   8.147  0.0085  0.0911  0.0330
 1344ERGO    R518168   7.587  10.491   8.179 -0.0098  0.0513 -0.0720
 1344ERGO    C118169   7.714  10.679   7.872 -0.0229  0.2065  0.0178
 1344ERGO    C218170   7.762  10.576   7.480  0.1735  0.0480  0.0361
 1345ERGO   ROH18171   3.238   0.634   8.999 -0.2457 -0.1185 -0.1316
 1345ERGO    R118172   3.049   0.587   8.793 -0.2000 -0.1425 -0.1683
 1345ERGO    R218173   2.940   0.791   8.642 -0.2757 -0.1454 -0.1191
 1345ERGO    R318174   3.031   0.642   8.434 -0.1814 -0.0410 -0.1540
 1345ERGO    R418175   2.922   0.884   8.310 -0.2640 -0.0471 -0.0925
 1345ERGO    R518176   2.870   0.679   8.260 -0.1702 -0.0531 -0.1664
 1345ERGO    C118177   2.997   0.798   7.921 -0.1686  0.1082 -0.1098
 1345ERGO    C218178   2.987   0.931   7.670  0.2019 -0.0212 -0.0432
 1346ERGO   ROH18179   1.808  14.504   8.593  0.2329 -0.2450 -0.0184
 1346ERGO    R118180   1.624  14.397   8.407  0.0274  0.0975 -0.0220
 1346ERGO    R218181   1.467  14.555   8.245  0.3486  0.4005 -0.0513
 1346ERGO    R318182   1.577  14.406   8.046  0.0741  0.1565 -0.0263
 1346ERGO    R418183   1.352  14.544   7.919  0.2124  0.4036 -0.0038
 1346ERGO    R518184   1.389  14.329   7.918 -0.0790  0.3495  0.0789
 1346ERGO    C118185   1.388  14.397   7.543 -0.1247  0.1764  0.0473
 1346ERGO    C218186   1.204  14.250   7.268  0.2408 -0.0759 -0.0290
 1347ERGO   ROH18187   0.200  17.198   7.967  0.1103  0.1445 -0.0178
 1347ERGO    R118188   0.133  17.096   7.712  0.1227  0.1589 -0.0266
 1347ERGO    R218189   0.254  17.185   7.480  0.2788  0.0280  0.0047
 1347ERGO    R318190   0.306  16.921   7.444  0.0819 -0.0200  0.0623
 1347ERGO    R418191   0.307  17.034   7.173  0.2026 -0.0690  0.0387
 1347ERGO    R518192   0.189  16.864   7.242  0.0626  0.0320  0.0574
 1347ERGO    C118193   0.385  16.698   6.961 -0.0266 -0.1705  0.1126
 1347ERGO    C218194   0.368  16.405   6.736 -0.4092  0.0536  0.0691
 1348W        W18195  15.634   8.062  11.721  0.0774 -0.0858 -0.1879
 1349W        W18196   2.629  16.385   2.774 -0.0666 -0.0026 -0.0600
 1350W        W18197   0.226  16.804  10.186 -0.0887  0.0484  0.1186
 1351W        W18198   4.798  16.348   5.068 -0.3490 -0.1282  0.1733
 1352W        W18199   7.389  13.343   0.529  0.0766 -0.0155  0.0152
 1353W        W18200  10.459  14.995   3.901  0.1801  0.3225  0.0424
 1354W        W18201   0.948   6.714  12.696 -0.1944  0.3019  0.1034
 1355W        W18202  10.462  13.333  10.288  0.1430 -0.1469 -0.6739
 1356W        W18203  13.685   0.384   3.167  0.4295 -0.1034 -0.0552
 1357W        W18204  15.502   2.653   2.237  0.0135  0.0624 -0.0439
 1358W        W18205   6.209   4.945   1.048 -0.1346 -0.0382  0.1929
 1359W        W18206  16.160   8.384   3.638 -0.0252 -0.0303 -0.0214
 1360W        W18207  11.932   4.238   2.842 -0.1202 -0.4301 -0.3537
 1361W        W18208  15.903  16.088  12.653  0.1614  0.1545 -0.3014
 1362W        W18209   5.719   4.370   0.027 -0.2020  0.1791 -0.1993
 1363W        W18210   8.397  19.058  11.744  0.1426 -0.0618 -0.0652
 1364W        W18211  14.470   8.504   2.493 -0.0166 -0.2648 -0.1570
 1365W        W18212  16.521  19.378   4.179  0.0318 -0.0724  0.1584
 1366W        W18213   2.686  10.110   2.841  0.1048 -0.2424 -0.2608
 1367W        W18214  14.124  11.147   9.275  0.1093 -0.3627  0.0270
 1368W        W18215   3.938   4.106   8.758 -0.2822 -0.0200  0.2785
 1369W        W18216   8.366   4.474  13.031 -0.2156  0.2748 -0.2702
 1370W        W18217   1.102   7.320   0.391 -0.0997  0.0221  0.3914
 1371W        W18218  19.760   3.126  10.018  0.1954 -0.1818 -0.2267
 1372W        W18219  16.905  16.610   2.324  0.1350  0.4718 -0.1915
 1373W        W18220  17.787  10.189   0.153  0.0833 -0.0036 -0.3287
 1374W        W18221   2.990  15.896   0.544 -0.1312  0.1443  0.2037
 1375W        W18222  12.131  16.250   0.782 -0.0350  0.1449 -0.4454
 1376W        W18223  18.127   3.047  12.475 -0.1710 -0.1056  0.1025
 1377W        W18224   3.995  14.774  12.760 -0.1648 -0.0055  0.2320
 1378W        W18225   6.722   5.615   1.253  0.1528 -0.0409  0.1606
 1379W        W18226   9.326   3.241  11.985  0.0555 -0.0833  0.1098
 1380W        W18227   7.604   8.960   1.498 -0.1534 -0.1998 -0.0001
 1381W        W18228   5.213  19.118  13.706  0.0053  0.1029  0.1782
 1382W        W18229   7.991  15.706  11.814  0.0398  0.2308  0.1781
 1383W        W18230   2.690  10.623   2.018  0.1248 -0.1087  0.0710
 1384W        W18231  13.780   3.825  13.880 -0.1141  0.0206  0.0359
 1385W        W18232  16.906   2.341   2.350 -0.1949 -0.2941 -0.1767
 1386W        W18233  12.667   6.689  12.429 -0.1297  0.0226 -0.0465
 1387W        W18234   4.088   1.568  13.789  0.2072  0.0211  0.1999
 1388W        W18235  12.244   2.894  13.083 -0.2538  0.1401  0.0040
 1389W        W18236  10.881   8.333   1.087 -0.0641 -0.5240  0.0176
 1390W        W18237   2.047   5.405  13.707 -0.0338 -0.1447  0.0355
 1391W        W18238  12.728   3.284   1.080 -0.0563 -0.0528 -0.1930
 1392W        W18239  11.477  11.505  11.763  0.1018 -0.2051  0.2717
 1393W        W18240  10.867  14.771  13.829  0.1713  0.0897  0.1579
 1394W        W18241   4.324  14.545   0.500 -0.0733 -0.1771  0.0675
 1395W        W18242   8.403  16.564  14.013  0.2490 -0.1464 -0.1934
 1396W        W18243   9.007  16.406  11.105 -0.1537 -0.1247 -0.1074
 1397W        W18244   6.743   1.586  10.616  0.1130  0.0728 -0.2135
 1398W        W18245  14.820  15.371  11.200 -0.1388 -0.1384 -0.0586
 1399W        W18246  16.388   5.106  14.262 -0.0391 -0.0341 -0.0812
 1400W        W18247   0.888   0.621  10.881  0.1080 -0.0861  0.1816
 1401W        W18248  10.377   7.984   3.694  0.0678 -0.1915 -0.1443
 1402W        W18249   5.899   5.930  10.962 -0.2313  0.1756 -0.0853
 1403W        W18250   5.659   6.564   3.719 -0.3737 -0.1650  0.3798
 1404W        W18251  12.771   9.573   3.544 -0.0463  0.0349 -0.1125
 1405W        W18252  18.611   1.265   4.450  0.0715  0.0658 -0.1335
 1406W        W18253   5.674  16.613   1.515 -0.1240 -0.0820  0.3270
 1407W        W18254   5.798  15.718   5.166 -0.0685  0.0465  0.0206
 1408W        W18255  19.772  13.279  12.891 -0.2430 -0.1268  0.3043
 1409W        W18256  10.413  15.469  11.972  0.3583 -0.0593 -0.0298
 1410W        W18257   7.298   9.740   0.985 -0.3027  0.0292 -0.0003
 1411W        W18258   0.366  15.882  11.210  0.1721  0.0256 -0.2019
 1412W        W18259   4.979  10.832   0.181 -0.0081  0.0496 -0.3101
 1413W        W18260   7.703   9.601   4.383  0.2565 -0.0045 -0.1304
 1414W        W18261  16.069  10.798   2.197 -0.0964  0.5106 -0.0697
 1415W        W18262   7.651   2.501  10.074 -0.2257 -0.0719 -0.0744
 1416W        W18263  12.075   3.621   3.956 -0.2754 -0.2180 -0.1890
 1417W        W18264   1.168   8.769   4.474 -0.1689 -0.2048 -0.1866
 1418W        W18265   2.487  13.571  13.243  0.2215  0.1061  0.2156
 1419W        W18266  11.242   5.822   2.387  0.0744 -0.0699 -0.0524
 1420W        W18267  10.760   2.524  11.979 -0.2730  0.3352 -0.0495
 1421W        W18268   3.399  14.044  13.224  0.1384 -0.0294  0.0117
 1422W        W18269   8.830  10.361   0.668  0.1668  0.1964 -0.2420
 1423W        W18270   2.667  11.947   1.629 -0.0716  0.1848 -0.3058
 1424W        W18271   8.324  18.039   2.825  0.0425  0.0584 -0.2499
 1425W        W18272   7.780  17.679   3.369  0.4714 -0.0629 -0.2862
 1426W        W18273   8.241  10.535   3.277 -0.4274 -0.0776 -0.4243
 1427W        W18274  16.276  13.699   2.961 -0.0073 -0.0538 -0.1071
 1428W        W18275   3.430   8.812   2.283 -0.2463  0.0267  0.0596
 1429W        W18276   7.922   6.282   3.074 -0.0184 -0.2564 -0.0814
 1430W        W18277  10.463  11.813  13.300  0.0784 -0.2459  0.1707
 1431W        W18278  17.846   0.185   0.111 -0.0741  0.2790 -0.0561
 1432W        W18279  16.698   0.922  11.689 -0.0853 -0.2478 -0.0606
 1433W        W18280   0.614  15.326   0.273  0.4219  0.0388  0.3148
 1434W        W18281  17.704   5.411   3.076  0.1384 -0.0574  0.2853
 1435W        W18282   0.968   4.286   9.151 -0.3587  0.0633  0.0300
 1436W        W18283  18.607  12.999   2.585  0.0218  0.0123 -0.2850
 1437W        W18284  18.574   3.661  12.217  0.0481  0.0975  0.1144
 1438W        W18285   1.800  17.383  14.192  0.1731 -0.1061  0.4049
 1439W        W18286   9.754   3.878   3.820  0.3280  0.3920  0.0092
 1440W        W18287  10.811   6.852  14.150  0.0650 -0.1691  0.0228
 1441W        W18288  19.848  14.902  12.671 -0.3396  0.2559 -0.1229
 1442W        W18289  11.953   5.326   3.422  0.1189 -0.1110  0.2426
 1443W        W18290   1.295  13.553   3.140 -0.1405 -0.0088  0.0668
 1444W        W18291   4.473  16.374   8.633  0.1090 -0.0625 -0.1492
 1445W        W18292  11.047   5.503   0.983 -0.0032  0.0880  0.0634
 1446W        W18293  19.083   0.796   9.538  0.2219 -0.0635  0.0088
 1447W        W18294  15.554   5.294  12.626 -0.0025  0.0053  0.1004
 1448W        W18295  18.653   6.433   1.524 -0.0497 -0.1875 -0.3923
 1449W        W18296  19.116   8.932  12.748  0.2478 -0.2522  0.2800
 1450W        W18297  17.118   1.485   4.722  0.2669 -0.1788  0.2076
 1451W        W18298   3.872   8.193   4.771 -0.1187 -0.1269 -0.1567
 1452W        W18299   3.793  16.987   1.687 -0.0117  0.0894 -0.0256
 1453W        W18300   5.289  15.525   3.635 -0.0907 -0.3313 -0.0396
 1454W        W18301   7.426  17.849  12.613 -0.0778  0.1807 -0.2406
 1455W        W18302   4.320   7.697   0.029 -0.1409  0.0733  0.1380
 1456W        W18303   6.881   7.386  10.457  0.0553 -0.0091 -0.2027
 1457W        W18304   7.406   4.789  13.820  0.1285  0.0342 -0.0670
 1458W        W18305   7.559   1.787  14.063  0.0952 -0.0895  0.1064
 1459W        W18306  15.447   0.266  10.817 -0.0670 -0.2183  0.0091
 1460W        W18307   8.428   7.447  11.745 -0.0653  0.2672 -0.2905
 1461W        W18308   8.085  18.617  11.720 -0.3628 -0.0835 -0.1835
 1462W        W18309  10.227   3.352   9.294  0.1238 -0.1840 -0.0954
 1463W        W18310  12.871   9.234   2.501 -0.0987  0.0311 -0.0281
 1464W        W18311   6.385  14.948  10.505  0.1920 -0.2185  0.2684
 1465W        W18312   8.608   6.779   0.979  0.3830 -0.1140  0.1351
 1466W        W18313  15.769   9.484   2.180 -0.1531 -0.0988  0.1010
 1467W        W18314   4.237  16.453   0.525 -0.0110 -0.1304  0.1846
 1468W        W18315  16.284   8.612   2.434  0.0032 -0.0756  0.1855
 1469W        W18316  16.733   0.392   1.854  0.1833  0.0967  0.2817
 1470W        W18317   2.531   5.474  11.260 -0.0630 -0.2494 -0.1250
 1471W        W18318   9.888   0.506  13.223 -0.1086 -0.1055  0.2000
 1472W        W18319  19.513  16.828   0.858 -0.0859  0.0714  0.1283
 1473W        W18320  19.630   4.925   3.382  0.0440 -0.1776  0.4119
 1474W        W18321   7.626  10.928  12.879  0.1860  0.0080 -0.0262
 1475W        W18322  13.044   5.524  11.832 -0.3489 -0.1541  0.0417
 1476W        W18323   7.869   3.834   2.533 -0.4557  0.0641  0.1221
 1477W        W18324  14.652  15.201  13.219 -0.3610  0.3148 -0.0899
 1478W        W18325  13.339   7.486   0.464 -0.1201  0.0459  0.1697
 1479W        W18326  19.395  17.897  13.765 -0.2444 -0.1266  0.1251
 1480W        W18327   7.214   5.697  12.015 -0.1962  0.0488  0.0030
 1481W        W18328  12.896   2.027   0.576 -0.0487 -0.1053 -0.0653
 1482W        W18329  17.435  17.014   3.397 -0.1679 -0.2358  0.2128
 1483W        W18330  15.749  18.504   0.994  0.0630 -0.2288 -0.1655
 1484W        W18331  10.257  11.172  13.965  0.1620 -0.1730  0.2534
 1485W        W18332   3.396   3.608   3.223 -0.0742 -0.4158  0.0197
 1486W        W18333   1.823  19.172  11.365  0.5405  0.1007  0.1924
 1487W        W18334   8.311   5.914   3.087  0.1058 -0.2945 -0.0160
 1488W        W18335  18.314  10.414   1.536 -0.1058  0.0466 -0.0565
 1489W        W18336  11.553  15.944  13.919 -0.1125 -0.0324 -0.1271
 1490W        W18337  11.206  15.949  11.480  0.1907 -0.2308 -0.0933
 1491W        W18338  14.896   9.799  11.609 -0.1307 -0.0539 -0.0178
 1492W        W18339  12.373  12.766   1.492 -0.2469 -0.2000  0.2940
 1493W        W18340  17.180  11.400   4.138  0.0415 -0.1654  0.1560
 1494W        W18341   2.552   1.711   2.365  0.3016  0.0690  0.1759
 1495W        W18342   3.993  18.876  13.100  0.2130 -0.0132 -0.1910
 1496W        W18343   6.721   0.037   1.863  0.1910 -0.1114 -0.1833
 1497W        W18344  17.711   0.104   0.996  0.2406  0.0379  0.0078
 1498W        W18345  11.867   1.568  11.729  0.1069 -0.2379  0.3731
 1499W        W18346   4.449  18.210   8.550  0.1512  0.0810 -0.1073
 1500W        W18347  12.531   2.311  11.699 -0.3408 -0.1542 -0.0068
 1501W        W18348   4.647  11.932   8.965  0.0339 -0.0966  0.1143
 1502W        W18349   8.938  18.027  13.999 -0.1558 -0.0937 -0.1141
 1503W        W18350  16.001   4.274   1.537  0.0941 -0.0677  0.0320
 1504W        W18351   8.206   6.656   3.772 -0.3298 -0.0215  0.0813
 1505W        W18352  14.854  17.096   1.649 -0.0760 -0.1296  0.3088
 1506W        W18353   0.122  11.342   1.111 -0.2808  0.2652  0.0295
 1507W        W18354  15.048   0.425   5.376 -0.1010  0.0367 -0.0244
 1508W        W18355  11.623  16.580   2.944 -0.0080 -0.2180 -0.2834
 1509W        W18356   0.312  14.038   1.113 -0.0260 -0.0592 -0.2014
 1510W        W18357  19.053   0.387  10.641 -0.1192 -0.0133 -0.0281
 1511W        W18358   5.732   4.375  12.102 -0.3208 -0.1097 -0.0559
 1512W        W18359  17.057   2.869  11.042 -0.3394 -0.1929 -0.1589
 1513W        W18360  19.571   0.585   2.354  0.0236  0.3180  0.0754
 1514W        W18361   3.401  12.236   9.947  0.0587 -0.2100  0.2583
 1515W        W18362   2.411  15.957   2.993 -0.2005 -0.0956  0.0566
 1516W        W18363   1.482  18.278  10.474  0.2908 -0.1237 -0.2018
 1517W        W18364  14.250  19.114   3.017  0.3476 -0.1452  0.2723
 1518W        W18365  19.846  10.568   2.160 -0.2235 -0.0141 -0.3842
 1519W        W18366  11.510   9.415  11.959 -0.2392  0.0974 -0.0842
 1520W        W18367  15.515  12.116  14.081 -0.0955  0.0934 -0.1233
 1521W        W18368  18.285  18.916   4.959  0.0312  0.0364  0.0445
 1522W        W18369  14.605   4.672  11.985  0.0017 -0.3588 -0.1948
 1523W        W18370  19.539  13.987  12.422  0.1267  0.2435  0.0536
 1524W        W18371  18.891   2.362   3.499 -0.0793  0.0929 -0.1594
 1525W        W18372  11.289  18.725  10.883 -0.0474  0.0020 -0.1832
 1526W        W18373   5.929   2.614   3.988 -0.2066 -0.0866  0.4070
 1527W        W18374  17.412  10.504  12.265 -0.1769 -0.1669  0.1596
 1528W        W18375  16.901   3.242  13.915  0.0818  0.1191 -0.0117
 1529W        W18376   1.772   8.033  11.203 -0.0559 -0.1072 -0.2220
 1530W        W18377  11.091   4.115   4.178 -0.0699 -0.0608  0.1171
 1531W        W18378   1.033   8.182  13.237 -0.1715 -0.3117 -0.0145
 1532W        W18379  17.578  14.839  10.016  0.1611 -0.1092 -0.3390
 1533W        W18380   2.902   8.118   0.423 -0.1891 -0.1291 -0.1673
 1534W        W18381  15.406  14.975   1.151 -0.2233  0.0506 -0.2545
 1535W        W18382   0.665  14.196  11.933  0.0860  0.0690 -0.0196
 1536W        W18383  15.400  11.524  13.300  0.2248  0.2063 -0.1687
 1537W        W18384   8.803   1.636   1.855 -0.0834  0.5588  0.1009
 1538W        W18385   3.372  13.707   1.264 -0.4468  0.2124  0.1381
 1539W        W18386  16.383  17.550   3.755  0.1282 -0.1367 -0.3635
 1540W        W18387  12.323   4.566   4.288 -0.4934 -0.2761 -0.0101
 1541W        W18388  11.952  10.190   3.692  0.1515  0.0939 -0.2164
 1542W        W18389   4.101  18.067   1.622 -0.0318  0.2214  0.2462
 1543W        W18390   9.818  12.171   4.062  0.3366 -0.1150 -0.4039
 1544W        W18391   3.195  14.407  11.599 -0.0175  0.0694 -0.0367
 1545W        W18392  15.543  18.773   2.061 -0.0935 -0.1206  0.0253
 1546W        W18393   3.668  12.823  10.591  0.2003  0.1436  0.3066
 1547W        W18394   5.784   1.074  12.205  0.0629  0.4244  0.0502
 1548W        W18395   0.515  11.682   3.890  0.0611 -0.1053  0.1905
 1549W        W18396   5.077  13.582   2.312 -0.3115 -0.0005 -0.1029
 1550W        W18397   4.538  13.075   0.058 -0.1099  0.2627 -0.1015
 1551W        W18398  16.139   8.971   0.286  0.5025 -0.0271 -0.1909
 1552W        W18399  16.265  17.140   2.672 -0.0857 -0.0351  0.1369
 1553W        W18400   7.531   6.823  14.125  0.2204 -0.1335 -0.1014
 1554W        W18401  13.719   3.371  12.973 -0.3514  0.0247  0.1353
 1555W        W18402  11.605  11.923  12.036  0.0313 -0.2055  0.3700
 1556W        W18403   8.292  16.059  10.947 -0.3521 -0.0056  0.1684
 1557W        W18404  11.548  11.050   0.818  0.1207 -0.0440  0.1012
 1558W        W18405   8.082  16.950   4.041  0.3034  0.4162 -0.5336
 1559W        W18406   1.956  18.394  10.381 -0.2245 -0.1515  0.0652
 1560W        W18407   8.368  13.658  11.406 -0.2225  0.2438  0.0818
 1561W        W18408   9.993  14.660   4.251  0.2612 -0.2948  0.0144
 1562W        W18409   7.875   9.752  14.174  0.0867 -0.0244 -0.2396
 1563W        W18410   1.593  17.885   2.836  0.0953 -0.0819 -0.0240
 1564W        W18411   2.910   8.389  11.032 -0.4322 -0.2779  0.1268
 1565W        W18412  14.746  11.699  13.188 -0.0420 -0.1333 -0.0543
 1566W        W18413  19.814   7.130  10.652  0.0389 -0.0235 -0.3219
 1567W        W18414  14.420  18.696   1.679  0.0164  0.1568 -0.4021
 1568W        W18415   1.062  15.320  11.737  0.0629  0.0549 -0.1758
 1569W        W18416  16.853  16.202  12.329 -0.0667  0.1118 -0.3192
 1570W        W18417   9.131  10.859   3.371 -0.0232 -0.2599  0.1637
 1571W        W18418  16.881  18.249  12.143  0.3356 -0.2900  0.1003
 1572W        W18419   9.084  11.901   3.544  0.0187 -0.1923  0.0914
 1573W        W18420   5.144   7.575  10.866 -0.0689 -0.3396  0.0583
 1574W        W18421   4.429  11.480  13.639  0.3896  0.0143 -0.0395
 1575W        W18422   9.071   0.722   0.965 -0.3489 -0.0240 -0.0779
 1576W        W18423   8.467   4.956  11.036 -0.3843 -0.2463  0.0372
 1577W        W18424   3.588   5.826  14.122 -0.0405  0.2542 -0.0474
 1578W        W18425   9.288   4.720   4.719  0.4545 -0.0728 -0.0902
 1579W        W18426  14.009  15.327  12.347  0.0445  0.0912 -0.2087
 1580W        W18427   9.307   9.491   2.256  0.2202  0.2302  0.1959
 1581W        W18428  18.117  18.906   4.304 -0.3607  0.0893  0.0754
 1582W        W18429  12.323  17.403   9.971  0.1417  0.2360  0.1304
 1583W        W18430  12.648   5.366   4.142 -0.3726  0.2380 -0.0455
 1584W        W18431   7.023   3.212   0.854 -0.0830  0.0327 -0.4356
 1585W        W18432  10.307   9.786  13.162  0.0716 -0.2002  0.1347
 1586W        W18433   8.757   0.789  13.923  0.3399  0.2873 -0.0388
 1587W        W18434   8.218  18.476  10.657  0.2426  0.3281  0.2563
 1588W        W18435  17.835   8.176  12.275  0.0175 -0.2388 -0.1005
 1589W        W18436   3.145   7.700   3.154 -0.2954 -0.0856  0.0984
 1590W        W18437  19.619   9.025   2.393 -0.0103  0.1169  0.4485
 1591W        W18438  19.392   9.234   0.434 -0.0819 -0.0322  0.4094
 1592W        W18439  12.076  14.656  14.116 -0.0534  0.0312  0.3396
 1593W        W18440   2.742   2.618   4.178  0.2378  0.2881 -0.0311
 1594W        W18441   8.801  16.774   2.060 -0.0027  0.1396 -0.0265
 1595W        W18442  14.656  17.076  11.199  0.0828 -0.2592 -0.2095
 1596W        W18443   3.026   7.728   1.750  0.1104  0.1998  0.2805
 1597W        W18444   7.104   3.654  12.854 -0.0507 -0.2318 -0.2895
 1598W        W18445   3.985   4.852  13.614 -0.1772 -0.1019  0.1043
 1599W        W18446   0.305   2.798  10.166  0.0979 -0.1529  0.1204
 1600W        W18447   3.466   9.560  12.105  0.2143  0.1222 -0.1094
 1601W        W18448   0.400  17.276   4.605 -0.2061  0.0212 -0.2025
 1602W        W18449  13.633  12.015   0.702 -0.0585  0.1779  0.3856
 1603W        W18450  12.270  18.265   0.301  0.0950  0.0146  0.0640
 1604W        W18451   6.892   5.090   4.017  0.2401 -0.1732 -0.0771
 1605W        W18452  10.208   3.839   5.181  0.0958  0.4298  0.2566
 1606W        W18453   1.231   0.241  10.053  0.0364  0.4239  0.0836
 1607W        W18454   2.560  17.114   2.283 -0.1962 -0.2003  0.2481
 1608W        W18455  15.117   1.535   1.400 -0.0666  0.1164 -0.0632
 1609W        W18456   7.693  14.866  10.427  0.0251  0.1853  0.2696
 1610W        W18457   1.614   0.049  12.156 -0.1473  0.1472 -0.3803
 1611W        W18458   1.054  18.231   4.972 -0.2071 -0.1808  0.0621
 1612W        W18459  18.005  12.237  11.118 -0.0370 -0.1742 -0.1490
 1613W        W18460  12.848  13.936  11.221 -0.0594 -0.2804  0.2509
 1614W        W18461   5.592  17.246  10.005 -0.3413  0.0562  0.1213
 1615W        W18462   3.900   7.162  10.931  0.0049  0.2270 -0.0816
 1616W        W18463   2.838   8.963  13.913 -0.0893  0.3831  0.1768
 1617W        W18464   6.394   2.245  11.777 -0.0956 -0.2763  0.1450
 1618W        W18465   5.629   8.920  12.907  0.3146 -0.1895 -0.1307
 1619W        W18466  11.697  11.749  12.734  0.0832 -0.0666  0.7294
 1620W        W18467  12.036  15.020   2.752 -0.2114 -0.1691 -0.1187
 1621W        W18468   6.206  11.293  11.112 -0.0971 -0.2565  0.0335
 1622W        W18469  13.720   3.071   4.895 -0.2477 -0.1997  0.3383
 1623W        W18470  12.124  14.403   3.677  0.2085 -0.3425  0.1727
 1624W        W18471   2.231   2.917  11.968  0.2790  0.3320  0.0627
 1625W        W18472  14.899   2.406  14.180  0.3931 -0.0306 -0.0842
 1626W        W18473  10.627   5.912  12.838 -0.1433  0.0403  0.1491
 1627W        W18474  16.602   9.267   4.716  0.4468 -0.0865 -0.0078
 1628W        W18475  10.925   7.699   1.353 -0.0880 -0.0629  0.0501
 1629W        W18476   6.659   0.552   3.321 -0.1426 -0.1242 -0.1886
 1630W        W18477   6.698  10.578   4.246 -0.4617 -0.1580 -0.0366
 1631W        W18478  16.040  18.061   0.337  0.0613 -0.2602 -0.1171
 1632W        W18479   9.354  16.199   0.249 -0.2399  0.1885 -0.0651
 1633W        W18480  18.805  18.236  11.250 -0.0492 -0.1961  0.1276
 1634W        W18481  18.969  19.246  13.590 -0.1339 -0.0997 -0.1304
 1635W        W18482   1.799   4.885   1.634  0.1061  0.0235 -0.1752
 1636W        W18483   9.347  17.403   2.389  0.1475 -0.0936 -0.2761
 1637W        W18484   0.577  10.254  10.624 -0.1503  0.2195  0.1393
 1638W        W18485  13.471  12.065   1.884  0.2201  0.0908  0.3177
 1639W        W18486   1.094  17.341  14.162  0.1466 -0.3042  0.0944
 1640W        W18487  15.341   9.961   0.422  0.0767 -0.0971  0.1133
 1641W        W18488   2.725  16.830   3.130 -0.2291  0.2178 -0.0053
 1642W        W18489  19.164  14.909  13.858  0.0729  0.3684 -0.1597
 1643W        W18490  10.160  11.313   4.380  0.1845 -0.2300 -0.0435
 1644W        W18491   6.836   4.992   1.486 -0.1293  0.0677  0.0978
 1645W        W18492   1.754  19.660   0.980  0.0094  0.0215  0.1988
 1646W        W18493  19.116   8.067   2.314  0.3488  0.0839 -0.1545
 1647W        W18494   2.372  14.290   2.973  0.0243  0.0695 -0.0491
 1648W        W18495  11.676  12.450  13.211  0.0461  0.0700 -0.2886
 1649W        W18496   0.028  12.869  13.558 -0.0627 -0.0292  0.1578
 1650W        W18497   2.090   0.084  11.895 -0.0262  0.1571 -0.2728
 1651W        W18498   9.265   3.996   0.088  0.5756 -0.1355  0.0318
 1652W        W18499   3.338   6.384  10.781 -0.0193  0.1881  0.2462
 1653W        W18500  12.951  14.893  14.031 -0.1612  0.1228  0.1643
 1654W        W18501   7.311  11.281  12.222 -0.0318  0.0621  0.0119
 1655W        W18502   9.487  17.124   0.195  0.1354  0.1970 -0.1183
 1656W        W18503   1.637  13.197  13.475 -0.4160 -0.3643  0.0935
 1657W        W18504   5.348   9.201   3.520  0.0359  0.0812  0.1319
 1658W        W18505  12.819  18.066  12.428 -0.0236 -0.2725 -0.2439
 1659W        W18506  12.494   6.023  11.432  0.2837 -0.1658 -0.0239
 1660W        W18507  12.104   5.654  11.223  0.1773 -0.3030  0.0867
 1661W        W18508  15.686  17.593   9.569 -0.1624  0.3383 -0.0755
 1662W        W18509   6.710   4.723   3.010 -0.0929 -0.0889  0.1117
 1663W        W18510   4.169  11.140   2.520 -0.0564  0.0306 -0.2186
 1664W        W18511  10.353   1.512  11.975 -0.1289 -0.2277  0.0987
 1665W        W18512  12.023  10.769  11.681  0.1130  0.0283 -0.0618
 1666W        W18513   3.907   1.443  14.241 -0.0986  0.0784  0.0623
 1667W        W18514   6.635  16.190   4.212  0.3345 -0.1706  0.5181
 1668W        W18515   2.196   4.606   0.960 -0.2091  0.1611 -0.0305
 1669W        W18516  15.735   8.912  12.723 -0.0526  0.2444 -0.2109
 1670W        W18517  18.871  11.578   2.869 -0.1849  0.0770 -0.1824
 1671W        W18518   6.202  10.493  12.743  0.0484 -0.0090 -0.2161
 1672W        W18519  14.079  14.829   1.603  0.0656  0.2745  0.0061
 1673W        W18520  13.783   3.138   2.968 -0.1412  0.1589 -0.1466
 1674W        W18521   8.065   5.589  11.884 -0.2558 -0.0609 -0.0709
 1675W        W18522  10.737   7.119   3.290  0.0854  0.1052  0.3926
 1676W        W18523  15.688  17.032   0.702 -0.0499  0.0702  0.0474
 1677W        W18524   6.343  18.748  11.138 -0.0953  0.0498 -0.4263
 1678W        W18525  12.467  15.638   0.187  0.4790 -0.0281 -0.2116
 1679W        W18526   3.437   4.953  11.577  0.2795 -0.3088  0.0322
 1680W        W18527   8.644   9.649  10.836 -0.2491 -0.1023  0.1227
 1681W        W18528   7.356  16.540   0.926  0.2151 -0.0233  0.2813
 1682W        W18529  14.489  16.117  10.408  0.0174 -0.1093  0.1094
 1683W        W18530  15.613   5.466   4.209 -0.1367 -0.1807 -0.1254
 1684W        W18531   6.070   6.438   9.818  0.1273 -0.1135 -0.1166
 1685W        W18532   3.754   3.277   1.018 -0.2876  0.0761 -0.1113
 1686W        W18533  13.073  18.823   0.975  0.3654 -0.1362 -0.2730
 1687W        W18534  12.670   6.286  13.379 -0.0205  0.1615  0.0556
 1688W        W18535   8.418  17.970  13.775 -0.2414 -0.1625  0.0995
 1689W        W18536   3.535   6.481  12.365  0.0959  0.0896  0.3853
 1690W        W18537  16.751   6.895  12.649 -0.0267  0.2144  0.0854
 1691W        W18538   9.005  12.718  11.907  0.0277  0.1890  0.1293
 1692W        W18539   2.875  11.181  10.579  0.4239 -0.2803 -0.1382
 1693W        W18540   4.760  12.426  13.039 -0.0848 -0.0417  0.0096
 1694W        W18541  14.575   8.258  12.454  0.0956 -0.1262  0.2529
 1695W        W18542   9.860  19.263  14.165  0.1511  0.0040  0.1350
 1696W        W18543  16.653  12.573   2.321 -0.0620 -0.0197 -0.2437
 1697W        W18544   9.920   3.476   0.401 -0.0043 -0.0953 -0.1909
 1698W        W18545  10.900   4.860  13.798 -0.2124  0.0166  0.3147
 1699W        W18546  17.346   5.748   2.038  0.6179  0.5206 -0.0409
 1700W        W18547  17.941   7.818   4.136  0.0619  0.1610 -0.0822
 1701W        W18548   3.513   2.781   0.266 -0.0862  0.1666  0.2107
 1702W        W18549   9.194  17.658   2.967  0.3212  0.2218 -0.1735
 1703W        W18550  18.461  19.135  10.274  0.2842  0.0753  0.0849
 1704W        W18551   5.062  16.048  12.726  0.1216  0.2626 -0.0393
 1705W        W18552  12.657   2.230  13.651  0.0643  0.2221  0.0292
 1706W        W18553   1.831  13.666  11.286  0.3358 -0.4048  0.1133
 1707W        W18554   8.468  15.689  13.684 -0.1602 -0.1691 -0.4948
 1708W        W18555   3.145   0.822  12.989  0.0576 -0.0085 -0.0043
 1709W        W18556   7.230  18.309  12.557  0.0236 -0.3097 -0.1440
 1710W        W18557  15.689  16.884   3.677  0.2180  0.1904  0.0772
 1711W        W18558   1.730   7.260  12.086  0.0444  0.3565  0.0020
 1712W        W18559   0.383   9.134   1.047  0.1655 -0.0580  0.0089
 1713W        W18560  13.997  15.290   3.516 -0.2476 -0.1882 -0.1261
 1714W        W18561   2.583  11.838  10.731 -0.0034 -0.0342 -0.1651
 1715W        W18562  17.126   3.739   4.024  0.5379 -0.3010  0.0174
 1716W        W18563  11.703   9.085   4.355  0.0114 -0.0945  0.2174
 1717W        W18564  11.925  13.774   2.481  0.1199  0.0583  0.0229
 1718W        W18565  12.358   5.260   3.073 -0.0797  0.3479  0.1706
 1719W        W18566  13.130   5.470  11.229  0.3229 -0.0810 -0.0970
 1720W        W18567  11.280   3.461   0.947 -0.0551  0.0675 -0.0997
 1721W        W18568   9.150   8.878   0.838  0.2574 -0.0316  0.2553
 1722W        W18569   4.111  13.938   1.778 -0.0462 -0.2860 -0.0530
 1723W        W18570   7.520  13.710  13.222 -0.2004 -0.1701 -0.0475
 1724W        W18571   8.435   3.495   1.951  0.2087  0.0259 -0.2833
 1725W        W18572  17.551  16.385   1.765 -0.1935 -0.2109 -0.0701
 1726W        W18573  16.422   2.369   1.850  0.3058 -0.0359  0.0382
 1727W        W18574   3.715   3.469   3.594  0.1433  0.1507 -0.0635
 1728W        W18575   0.527   9.373   0.479 -0.2722 -0.2956  0.0043
 1729W        W18576  15.307  18.320   2.013  0.2302 -0.0220 -0.0996
 1730W        W18577   2.002   8.928   2.819 -0.0295  0.2951 -0.2612
 1731W        W18578  18.835   2.532  13.273  0.0376  0.0899  0.2813
 1732W        W18579   3.661  17.488  11.333  0.1361  0.0986 -0.1495
 1733W        W18580   9.525  14.184   2.335 -0.3468  0.0564 -0.0422
 1734W        W18581  13.363  14.342  12.284  0.2986 -0.0987  0.1944
 1735W        W18582   5.418  12.625   3.064 -0.0888 -0.0499 -0.0643
 1736W        W18583  18.775  14.542   1.053 -0.0915 -0.0756  0.0230
 1737W        W18584   0.847   9.272   3.804  0.2300  0.0893  0.1137
 1738W        W18585  12.684  12.677  13.600  0.2204 -0.1421 -0.2684
 1739W        W18586   2.389   9.279   3.169  0.0937  0.2977  0.0466
 1740W        W18587  19.540   6.091  12.968 -0.0828  0.1170  0.1005
 1741W        W18588   5.789  13.732   0.001  0.3017 -0.1617 -0.1812
 1742W        W18589  12.527   0.609   0.704  0.0388 -0.0262  0.2148
 1743W        W18590  15.980  14.645   2.659 -0.0002  0.2482  0.0425
 1744W        W18591  13.081   5.997  13.035 -0.1542  0.1934 -0.1105
 1745W        W18592  17.265  13.898  10.146  0.0844 -0.3261 -0.2684
 1746W        W18593   6.203  13.039   4.116 -0.2210  0.3258 -0.2579
 1747W        W18594  10.889   7.132  13.133 -0.0541 -0.0952  0.1105
 1748W        W18595  10.631  15.573  12.408  0.1246 -0.2448 -0.0535
 1749W        W18596   0.834   5.356   9.781  0.2225  0.2246  0.1386
 1750W        W18597   7.015  15.717   3.480  0.0250 -0.2250 -0.1000
 1751W        W18598  10.570  15.557  11.250  0.2280 -0.1681  0.2924
 1752W        W18599  14.398  11.462   0.114  0.1681  0.1156  0.0308
 1753W        W18600   0.401  19.234   1.780  0.0540 -0.0014  0.2415
 1754W        W18601   6.230   4.209  10.818 -0.2136 -0.2914 -0.1235
 1755W        W18602  17.535   4.631  11.135  0.3296  0.0272 -0.2033
 1756W        W18603  10.432  14.587   2.825 -0.1601 -0.0023 -0.1686
 1757W        W18604   1.633  13.043  10.171 -0.1158  0.1467 -0.0993
 1758W        W18605  13.565  11.862   5.033 -0.0649 -0.1182 -0.0010
 1759W        W18606   0.054  11.284  12.042 -0.4299  0.0394 -0.1556
 1760W        W18607  12.677   0.898   2.787 -0.1555 -0.1015 -0.1986
 1761W        W18608  16.734  15.423  14.137  0.1438  0.1108  0.3047
 1762W        W18609   3.062   9.105   1.889  0.1171  0.2956  0.0858
 1763W        W18610  15.906   7.170   2.627  0.1738 -0.0333  0.1456
 1764W        W18611   4.194  12.934   4.200 -0.1743 -0.2286 -0.1118
 1765W        W18612   8.344   4.817  13.377  0.4122  0.2998  0.0213
 1766W        W18613  10.646   4.746   3.144  0.0380 -0.0847 -0.1884
 1767W        W18614  16.360  15.111  11.355 -0.0679  0.0852  0.0264
 1768W        W18615  11.266  18.033  10.607 -0.1301  0.0601 -0.1329
 1769W        W18616   1.326  10.834   8.787  0.0624 -0.4986 -0.0746
 1770W        W18617  16.698  13.220  10.409 -0.0614  0.1209  0.1693
 1771W        W18618  17.306   8.740  10.594  0.0644  0.0080  0.1152
 1772W        W18619   8.713  19.689  11.892  0.0931  0.2326 -0.0773
 1773W        W18620  12.087   0.702   3.465 -0.0386 -0.0915 -0.1169
 1774W        W18621   3.086  18.150   4.789 -0.1592 -0.1483  0.1696
 1775W        W18622  17.594  12.452  10.680  0.2165  0.1453  0.0371
 1776W        W18623   5.541  19.546  13.514  0.2012 -0.1152  0.0767
 1777W        W18624  13.497   5.804   0.086 -0.4782  0.0369 -0.1681
 1778W        W18625  14.116  19.305   9.216  0.0557  0.2416 -0.3406
 1779W        W18626  17.399   1.096   0.982  0.2949 -0.0640  0.0466
 1780W        W18627  12.122  17.423   3.510  0.0897 -0.1502  0.0274
 1781W        W18628   3.895  16.957   3.388  0.4567 -0.1713 -0.0490
 1782W        W18629  17.699  15.730   4.725  0.0893 -0.2172 -0.3408
 1783W        W18630  15.876   1.067   0.787  0.1447  0.2482 -0.3062
 1784W        W18631   8.513   0.980   3.141 -0.1362 -0.1237 -0.1474
 1785W        W18632   0.059   5.046  13.579 -0.0517 -0.2676 -0.2684
 1786W        W18633  15.110   0.928   9.294 -0.1156  0.2731  0.0010
 1787W        W18634  18.509   2.598  12.449  0.2998 -0.2742  0.0017
 1788W        W18635   5.050  17.335   0.928  0.2634  0.2635 -0.0204
 1789W        W18636   1.544   5.704  10.471 -0.1057 -0.2059 -0.2525
 1790W        W18637   2.918  11.487   1.716 -0.0940 -0.1035  0.0502
 1791W        W18638   0.327  19.092   1.266  0.1203 -0.3437  0.0223
 1792W        W18639   2.465   4.723   3.079  0.0822  0.0762 -0.0606
 1793W        W18640   6.253  15.565   0.170  0.1294 -0.1527  0.2615
 1794W        W18641  15.982  10.938   4.901 -0.2280 -0.3143 -0.2481
 1795W        W18642   0.619  11.964   0.116 -0.1727  0.0651 -0.2020
 1796W        W18643  19.059   4.864   1.236 -0.0339  0.3860  0.0506
 1797W        W18644   7.272   6.504   0.121  0.1266 -0.0607  0.2230
 1798W        W18645  14.522  11.899  11.930  0.2281 -0.2329 -0.0911
 1799W        W18646  11.654  17.964  12.064 -0.0346 -0.1512  0.2195
 1800W        W18647  15.310   9.811   4.364 -0.1167  0.0456  0.0750
 1801W        W18648   4.147  11.842  13.361  0.0632 -0.1924 -0.0403
 1802W        W18649  16.314   9.951   1.937 -0.1050  0.0023 -0.0420
 1803W        W18650   5.274  13.828  13.887 -0.1200 -0.1409 -0.0042
 1804W        W18651   6.314  19.655   2.064  0.0094 -0.0160  0.3002
 1805W        W18652  16.778   4.871   1.274  0.0040  0.0894 -0.2109
 1806W        W18653   9.201   0.427   0.585  0.1337  0.1549 -0.0381
 1807W        W18654   5.328   2.272   1.411  0.2262  0.1513 -0.3539
 1808W        W18655  12.981   0.237  12.781  0.0371 -0.3191 -0.2047
 1809W        W18656   0.964  11.030   1.658 -0.4715 -0.1217  0.0540
 1810W        W18657  11.067  17.814   0.759  0.0213  0.2263  0.1576
 1811W        W18658   2.045  12.290  13.109  0.3762 -0.2039 -0.0234
 1812W        W18659   6.520   8.678  12.993  0.1936  0.2753 -0.3963
 1813W        W18660   5.472  12.792   4.532 -0.0260  0.0570 -0.0637
 1814W        W18661   2.365   7.118  13.573  0.2186  0.2704 -0.3448
 1815W        W18662   4.876  10.943   4.363  0.1952 -0.1810  0.0587
 1816W        W18663   1.586   4.144  11.544  0.2860  0.3325  0.0079
 1817W        W18664   0.101   1.683  13.928 -0.0035  0.0454 -0.0543
 1818W        W18665  17.128   0.062   9.690  0.0075 -0.0197  0.1867
 1819W        W18666   3.573  14.785   0.276  0.3266 -0.3713 -0.1666
 1820W        W18667  11.322   4.062  11.558 -0.0182  0.1566  0.1199
 1821W        W18668  14.866   3.151   9.637 -0.1075  0.3482  0.1860
 1822W        W18669  12.726  19.549   0.327 -0.2778 -0.0170 -0.2168
 1823W        W18670  12.166   9.123   2.979 -0.2124  0.2352 -0.4494
 1824W        W18671  15.121   5.089  10.335 -0.0246 -0.0050  0.2692
 1825W        W18672   7.168  16.116  13.410 -0.1656  0.1577  0.1471
 1826W        W18673   7.800  14.538   4.725 -0.0514  0.0641 -0.0763
 1827W        W18674   7.314   0.106  10.142 -0.3786 -0.2447  0.2197
 1828W        W18675  19.889   9.579   3.300 -0.0456  0.3019  0.1212
 1829W        W18676   3.981  16.791  12.796  0.1330  0.1903  0.0837
 1830W        W18677   8.865  19.156  11.649 -0.2227 -0.0797  0.1988
 1831W        W18678  16.788   6.694  13.113  0.1057  0.0416  0.1852
 1832W        W18679  10.000  15.693  12.370  0.0344 -0.4509 -0.4535
 1833W        W18680   7.624   8.071  10.035  0.1970  0.2675  0.0134
 1834W        W18681  10.159  13.759   3.678  0.0980  0.0728 -0.0692
 1835W        W18682  15.394   5.313   3.792 -0.0885  0.1362  0.3787
 1836W        W18683  13.078  16.574  14.256  0.5988 -0.0313 -0.1994
 1837W        W18684   4.413  16.149  11.037  0.2500  0.1698 -0.1156
 1838W        W18685  13.146  19.256  12.186  0.1610  0.0942  0.1998
 1839W        W18686  13.860   2.754  11.784  0.3203  0.1451  0.0113
 1840W        W18687  13.254   3.196   3.897 -0.0434 -0.0750  0.1663
 1841W        W18688  19.402  16.306  11.102  0.4164 -0.4105  0.3408
 1842W        W18689  11.138   4.394  11.930 -0.2317  0.2361 -0.1444
 1843W        W18690   4.998   8.815  13.443  0.4816  0.1072 -0.0373
 1844W        W18691   1.881   5.823   2.208  0.3303 -0.1480 -0.0704
 1845W        W18692  17.992  17.351   3.889 -0.1739  0.0686  0.3730
 1846W        W18693  12.003   4.792  12.740 -0.1995  0.2876  0.0514
 1847W        W18694  18.607   9.026   1.455 -0.1733  0.0431 -0.2200
 1848W        W18695   6.342  10.369  11.233  0.2483  0.3213 -0.0545
 1849W        W18696  13.225   4.221   1.525  0.1492  0.0549  0.2625
 1850W        W18697   6.098  10.955  10.566 -0.1602  0.2830 -0.0273
 1851W        W18698  11.473  17.379  13.631 -0.0650  0.2079 -0.2996
 1852W        W18699  10.685   9.237   0.287  0.4616 -0.1375 -0.1360
 1853W        W18700   1.975   0.380   2.053 -0.0080  0.0252  0.1026
 1854W        W18701   6.390  12.857  13.708 -0.2193  0.2850 -0.0048
 1855W        W18702  12.592  19.643   1.881  0.0464  0.1193  0.1356
 1856W        W18703   4.437  17.161   1.350 -0.0368 -0.0120  0.1206
 1857W        W18704   4.491  13.695   1.640 -0.0593 -0.0749  0.1854
 1858W        W18705  13.303   0.498  10.399 -0.0540 -0.0688 -0.3798
 1859W        W18706  17.680   5.736  11.617  0.3117 -0.2606 -0.1737
 1860W        W18707  19.332   8.431   2.061 -0.3629  0.0142  0.3249
 1861W        W18708  13.340  13.558   4.450 -0.2430 -0.0455  0.1259
 1862W        W18709   9.629   7.304  10.048  0.1601  0.0002 -0.0098
 1863W        W18710  19.211  13.356   4.625 -0.3024 -0.1586 -0.3916
 1864W        W18711   1.628   4.015   1.889  0.3511 -0.0551  0.2003
 1865W        W18712  17.756   6.318   3.088  0.1502  0.1171 -0.1317
 1866W        W18713  18.536  19.634   1.812 -0.0390  0.0651  0.2437
 1867W        W18714  19.632   7.739   2.763 -0.0766  0.0381  0.2231
 1868W        W18715   2.135   3.096   2.139 -0.2460 -0.2531 -0.0489
 1869W        W18716  16.009   4.206   2.345 -0.1879  0.0868 -0.3398
 1870W        W18717  18.969  15.962  11.074 -0.0721 -0.0137  0.1268
 1871W        W18718   6.142   6.489  12.065  0.1298  0.3289 -0.1484
 1872W        W18719   2.274  16.688   2.887 -0.0179  0.2405  0.1367
 1873W        W18720  11.950   8.541  10.798 -0.0819 -0.0624 -0.0358
 1874W        W18721  18.332  13.058  13.282 -0.2273 -0.0778  0.3453
 1875W        W18722  18.224   1.657  14.184  0.1296  0.2627  0.0578
 1876W        W18723   3.866   0.981   2.411  0.1175  0.0673  0.1867
 1877W        W18724  15.872   0.230  11.107  0.2420  0.1155  0.0230
 1878W        W18725  12.778  12.158  10.121  0.0410  0.0321  0.2543
 1879W        W18726  10.016   2.742   4.178 -0.2084 -0.3680  0.0053
 1880W        W18727  12.259  11.679   3.002 -0.1670 -0.0829 -0.5434
 1881W        W18728   1.787  11.257  11.286 -0.0461 -0.0505  0.1885
 1882W        W18729  15.493   4.583  10.110 -0.0020 -0.3549  0.2014
 1883W        W18730   8.879   4.782   1.384  0.2312 -0.2261 -0.0706
 1884W        W18731   0.205   1.111   4.366 -0.1765  0.1994 -0.0161
 1885W        W18732  19.543   5.772   3.084 -0.0998 -0.0034  0.2247
 1886W        W18733   6.996   0.178  14.105 -0.2387 -0.1330 -0.1696
 1887W        W18734  10.498   1.094   4.782 -0.2496 -0.2001 -0.1205
 1888W        W18735  14.600   5.571   1.679 -0.1803 -0.1508  0.0436
 1889W        W18736   1.541   9.320   2.489 -0.1698 -0.1089 -0.1200
 1890W        W18737  19.783   7.508   0.601 -0.4985  0.1686 -0.3265
 1891W        W18738   1.820  11.286   2.407  0.0304 -0.2052 -0.2666
 1892W        W18739  14.173  18.015  12.157  0.2066  0.1571 -0.1010
 1893W        W18740  19.693  18.629   2.955 -0.3602  0.1269  0.1967
 1894W        W18741   3.156   5.923  13.161  0.1440 -0.1032 -0.1571
 1895W        W18742  11.942   5.728  12.514 -0.2727 -0.2228  0.2392
 1896W        W18743   8.306  17.064   0.375 -0.1453  0.2258 -0.2412
 1897W        W18744  13.494  14.796  12.052  0.1703 -0.0407  0.0275
 1898W        W18745  13.389   2.864   5.234  0.0792 -0.2721  0.3258
 1899W        W18746   1.396   9.706   1.569 -0.0812  0.1071 -0.1883
 1900W        W18747   6.619   7.664  11.074  0.2670  0.1415 -0.1308
 1901W        W18748   1.396   2.391   5.052  0.3062  0.1533 -0.0527
 1902W        W18749   5.506  11.900   1.695 -0.1351  0.4388  0.1614
 1903W        W18750  15.166  11.813  11.315  0.2612 -0.1615  0.0331
 1904W        W18751   5.392   0.855  12.559  0.0325  0.0021 -0.3565
 1905W        W18752  14.384  17.718  13.806  0.0973  0.2748  0.2105
 1906W        W18753  10.297   2.056  12.754  0.1282 -0.1271  0.1692
 1907W        W18754   9.235  12.941  11.490 -0.3192  0.5200  0.3928
 1908W        W18755  12.148   7.938   3.696  0.0209  0.1834  0.2348
 1909W        W18756  17.745  15.604   2.901  0.1731  0.1231 -0.1924
 1910W        W18757   9.635  16.948   3.784 -0.2336 -0.0143  0.2662
 1911W        W18758  14.098   6.011  14.148 -0.1587 -0.1713 -0.0239
 1912W        W18759  18.337   1.665   4.454  0.1567  0.1032  0.1160
 1913W        W18760   8.193  14.087  13.295 -0.5076 -0.0477 -0.3760
 1914W        W18761  19.241   9.687   4.053  0.2003  0.0164 -0.2365
 1915W        W18762  19.682  12.536   9.979  0.2740 -0.0150 -0.1463
 1916W        W18763   4.192   1.417   4.006  0.2231  0.1180 -0.0893
 1917W        W18764  10.596   6.239  11.699  0.2972 -0.2159  0.1424
 1918W        W18765   6.200  16.483  13.406  0.1108 -0.1470  0.0610
 1919W        W18766  12.201   8.356  14.025 -0.0742  0.0374  0.1538
 1920W        W18767   2.582  13.526   1.699 -0.0814  0.2020  0.2115
 1921W        W18768  14.425   8.787   3.253  0.2431  0.3166  0.0413
 1922W        W18769  19.807  10.436  10.703  0.2937 -0.1618  0.1821
 1923W        W18770   5.948   1.459   3.151 -0.4900 -0.1480 -0.1866
 1924W        W18771   1.604   2.924   4.340  0.2403 -0.0899 -0.1078
 1925W        W18772   3.540   8.045  12.081  0.0644 -0.0701 -0.1695
 1926W        W18773  11.572  12.102   4.474  0.0301  0.2059  0.0964
 1927W        W18774  18.312  11.218  10.504 -0.1802  0.2308  0.1220
 1928W        W18775   9.645   4.296   4.082  0.0445 -0.2613  0.4758
 1929W        W18776   9.829  16.694   2.880  0.5494  0.4592 -0.1279
 1930W        W18777  18.165   1.755  10.381 -0.3265  0.1323 -0.0060
 1931W        W18778   6.957   1.947   0.668  0.3839 -0.1455 -0.3642
 1932W        W18779   2.209   6.370   3.266  0.3690 -0.2184  0.1515
 1933W        W18780  18.284   2.508  13.099 -0.1747  0.5787  0.1121
 1934W        W18781   1.154  13.909   9.074 -0.0114  0.0932  0.0510
 1935W        W18782   1.820   5.330   3.747  0.0245  0.2119 -0.3023
 1936W        W18783   6.614  13.339   3.318  0.0725 -0.0333  0.2484
 1937W        W18784   8.612   9.116   3.271 -0.1140 -0.0293 -0.1031
 1938W        W18785   8.611  10.965   3.416 -0.1564 -0.0940  0.3174
 1939W        W18786  10.627  11.786   3.527 -0.3517  0.0112 -0.1862
 1940W        W18787  15.994   7.752   1.402  0.1013  0.0785  0.4362
 1941W        W18788  12.072  13.181   4.173  0.1845  0.0111  0.3089
 1942W        W18789   0.265   8.131   4.495  0.3030  0.0089  0.0230
 1943W        W18790   0.172   6.886  11.906  0.2659 -0.3137  0.1759
 1944W        W18791  18.328   3.082   0.342 -0.1407  0.0634 -0.3767
 1945W        W18792   6.752   4.699   1.052  0.2820  0.2043 -0.0324
 1946W        W18793   3.621  11.807  11.828 -0.0428 -0.3937  0.0813
 1947W        W18794  18.763   2.862   2.876 -0.0553  0.1087  0.1088
 1948W        W18795   3.216   8.305   3.153 -0.0991 -0.1658  0.2555
 1949W        W18796   4.775  17.872   2.682  0.0901  0.3132 -0.0066
 1950W        W18797   6.568   0.004   3.211 -0.1512  0.3684 -0.0210
 1951W        W18798  17.665  18.479  11.292 -0.1566 -0.1553 -0.4835
 1952W        W18799   5.366   7.928   0.328 -0.1271 -0.1264 -0.0592
 1953W        W18800   3.037  14.469  10.706  0.3763 -0.0842  0.0113
 1954W        W18801  10.278  12.438   3.967  0.1280  0.0432  0.0172
 1955W        W18802   7.512  18.758   4.159 -0.1481  0.3278  0.0001
 1956W        W18803   2.211  14.866  11.676 -0.1142  0.1318  0.1609
 1957W        W18804  12.606   5.464   9.658  0.1004 -0.1884 -0.0140
 1958W        W18805  11.262  10.430   1.864 -0.1590  0.0644  0.1162
 1959W        W18806  14.693   3.235   4.034  0.3588  0.2366  0.1293
 1960W        W18807  10.750  14.011   0.495  0.3093  0.0299  0.0735
 1961W        W18808  14.892  12.413   5.322  0.4284  0.2811 -0.0790
 1962W        W18809  10.447  16.915  10.794 -0.1660 -0.0465 -0.3506
 1963W        W18810  18.190   1.435  12.989 -0.2971 -0.2632  0.2412
 1964W        W18811  16.829   0.303   1.368 -0.0905  0.2482 -0.0844
 1965W        W18812  14.757   0.788   2.449  0.3007 -0.1301  0.0319
 1966W        W18813   3.300  13.148  10.725  0.3370 -0.2905 -0.4065
 1967W        W18814   6.027   4.344   3.462 -0.0286  0.0699 -0.0847
 1968W        W18815  16.488  13.487  10.756  0.0503  0.0833 -0.1608
 1969W        W18816   5.007  18.607   3.736 -0.0887 -0.0914 -0.3343
 1970W        W18817  17.049  19.625  12.967 -0.0087 -0.0100  0.2892
 1971W        W18818  11.079   5.371   2.486 -0.2202  0.1319 -0.0444
 1972W        W18819  18.939   0.825  11.589 -0.0291 -0.0186 -0.0700
 1973W        W18820   0.801   0.505   9.988 -0.0235 -0.1221 -0.1920
 1974W        W18821   3.743  12.627  12.465  0.1306  0.2068 -0.0466
 1975W        W18822   5.491   7.586  14.002  0.0565  0.0806 -0.3629
 1976W        W18823   6.131   2.846  12.522  0.0028  0.0731  0.1085
 1977W        W18824   0.423  14.743   9.716  0.0198  0.2476  0.0812
 1978W        W18825   6.236  12.911   4.946 -0.1276  0.0775  0.0306
 1979W        W18826   3.060  18.352   1.239  0.0254  0.3039  0.0450
 1980W        W18827   2.355   4.542   4.931 -0.1244 -0.1590 -0.0944
 1981W        W18828  12.924   2.427  11.354  0.1618 -0.1455 -0.2803
 1982W        W18829   4.029  12.521  14.185 -0.1747 -0.1547  0.1270
 1983W        W18830  17.188   8.188   4.529 -0.2457  0.2676 -0.1221
 1984W        W18831  10.160  12.005  12.481  0.2438 -0.0099 -0.1779
 1985W        W18832  17.779   8.462   5.244 -0.0857 -0.1232 -0.1002
 1986W        W18833  18.904   9.962   2.980 -0.0970 -0.1052 -0.1380
 1987W        W18834   5.885   7.977   1.773 -0.0830 -0.1110 -0.1076
 1988W        W18835  12.583  19.324  11.859 -0.2498 -0.4454  0.4044
 1989W        W18836   5.606  18.193   9.970 -0.1738 -0.2060  0.1499
 1990W        W18837  12.455  17.991   3.685 -0.1318 -0.1648  0.2326
 1991W        W18838  12.273   6.855   1.707  0.0559 -0.3620  0.0458
 1992W        W18839  10.482  11.591  12.424 -0.1928  0.1566  0.1289
 1993W        W18840  13.426  12.652   1.350 -0.5086 -0.0062 -0.0576
 1994W        W18841  11.010   0.860   0.223  0.1990 -0.0471 -0.0771
 1995W        W18842  12.838  18.512   1.323 -0.0686  0.3299 -0.1084
 1996W        W18843  13.893   7.345   1.729 -0.1214  0.0749 -0.0670
 1997W        W18844   7.022  11.773  11.665  0.0180  0.1560  0.0427
 1998W        W18845   7.087  14.732  11.734 -0.1550  0.4414  0.1895
 1999W        W18846   9.897   6.901   3.934 -0.2868 -0.1926  0.4002
 2000W        W18847  11.050  12.731   1.296  0.0150 -0.0680 -0.0393
 2001W        W18848   8.705   1.302  13.078  0.1206  0.0721  0.1738
 2002W        W18849   2.144  10.109  13.974 -0.2203 -0.1813  0.1075
 2003W        W18850   9.905  12.605   3.084 -0.0206 -0.1001 -0.0342
 2004W        W18851  14.645   9.665  10.395 -0.0910  0.0847 -0.2565
 2005W        W18852  15.351  13.892  10.380 -0.0613  0.2912 -0.0840
 2006W        W18853  12.986  12.056   2.008 -0.0013 -0.0638  0.1921
 2007W        W18854   8.243  18.896   9.440 -0.0497  0.2472  0.0967
 2008W        W18855   0.960   6.975  11.001 -0.0962  0.2019  0.0615
 2009W        W18856   5.568   5.462   2.114 -0.0021  0.0465  0.1971
 2010W        W18857   9.964   3.946   2.776 -0.0981 -0.1626  0.3478
 2011W        W18858   6.039  18.257  12.385 -0.1182  0.0273 -0.0074
 2012W        W18859  14.991  10.898   0.143  0.0043 -0.2117 -0.2649
 2013W        W18860   8.951  12.598  10.835 -0.0797  0.0787  0.2735
 2014W        W18861  13.428  18.336  11.896 -0.0053  0.2327 -0.0294
 2015W        W18862  17.793   4.557  13.369 -0.0483 -0.0377  0.0566
 2016W        W18863  15.502  13.565   2.260 -0.0890 -0.0040  0.0485
 2017W        W18864   5.531   5.429   4.201 -0.1856 -0.2732  0.2478
 2018W        W18865   3.324  18.435   4.463 -0.0284  0.0727 -0.1359
 2019W        W18866  16.397  19.010   3.759  0.0655 -0.1788 -0.0638
 2020W        W18867  18.884   2.643   1.416 -0.0642 -0.3963  0.0162
 2021W        W18868   2.113  14.741   3.125  0.3365  0.0167  0.3323
 2022W        W18869   3.353  16.086   0.902 -0.0460  0.0491  0.0843
 2023W        W18870   7.004  11.928   1.240 -0.3812 -0.2911  0.2100
 2024W        W18871   0.510  18.313  10.831  0.1004  0.3404 -0.1454
 2025W        W18872  11.257   1.197   4.348 -0.0872  0.1153  0.1644
 2026W        W18873   3.794  15.807   2.503  0.1044 -0.2053  0.0668
 2027W        W18874   5.916  18.865   0.599 -0.0267 -0.0629  0.0437
 2028W        W18875  15.954  11.357   1.215  0.0333 -0.1773 -0.0356
 2029W        W18876   3.660   4.936   4.080  0.0683  0.1517  0.1461
 2030W        W18877   8.204   0.475   4.653  0.1801 -0.3361 -0.3224
 2031W        W18878  14.047  13.555   2.289 -0.0689  0.0807 -0.2786
 2032W        W18879   0.582   1.239  10.474  0.1601 -0.0592  0.1455
 2033W        W18880  17.416  10.089   9.868  0.1405 -0.0544 -0.1661
 2034W        W18881  15.547  18.725   3.029 -0.1241 -0.0938 -0.0287
 2035W        W18882   6.866  15.815   2.317 -0.1563  0.0983 -0.2555
 2036W        W18883  16.621   1.479   1.573 -0.1612 -0.0536  0.1665
 2037W        W18884  11.709   1.230  10.848  0.1395 -0.1702  0.1444
 2038W        W18885   4.122   2.994  13.684  0.2743  0.2606  0.1761
 2039W        W18886   2.556   8.806   3.009 -0.2531 -0.0478  0.1331
 2040W        W18887   1.168  14.342   1.235 -0.0038  0.0418 -0.4306
 2041W        W18888  16.518   9.062   3.930 -0.0260 -0.1038  0.2949
 2042W        W18889  13.029   1.029  10.115 -0.0536  0.0167  0.1993
 2043W        W18890  14.668  18.571  11.614 -0.1923 -0.0011  0.0520
 2044W        W18891   0.455   7.773   1.140  0.2435 -0.1339  0.0212
 2045W        W18892   1.711  10.625   0.562 -0.2725  0.1275 -0.0971
 2046W        W18893  14.357  18.623   3.144 -0.2550 -0.1798  0.1306
 2047W        W18894  16.762   8.486   1.164  0.2841  0.0259 -0.1954
 2048W        W18895   0.633   3.663   3.674 -0.2434 -0.2289 -0.0247
 2049W        W18896  11.849   3.463  10.909 -0.0059 -0.0800  0.4160
 2050W        W18897  14.558  14.968  11.413  0.1464 -0.0167 -0.1356
 2051W        W18898   1.261   9.651   3.816  0.1161  0.2065 -0.0926
 2052W        W18899   0.179  18.763  11.054  0.3181 -0.1165  0.1674
 2053W        W18900   1.363   7.812  13.047  0.4316  0.2441 -0.0101
 2054W        W18901  15.371  10.197   2.373  0.1485  0.0460 -0.0672
 2055W        W18902   3.800   3.297   2.965  0.0711  0.0148 -0.2346
 2056W        W18903   2.013   3.931   1.603  0.1260  0.1478  0.0617
 2057W        W18904   4.144  10.839   3.864 -0.0843 -0.3449  0.0862
 2058W        W18905   4.363  16.216   9.899  0.2206  0.2064 -0.1718
 2059W        W18906   7.503   9.342   0.282 -0.1863 -0.2168 -0.2450
 2060W        W18907   1.340  10.398  12.536 -0.3409 -0.0803 -0.2385
 2061W        W18908  10.141   0.884  11.676 -0.0189 -0.1579  0.2596
 2062W        W18909   5.054   9.911  13.837 -0.2882  0.1864 -0.0393
 2063W        W18910  16.479  11.301   0.929  0.3281  0.1080  0.4259
 2064W        W18911  11.774  15.130   1.513 -0.0821  0.2092 -0.2039
 2065W        W18912  17.092   8.813   2.062 -0.2631  0.1875 -0.1096
 2066W        W18913   0.319  12.748  11.300 -0.3727 -0.1675  0.0667
 2067W        W18914   1.352  19.328   0.978 -0.1718 -0.1822  0.2500
 2068W        W18915  14.760  19.342  12.087 -0.1375 -0.3669 -0.0168
 2069W        W18916  12.718   8.885  13.700  0.3042  0.1632  0.1822
 2070W        W18917   3.569  19.106   3.750 -0.0386 -0.0583 -0.1301
 2071W        W18918  15.455  17.953  10.880 -0.1367 -0.1034  0.0943
 2072W        W18919   2.893  14.224  12.831  0.1685  0.2182 -0.0418
 2073W        W18920  15.807   0.162   1.755 -0.1439 -0.2463  0.0205
 2074W        W18921  11.414   4.821  11.975  0.2396 -0.0247 -0.0114
 2075W        W18922  12.949   1.631   1.020  0.0002  0.1991 -0.1723
 2076W        W18923  14.084   0.853   2.434  0.1227  0.2582  0.3007
 2077W        W18924   9.467  11.145   2.163 -0.1190 -0.1101  0.1395
 2078W        W18925  15.804   9.270   1.715 -0.1261  0.3506  0.0179
 2079W        W18926  18.213   6.693  13.244  0.2965  0.0869 -0.1195
 2080W        W18927  13.341   5.748   2.051 -0.0917 -0.0588  0.0173
 2081W        W18928   8.607  10.852   4.134  0.1203  0.0454  0.1774
 2082W        W18929   9.783   0.720   2.508 -0.1291 -0.0113  0.2078
 2083W        W18930   4.867   7.458   3.369 -0.2302 -0.1833 -0.2858
 2084W        W18931   1.005  13.307   3.850 -0.3703  0.1993 -0.1527
 2085W        W18932   3.420  18.094   9.026  0.3007  0.1490 -0.3017
 2086W        W18933   8.750  18.834  12.596 -0.3626 -0.0862  0.3818
 2087W        W18934  17.631  13.638  12.050  0.4367  0.1140  0.0562
 2088W        W18935   9.570   4.272  12.152 -0.2206 -0.0633 -0.3414
 2089W        W18936  17.716   5.891  13.040 -0.1675 -0.1346 -0.0581
 2090W        W18937   1.436   2.695   3.365  0.2664  0.2020  0.0513
 2091W        W18938  16.707  13.815  11.517  0.0431 -0.5103  0.3230
 2092W        W18939  19.205  10.230  12.744  0.1582  0.0312 -0.0654
 2093W        W18940  12.315  17.402  11.900  0.3142  0.0323  0.0172
 2094W        W18941   3.263   1.430   4.204  0.0098 -0.0554 -0.1669
 2095W        W18942  18.470   4.206   0.017  0.0437 -0.0137  0.1972
 2096W        W18943   1.267  12.290   0.610  0.0511  0.3237 -0.0753
 2097W        W18944  13.905   2.228   2.600 -0.1087  0.0827  0.0932
 2098W        W18945  16.252  10.054  12.958  0.1863 -0.4077  0.3469
 2099W        W18946   7.786  19.036   0.728 -0.2237 -0.1926 -0.1805
 2100W        W18947  18.578  13.217   2.022  0.0464 -0.1200  0.1426
 2101W        W18948   2.105   2.556   1.974  0.1453 -0.4112 -0.3205
 2102W        W18949   2.923  10.778   2.789  0.0656  0.1701 -0.0529
 2103W        W18950  13.223  15.605   5.194 -0.2042 -0.1807  0.0735
 2104W        W18951   6.734  15.121   0.426  0.0701 -0.0143 -0.3389
 2105W        W18952   1.560  17.064   3.561  0.0668  0.0535 -0.1296
 2106W        W18953   6.345  14.933  13.529 -0.2229  0.0605  0.0949
 2107W        W18954   8.529   2.889   2.689  0.0814  0.0834 -0.0617
 2108W        W18955  11.417  12.909   0.840  0.0243 -0.1446 -0.2151
 2109W        W18956   8.233  16.310  13.551  0.1327  0.0404  0.1963
 2110W        W18957  12.895   9.901   0.296  0.2946 -0.3053 -0.3110
 2111W        W18958   1.065   5.903   2.407  0.4943 -0.2018 -0.1275
 2112W        W18959  11.419  17.752  13.064 -0.2197  0.1495 -0.1447
 2113W        W18960  19.656   1.888  11.032  0.0677 -0.0408  0.2489
 2114W        W18961   5.121  17.937   1.756 -0.1966 -0.1172 -0.3230
 2115W        W18962  17.874   5.662  10.754  0.2394  0.4103  0.1264
 2116W        W18963  19.848   7.641   3.488  0.2993 -0.0450 -0.2700
 2117W        W18964   3.076   4.461  12.755  0.0482 -0.0125 -0.1851
 2118W        W18965  15.136   3.694  13.511  0.1944  0.2217  0.1363
 2119W        W18966   4.213  14.290   2.121 -0.0676 -0.2941  0.0639
 2120W        W18967   3.685  14.773  11.458 -0.2525 -0.0950  0.1854
 2121W        W18968   2.888   3.299  11.850 -0.2037 -0.0347 -0.0606
 2122W        W18969   4.786   9.341  11.281  0.1598 -0.5742  0.0639
 2123W        W18970   1.810  15.226   1.837 -0.2824 -0.0936 -0.0069
 2124W        W18971  10.570   1.926   0.259  0.2059 -0.1827 -0.0016
 2125W        W18972  12.235   8.421   0.497 -0.0704 -0.2989  0.2512
 2126W        W18973  19.020   3.041   0.621  0.0778  0.0627  0.2376
 2127W        W18974   5.427   1.006   4.958 -0.1708  0.1514  0.2881
 2128W        W18975   0.900  18.912  13.932 -0.2334 -0.0741  0.1248
 2129W        W18976   3.172  14.268   2.732 -0.0406 -0.0224 -0.1109
 2130W        W18977   9.034  14.833  14.067 -0.2867  0.1030  0.1926
 2131W        W18978   0.898  12.822  13.895 -0.3154  0.0201 -0.1628
 2132W        W18979  14.717  12.817   0.152 -0.1660 -0.1031 -0.1528
 2133W        W18980  16.740   0.972  12.203 -0.2627  0.3064  0.2730
 2134W        W18981   8.461  15.738  12.152  0.0311 -0.1885 -0.0475
 2135W        W18982   9.572   3.615   0.142 -0.0625 -0.3677  0.4603
 2136W        W18983  10.682  14.609   3.595  0.0613 -0.0561  0.1350
 2137W        W18984   1.793   5.592  13.263 -0.0327  0.2040 -0.0671
 2138W        W18985  17.089  10.719   3.779  0.0016  0.0263  0.4063
 2139W        W18986   0.672  11.455  12.575  0.1299 -0.0604  0.2018
 2140W        W18987   5.906  15.481   3.354 -0.1286 -0.0331  0.3946
 2141W        W18988  17.890   5.763   3.767  0.0750 -0.1986  0.0263
 2142W        W18989  12.687  19.375   4.344  0.2813 -0.2257 -0.4398
 2143W        W18990   8.688   4.437   4.151  0.1612  0.2886 -0.1018
 2144W        W18991  17.384  13.650   2.572 -0.0138 -0.1210  0.4074
 2145W        W18992   0.915   0.170  13.945 -0.0609 -0.0501  0.0568
 2146W        W18993  19.655   3.040  13.617 -0.0804  0.1315 -0.0640
 2147W        W18994   1.027  19.743  10.480  0.1497 -0.1189  0.0661
 2148W        W18995   1.832   9.137  10.829  0.0357  0.0492 -0.0967
 2149W        W18996  12.406   4.332   1.943 -0.1009 -0.0483 -0.0780
 2150W        W18997   4.003   7.257   5.156  0.0914  0.1840 -0.0032
 2151W        W18998  19.343  14.182   9.481  0.2932 -0.1152 -0.0074
 2152W        W18999   4.889  17.001   9.706  0.1413 -0.1730  0.2633
 2153W        W19000   5.268  16.525  12.987 -0.0091 -0.0276 -0.0626
 2154W        W19001  13.082   5.879  11.487  0.2369 -0.2011 -0.1968
 2155W        W19002   1.775  16.790   0.710  0.0205  0.3190 -0.1171
 2156W        W19003   0.771  19.553   1.678  0.2874  0.2268 -0.0579
 2157W        W19004  12.781   7.403  10.621 -0.1382  0.1513  0.1657
 2158W        W19005   0.157  19.071  13.872  0.1610  0.2115  0.4468
 2159W        W19006  16.251  17.660   4.259 -0.1078 -0.2096  0.0096
 2160W        W19007   4.043  15.873  13.594 -0.0734  0.0912 -0.0424
 2161W        W19008  19.383  10.366   9.552  0.2692 -0.1097  0.0677
 2162W        W19009  10.336  15.553  10.269 -0.0396 -0.1854 -0.3041
 2163W        W19010  11.386  11.438   9.690 -0.0647  0.0222 -0.0223
 2164W        W19011   4.969   5.496   4.141  0.1705 -0.1770 -0.0207
 2165W        W19012   9.475   2.276   2.511 -0.1297 -0.1397  0.0935
 2166W        W19013  18.322   6.501   2.170  0.0806  0.0801 -0.1724
 2167W        W19014  10.521   5.267   1.627 -0.0622  0.0617  0.2452
 2168W        W19015   7.045  14.731  12.233  0.1245 -0.0810  0.2614
 2169W        W19016  18.751   0.043   2.147  0.2617  0.0458  0.2417
 2170W        W19017   5.452   2.084  11.194 -0.1743 -0.0462  0.0095
 2171W        W19018   9.797   6.693   3.502  0.0273 -0.0180 -0.0546
 2172W        W19019   9.368   2.269  11.651  0.2713  0.0640 -0.1346
 2173W        W19020   6.076   1.866   9.055  0.1080  0.3776 -0.1335
 2174W        W19021   8.262   8.658   3.022  0.2759  0.0281 -0.1265
 2175W        W19022   3.526   8.557  11.957  0.2990 -0.1981  0.4339
 2176W        W19023   7.042   1.218  10.901 -0.1562  0.2365 -0.1603
 2177W        W19024   4.996  17.328   2.825 -0.1825 -0.0676  0.0722
 2178W        W19025  16.255   1.759   0.277  0.0775  0.2618 -0.4696
 2179W        W19026  16.336  18.538   3.554 -0.3426  0.2378 -0.0647
 2180W        W19027   3.142  14.942  13.433  0.1788 -0.0619  0.0372
 2181W        W19028   0.624  15.907   2.229 -0.0468  0.4206  0.0567
 2182W        W19029   3.504   6.544   4.496 -0.0853 -0.0805  0.1395
 2183W        W19030   0.071  17.082  14.025  0.2058 -0.1849  0.0067
 2184W        W19031   6.316   6.341   0.564  0.0473 -0.0075 -0.1463
 2185W        W19032   0.070   1.372   2.356  0.1142 -0.1215 -0.0859
 2186W        W19033   2.124   7.919   2.134  0.1775 -0.2105  0.1252
 2187W        W19034   3.902   1.433   0.563 -0.1114 -0.1192  0.0585
 2188W        W19035  18.018   5.405  11.193 -0.3007  0.0024 -0.2042
 2189W        W19036   9.445  19.412  13.632  0.1681 -0.2565 -0.4003
 2190W        W19037  18.614  14.063   4.599  0.1138  0.2907 -0.1091
 2191W        W19038  19.596   9.789   3.635  0.0467  0.1541  0.2861
 2192W        W19039   3.934  16.250   3.321  0.1770  0.2663  0.1225
 2193W        W19040   9.224  19.023  12.089 -0.0953 -0.0985  0.0851
 2194W        W19041  15.028  11.342   0.360  0.2587 -0.1689  0.1329
 2195W        W19042  17.068  14.276  10.454 -0.1273  0.2327 -0.1139
 2196W        W19043   8.276   4.506   2.025 -0.0423 -0.1421 -0.0429
 2197W        W19044  13.021   3.146   5.436  0.1040  0.3529  0.0668
 2198W        W19045  13.755  11.776  12.071  0.4414  0.2082 -0.1650
 2199W        W19046  16.508  17.991  11.270  0.0163 -0.2952 -0.1097
 2200W        W19047   0.947  12.502   1.450  0.0025 -0.4641  0.2957
 2201W        W19048   5.206  14.742  12.207  0.0806 -0.0390  0.1628
 2202W        W19049  15.662   0.641   3.978 -0.0521  0.2240  0.3087
 2203W        W19050   4.246  14.951   2.498  0.0354 -0.2541  0.2721
 2204W        W19051   4.074  19.591   2.682  0.1139  0.0852  0.0259
 2205W        W19052  10.635  11.157   4.169 -0.0064  0.1304 -0.4167
 2206W        W19053  12.557   3.881  13.293  0.0703  0.0258 -0.2576
 2207W        W19054  14.601  15.656   0.421  0.3731  0.1539 -0.0306
 2208W        W19055   3.659  15.013  13.287  0.1869 -0.2889  0.0266
 2209W        W19056   6.687   0.654  12.557 -0.0704  0.0009 -0.2581
 2210W        W19057  13.733  18.708  12.633  0.0126  0.0812  0.0892
 2211W        W19058   4.328   5.771   1.508  0.0981 -0.0270 -0.2602
 2212W        W19059  13.215   1.791   3.093 -0.0510  0.3710 -0.1274
 2213W        W19060  10.593  16.992   9.041  0.0799 -0.0252 -0.0488
 2214W        W19061   2.241   2.631   2.450  0.2839  0.4420 -0.0772
 2215W        W19062  13.036  18.634   3.798 -0.0449 -0.0692  0.0770
 2216W        W19063  18.114  11.987  10.064 -0.4464 -0.0606 -0.1446
 2217W        W19064  17.430  14.469  12.546  0.1919 -0.2427 -0.3750
 2218W        W19065   2.293   7.618  13.441 -0.2637  0.1001 -0.2283
 2219W        W19066  19.142   9.525   3.613  0.3413 -0.2332  0.2305
 2220W        W19067  11.304   5.176  13.881 -0.2608 -0.0526  0.0062
 2221W        W19068   1.712   2.973   3.726  0.0761 -0.1961 -0.0104
 2222W        W19069   6.325  17.850  12.595 -0.1439 -0.0723  0.1453
 2223W        W19070  16.937  15.361  11.362 -0.0288  0.1584 -0.0523
 2224W        W19071  16.399  16.385  13.259  0.0444 -0.0689  0.4522
 2225W        W19072   5.154   5.625  11.389  0.2962 -0.0561  0.0755
 2226W        W19073  16.092  19.709  10.933 -0.2198  0.2337  0.0643
 2227W        W19074   4.986   4.381   3.464 -0.1596 -0.2637  0.2934
 2228W        W19075   7.888  10.523  10.083 -0.3630  0.0410  0.1484
 2229W        W19076   7.015  15.494  13.414 -0.1302  0.1797 -0.1134
 2230W        W19077   0.559  19.859  13.694 -0.0553  0.0272  0.3427
 2231W        W19078   2.125  13.226  13.433  0.1110 -0.1787 -0.0004
 2232W        W19079   0.159  11.393  10.020 -0.1004  0.1769 -0.0211
 2233W        W19080   9.220   3.982  12.320 -0.3880 -0.0231  0.0781
 2234W        W19081  17.027   1.629  13.759 -0.1193 -0.0108 -0.3155
 2235W        W19082  16.756   8.383  13.221 -0.2482 -0.1236 -0.1208
 2236W        W19083   2.218  13.291   0.968 -0.0457  0.0266 -0.1449
 2237W        W19084  13.300   6.420   0.908  0.1592 -0.2264  0.2523
 2238W        W19085  18.360   5.853   3.749 -0.3073 -0.3020 -0.0291
 2239W        W19086  19.185  10.238  10.988  0.1867  0.1481 -0.0814
 2240W        W19087   0.732   8.199   9.937 -0.0371 -0.0079 -0.1376
 2241W        W19088  13.751   6.038   5.244  0.1647  0.0052  0.0314
 2242W        W19089   0.242   4.465  11.572  0.1859 -0.0682  0.2288
 2243W        W19090  11.360   4.139   3.103 -0.0357  0.0197 -0.2255
 2244W        W19091  15.579   5.679   3.245 -0.2209  0.2891  0.1811
 2245W        W19092  14.331  15.374   3.957 -0.0960  0.2880 -0.0787
 2246W        W19093  11.222  19.142   0.658  0.0008  0.2680 -0.0079
 2247W        W19094   1.081  16.621   2.797  0.1641  0.3333 -0.1060
 2248W        W19095  13.678  15.413  12.894 -0.2171 -0.0230  0.1221
 2249W        W19096   3.506  14.744   3.808  0.2010 -0.0105 -0.1260
 2250W        W19097   9.563  13.183   3.177 -0.5036 -0.0756 -0.3283
 2251W        W19098   0.286   7.799  13.669  0.0291  0.0652  0.0835
 2252W        W19099   4.684  19.730  10.595 -0.1316 -0.2821 -0.3348
 2253W        W19100  17.322   0.128  14.207 -0.0119  0.0071 -0.0719
 2254W        W19101   0.277  18.173  10.430 -0.1646 -0.0189  0.1218
 2255W        W19102  18.745   3.500   2.372  0.0186 -0.0488  0.1210
 2256W        W19103   8.953  10.792  14.111 -0.3226 -0.0427  0.0894
 2257W        W19104  11.246   7.448   4.053  0.2151  0.0257  0.0500
 2258W        W19105  11.270  15.900   1.684  0.0395 -0.0469 -0.2937
 2259W        W19106   0.746  10.627  13.414 -0.1983 -0.0368 -0.2077
 2260W        W19107   5.455   7.454  11.894  0.1034  0.1451  0.2614
 2261W        W19108   9.646  18.604   3.770  0.0895  0.2528  0.0122
 2262W        W19109   2.332  11.101  14.092 -0.1378 -0.3203  0.2346
 2263W        W19110  19.640   3.097  13.030 -0.0274  0.0660  0.0886
 2264W        W19111   4.292  10.112  11.774  0.1032  0.1177  0.1035
 2265W        W19112  12.647  10.737   2.327  0.1816  0.0275 -0.1406
 2266W        W19113  10.760   1.797   1.478  0.1253  0.0150  0.1109
 2267W        W19114   4.288   9.777   1.769  0.0473 -0.1118 -0.1309
 2268W        W19115  11.144  18.738  13.996  0.2757 -0.0747  0.2242
 2269W        W19116   4.754  11.748   0.022 -0.0143 -0.3192  0.1100
 2270W        W19117   3.465   7.078  11.108  0.0429  0.0610  0.3176
 2271W        W19118   6.585  17.621   8.877 -0.1404 -0.0307  0.1762
 2272W        W19119   5.407   5.917  12.795 -0.1174 -0.1401 -0.0520
 2273W        W19120   9.253  13.807  12.840 -0.1605 -0.0185  0.0598
 2274W        W19121   3.427   6.613   3.692 -0.0071 -0.1068 -0.0832
 2275W        W19122   0.362  16.166  13.583 -0.0878 -0.1394 -0.0338
 2276W        W19123   7.540  10.613   1.309  0.0659  0.0018  0.1926
 2277W        W19124  15.471   9.836   3.421 -0.4311 -0.2332  0.2249
 2278W        W19125  11.521  13.098   1.274 -0.2802  0.4547  0.4989
 2279W        W19126   5.928  15.116   3.019  0.1730  0.1410  0.1864
 2280W        W19127  14.714   5.941  11.572 -0.2089 -0.0474  0.0072
 2281W        W19128  12.982   6.774   2.813 -0.0031  0.0521  0.2649
 2282W        W19129  14.109  19.012  13.915  0.0282 -0.2152  0.4259
 2283W        W19130   3.669  15.403  12.107 -0.0553 -0.3644 -0.3881
 2284W        W19131   0.431  13.998  10.476  0.0025  0.1655  0.1900
 2285W        W19132   4.202   0.491   3.374  0.1516 -0.4392 -0.0498
 2286W        W19133   6.004   7.011  10.362  0.3998 -0.1496  0.0172
 2287W        W19134  19.078   1.945   0.786 -0.0546 -0.3482  0.2132
 2288W        W19135  14.138  12.215   4.508  0.0020  0.3944 -0.1926
 2289W        W19136  10.499  19.617  12.336 -0.2070 -0.2257 -0.0797
 2290W        W19137   5.072  16.944  10.615 -0.0358  0.0186 -0.2589
 2291W        W19138   3.374   0.869  14.177 -0.0711 -0.1242 -0.0162
 2292W        W19139  11.974   1.513  10.113  0.1480 -0.0222  0.1132
 2293W        W19140  16.556   8.105  11.653 -0.0247  0.3167 -0.5038
 2294W        W19141  19.211  12.127  11.590 -0.0080 -0.0817 -0.2131
 2295W        W19142   0.485   6.132   2.902 -0.3023  0.0769  0.4540
 2296W        W19143   9.601  18.847  11.796 -0.2791  0.0029  0.1302
 2297W        W19144  16.902   6.839  13.588  0.0955 -0.0638 -0.3889
 2298W        W19145  15.686  16.882  10.202  0.0656 -0.1142  0.0001
 2299W        W19146  11.920  17.221   4.984 -0.1898  0.1442  0.1104
 2300W        W19147   5.945  10.636   3.111  0.0024  0.0376  0.0324
 2301W        W19148  19.114   7.048   1.091  0.0914  0.0067 -0.2904
 2302W        W19149   3.475  17.990  11.401  0.1732  0.0234 -0.0510
 2303W        W19150  14.141   8.112   1.327 -0.0329 -0.0012 -0.1380
 2304W        W19151  16.533  13.690   3.849 -0.0181  0.1834 -0.2400
 2305W        W19152  12.717   7.923  10.345  0.0964  0.2903  0.0016
 2306W        W19153   7.630  11.441   0.953 -0.1510  0.3188 -0.1469
 2307W        W19154   7.032   8.276   3.778 -0.1175 -0.2251 -0.3316
 2308W        W19155  18.775  12.447  11.109 -0.1321 -0.1141  0.0702
 2309W        W19156   5.067  11.974  10.047  0.1051  0.0178 -0.1927
 2310W        W19157   0.183  15.902  12.488  0.1604  0.2865 -0.1515
 2311W        W19158   7.959   1.356   4.633 -0.1803 -0.2440  0.1019
 2312W        W19159   1.520   2.171   1.560 -0.0613  0.4674 -0.2997
 2313W        W19160   6.803  14.414   1.523  0.1705 -0.0062 -0.1185
 2314W        W19161  12.976  17.825  11.655  0.0691 -0.2629  0.1879
 2315W        W19162  19.515  16.917   2.321  0.2078  0.1882 -0.4915
 2316W        W19163  15.558  13.102  12.127 -0.1234 -0.0761 -0.1688
 2317W        W19164   5.509  16.837  12.692 -0.0270 -0.1015  0.0473
 2318W        W19165  19.087  19.238  13.113  0.0722  0.0162 -0.0326
 2319W        W19166  12.005  13.520  14.230  0.0924  0.1926  0.3924
 2320W        W19167  17.851   7.760   1.998 -0.4820 -0.0279  0.1051
 2321W        W19168  17.151  11.215  10.715  0.0800 -0.1322  0.2909
 2322W        W19169  14.642  19.858   1.815  0.1835 -0.0357 -0.2440
 2323W        W19170  13.754   9.408   4.491  0.2580 -0.0885  0.3010
 2324W        W19171  13.282   8.568   0.136  0.0994 -0.1895 -0.2149
 2325W        W19172   6.584   4.735  13.905 -0.1419  0.1189  0.0712
 2326W        W19173   0.600  16.058   5.133 -0.0849  0.3054  0.0565
 2327W        W19174  14.289   3.254  12.463  0.1827 -0.0482  0.0352
 2328W        W19175  19.193   4.885  14.036  0.2848 -0.0476  0.2151
 2329W        W19176   4.794  10.847  11.524 -0.3545  0.0511 -0.1183
 2330W        W19177   0.185   0.468   3.579 -0.0509 -0.0759  0.0651
 2331W        W19178   7.417  13.535   2.074  0.2035 -0.0297  0.0284
 2332W        W19179   4.713  11.288  11.287 -0.3989 -0.1757 -0.0362
 2333W        W19180   6.570  16.650  11.968 -0.3613 -0.0812  0.1629
 2334W        W19181   1.111   7.290  12.006 -0.1228  0.2899 -0.1727
 2335W        W19182  15.590  14.697  11.453 -0.0161 -0.0910  0.2044
 2336W        W19183  14.191  14.665  11.614  0.0575 -0.0329  0.1616
 2337W        W19184   5.712  11.369  10.552 -0.0707  0.1328 -0.2520
 2338W        W19185  14.718   5.686   0.836  0.1694  0.0165  0.0053
 2339W        W19186   6.067  11.296  13.275 -0.1684  0.0931 -0.1564
 2340W        W19187   6.143   6.397   2.767 -0.0992  0.0734 -0.3884
 2341W        W19188  14.799   3.828  10.972  0.2383 -0.0363 -0.0531
 2342W        W19189  19.897  12.599   2.498 -0.0741 -0.0308  0.0711
 2343W        W19190   8.811   1.573  12.655 -0.2297 -0.0269 -0.0005
 2344W        W19191   0.646   5.831   4.231  0.1756 -0.0911 -0.2064
 2345W        W19192   8.146  12.552   1.717  0.1049  0.3369 -0.1208
 2346W        W19193  17.672   5.661   0.648  0.1297 -0.1032  0.3693
 2347W        W19194  19.159  12.305   0.719 -0.2198 -0.2136  0.0301
 2348W        W19195  10.242  11.758   1.914 -0.4815 -0.0813  0.1215
 2349W        W19196  16.580   3.091   4.421  0.0405 -0.3337  0.1013
 2350W        W19197   5.765  16.487  13.077  0.2811  0.0372  0.1625
 2351W        W19198   0.409   4.773  11.210  0.1643  0.0886 -0.1262
 2352W        W19199  14.545  12.868   2.612  0.0580  0.0487  0.0560
 2353W        W19200  12.006   4.759   2.554 -0.0426 -0.1077 -0.0318
 2354W        W19201   5.277   4.953  13.293  0.0765  0.0469 -0.4666
 2355W        W19202  14.372   6.636   0.589  0.1714  0.0342  0.2752
 2356W        W19203   5.619  14.609   3.757  0.1961 -0.3204  0.0383
 2357W        W19204   8.491   7.598  12.281 -0.2696  0.3087  0.3239
 2358W        W19205   9.054  18.844  10.858 -0.0227 -0.2056  0.0379
 2359W        W19206   5.760   2.256   2.958 -0.1028  0.0094 -0.1575
 2360W        W19207  16.208   1.755  14.095 -0.0049  0.2965 -0.0302
 2361W        W19208  16.519  11.968  11.735 -0.2791  0.0751  0.1335
 2362W        W19209  10.573   6.145   2.799  0.0476 -0.3292  0.1414
 2363W        W19210  14.114  12.121  10.507  0.1033  0.0070  0.1350
 2364W        W19211  16.801   1.278   4.325  0.1547 -0.1356  0.0908
 2365W        W19212  13.644   2.525   4.955  0.4120 -0.1565 -0.1819
 2366W        W19213  11.769   6.352   3.704 -0.1885  0.0159 -0.1499
 2367W        W19214   3.142   0.869   3.916 -0.1337  0.0958  0.1734
 2368W        W19215  18.830  12.333  13.134 -0.0279  0.0568  0.0479
 2369W        W19216  13.021   8.614   2.515 -0.0235 -0.1225  0.1596
 2370W        W19217   2.564   0.180   3.056  0.0890 -0.2534  0.2154
 2371W        W19218   1.395   5.866   4.622  0.0783  0.0890 -0.1180
 2372W        W19219  17.551   0.964   0.519  0.0597 -0.2026 -0.0924
 2373W        W19220   2.549  11.675   2.027 -0.2034 -0.1292 -0.0915
 2374W        W19221   2.227  19.836  10.958  0.2465 -0.1698  0.4529
 2375W        W19222  14.918  14.762  11.717  0.3124  0.2541 -0.2100
 2376W        W19223  11.223  13.919   0.675  0.1179  0.0246  0.0369
 2377W        W19224   4.867   6.636   4.258  0.3637 -0.1630  0.2162
 2378W        W19225  15.430  19.519   1.267  0.1619  0.2125 -0.0444
 2379W        W19226  15.069   8.200  12.429 -0.2422 -0.0258  0.0529
 2380W        W19227  19.555  18.151   3.205  0.1576 -0.1485 -0.0064
 2381W        W19228  10.816  13.528   1.893 -0.0351  0.2293 -0.0664
 2382W        W19229   2.915  13.584   2.475  0.0611 -0.0804 -0.2080
 2383W        W19230  16.881  16.546  10.553 -0.1233 -0.3283  0.0684
 2384W        W19231  18.384  17.329   0.278 -0.0590 -0.2115 -0.2319
 2385W        W19232  19.611  14.972  13.687 -0.1480 -0.0595  0.2060
 2386W        W19233   5.773   9.779  12.809  0.1132  0.2428  0.0169
 2387W        W19234   8.235   4.059   1.177 -0.2080 -0.0446 -0.0321
 2388W        W19235   2.902  19.045  12.177 -0.1046 -0.0701 -0.0881
 2389W        W19236   6.456   0.669   2.793  0.0343  0.0337  0.2780
 2390W        W19237  13.191   9.132  12.188  0.0998  0.1203  0.1398
 2391W        W19238  10.693  12.547   0.914  0.0102 -0.1547  0.3863
 2392W        W19239  13.170   3.326  10.797 -0.2353 -0.0075  0.0564
 2393W        W19240  16.958   4.808   3.615 -0.2102  0.1485  0.3834
 2394W        W19241   2.628  17.625   2.604 -0.2393  0.0267  0.0917
 2395W        W19242  12.596   1.638  12.708 -0.1504  0.2433 -0.1569
 2396W        W19243   2.021  12.600   4.742 -0.1426  0.0254 -0.3553
 2397W        W19244  15.038  14.670   1.555 -0.1947 -0.4056  0.1312
 2398W        W19245  13.149   4.886   0.546  0.0189 -0.2007 -0.2055
 2399W        W19246   2.274   4.736   0.058 -0.0327 -0.0373  0.0523
 2400W        W19247  10.141   4.548  12.127  0.1104  0.0264 -0.1794
 2401W        W19248   0.197  12.790   5.057  0.1448  0.0718  0.1663
 2402W        W19249   1.968   8.402   1.058 -0.0604 -0.0307 -0.1422
 2403W        W19250   7.597   8.898   0.057 -0.2249  0.2154  0.1140
 2404W        W19251  11.020   7.199  12.073  0.3290 -0.0322  0.0705
 2405W        W19252  10.441  16.041  12.141 -0.2513  0.2639  0.1359
 2406W        W19253   8.088  14.210  12.745 -0.0547 -0.0737  0.1118
 2407W        W19254   1.875   6.060  13.472 -0.1602  0.2871 -0.0113
 2408W        W19255  18.540  11.536  10.929 -0.1976 -0.0210 -0.1988
 2409W        W19256   3.772   4.559   0.622  0.0204  0.0667  0.2816
 2410W        W19257   9.178   2.621   4.323 -0.0026 -0.3892 -0.0388
 2411W        W19258  12.083   7.663   4.299  0.0929 -0.0178  0.0836
 2412W        W19259   7.930  15.128   4.572  0.0699 -0.0549  0.1116
 2413W        W19260   6.331   2.255  14.264 -0.1812  0.2690  0.2897
 2414W        W19261  17.686  16.328  11.063 -0.1390  0.1214  0.1425
 2415W        W19262  11.303   2.544  12.133 -0.1935  0.4476 -0.1011
 2416W        W19263  19.822  14.945   3.675  0.4867  0.0645  0.1776
 2417W        W19264   0.446  18.855  14.184 -0.0717  0.0364  0.0652
 2418W        W19265   1.851   7.768  11.593 -0.0539 -0.1266  0.1332
 2419W        W19266  11.132  19.895   3.174 -0.0490  0.3018 -0.0906
 2420W        W19267   0.160  13.297   1.880  0.2245 -0.1190  0.1487
 2421W        W19268  16.853   6.131   0.148 -0.0514 -0.0676 -0.0112
 2422W        W19269   7.846   9.041   1.055  0.2257  0.3927  0.1650
 2423W        W19270  10.596  10.415   3.600  0.1722 -0.1425 -0.3632
 2424W        W19271  11.437   2.359   0.013  0.1797 -0.2209  0.2356
 2425W        W19272   3.040  19.796   2.862  0.1335 -0.1111 -0.0862
 2426W        W19273   5.414  14.788  13.607  0.0672 -0.0783  0.2691
 2427W        W19274  12.240  16.498  12.842  0.0512 -0.0271  0.1334
 2428W        W19275   2.668   0.087  11.392 -0.1490 -0.0135  0.1516
 2429W        W19276   3.097  10.032  13.996 -0.1111  0.1187 -0.2531
 2430W        W19277   8.682   2.924  11.101  0.0185 -0.1029 -0.0105
 2431W        W19278  12.355  15.236   4.104 -0.1085  0.0738  0.1617
 2432W        W19279  10.271  13.494  11.603 -0.0739 -0.2731  0.0751
 2433W        W19280   7.490  11.992   1.018 -0.0673 -0.0860  0.2125
 2434W        W19281  15.057  15.682   0.408  0.0802  0.0390 -0.0303
 2435W        W19282  14.607   4.343   0.941 -0.2370 -0.3720  0.0810
 2436W        W19283   9.722   6.129   0.058 -0.2257  0.0127 -0.2306
 2437W        W19284   2.234  19.499   9.745 -0.2646 -0.1747 -0.0596
 2438W        W19285   7.832  12.692   4.306 -0.1914 -0.0952  0.0786
 2439W        W19286  16.681   4.618  10.042 -0.1201 -0.0335 -0.2937
 2440W        W19287   8.608  13.448   1.657 -0.3269 -0.1397  0.0125
 2441W        W19288  11.978   4.497  13.993  0.3788 -0.1640  0.1303
 2442W        W19289   7.285   6.137  13.469 -0.2258  0.0817 -0.1278
 2443W        W19290   4.357   4.832   2.192 -0.0668 -0.0208 -0.3846
 2444W        W19291   6.174  17.286  12.603 -0.0339  0.3147  0.1791
 2445W        W19292  15.260  17.654   2.953  0.4211 -0.0610 -0.2273
 2446W        W19293  12.815  14.583   5.046  0.0215  0.0746 -0.2345
 2447W        W19294   8.496  18.929   3.033 -0.0072 -0.0658  0.1742
 2448W        W19295   9.334   1.849  11.998  0.3518  0.0009  0.0855
 2449W        W19296  13.261   0.490  13.822 -0.1491  0.0883  0.3854
 2450W        W19297  10.179  18.660  11.166  0.0459 -0.0059 -0.0104
 2451W        W19298  13.386  18.076   0.048 -0.2982  0.0133 -0.2694
 2452W        W19299   9.569  16.590  13.372  0.1896 -0.0102  0.0277
 2453W        W19300  18.810  19.031  12.454  0.0967  0.1615 -0.2589
 2454W        W19301   9.495  11.199   3.857  0.1867 -0.0549  0.0035
 2455W        W19302   3.560   5.771   3.071  0.0914  0.1370 -0.0751
 2456W        W19303  17.617   3.330   9.980 -0.0985  0.0832 -0.0163
 2457W        W19304   9.852   2.526   2.646 -0.1046 -0.1552 -0.0579
 2458W        W19305  15.176   6.323  12.635  0.1530  0.1116 -0.0178
 2459W        W19306  10.575  16.505   3.480 -0.0815  0.1256  0.0653
 2460W        W19307   7.316   9.454  10.709 -0.0277 -0.2137 -0.1846
 2461W        W19308  16.842   2.039   2.732 -0.3336 -0.1100  0.0629
 2462W        W19309   5.971   4.770  13.106  0.2655 -0.0993  0.0062
 2463W        W19310  13.460   4.649  12.092  0.1534  0.1192 -0.0452
 2464W        W19311  10.465  14.193   9.981 -0.0940  0.1397 -0.0721
 2465W        W19312  15.845  15.167  14.024 -0.0214 -0.0898 -0.1984
 2466W        W19313  13.777  12.644  12.820  0.1754  0.0636  0.0642
 2467W        W19314  15.928  10.234   3.715  0.0200  0.0297  0.1181
 2468W        W19315  15.402  19.015  13.584  0.2472  0.0309 -0.1034
 2469W        W19316   1.237   3.844   0.943 -0.0658 -0.1331 -0.1368
 2470W        W19317   1.660   6.212   3.390 -0.1936  0.1257  0.1110
 2471W        W19318  11.097   4.800  13.316  0.0495  0.1938 -0.2330
 2472W        W19319  16.847  14.276   4.865 -0.0531  0.1437 -0.0925
 2473W        W19320   6.706   3.475   1.126 -0.2082 -0.0004  0.2454
 2474W        W19321   8.808  13.189  13.704  0.2202  0.2883  0.2836
 2475W        W19322   5.178   1.849  14.204 -0.3557 -0.0615  0.1273
 2476W        W19323   9.563   5.981  11.574 -0.1891  0.0246  0.2259
 2477W        W19324  19.732   1.342  14.087 -0.1825  0.1564 -0.1207
 2478W        W19325   2.122  17.794  10.000  0.0039  0.1348  0.0615
 2479W        W19326   6.338   7.329   0.923  0.0022  0.0430 -0.0462
 2480W        W19327  18.328   0.670  11.082 -0.4118  0.1958 -0.0488
 2481W        W19328  10.489   4.143  11.107 -0.0797 -0.0784  0.0353
 2482W        W19329   2.305   7.338  10.424 -0.1809  0.2855 -0.0744
 2483W        W19330  19.722   7.531  10.344 -0.2781  0.0276  0.1717
 2484W        W19331   4.512   2.930   4.082  0.1489  0.1265 -0.1236
 2485W        W19332   0.266  12.375   0.090 -0.0102  0.6183  0.0038
 2486W        W19333   2.757   6.095   1.841  0.4711  0.1072 -0.1313
 2487W        W19334   6.848  11.215  12.862  0.0206  0.2477 -0.3154
 2488W        W19335  14.913   6.383   1.840 -0.1173 -0.3981 -0.1574
 2489W        W19336   9.976   3.695  13.485  0.0128 -0.1986  0.1747
 2490W        W19337  11.890  13.935  10.230 -0.0366  0.2863  0.2587
 2491W        W19338  10.395   6.337   0.731 -0.0346  0.0322  0.0075
 2492W        W19339   5.935  16.093   4.838  0.0075  0.0265  0.3404
 2493W        W19340   4.088   1.904  14.266  0.1477 -0.0212  0.1539
 2494W        W19341   2.018   0.847  10.233 -0.3943  0.0916 -0.3345
 2495W        W19342   7.752  12.922   3.832 -0.2765 -0.1385 -0.1195
 2496W        W19343  19.702   1.100  12.196 -0.1842 -0.0799  0.0310
 2497W        W19344   9.452   6.148  13.062  0.0450 -0.0398 -0.2482
 2498W        W19345   9.673  10.174   0.306  0.2461  0.0563  0.0863
 2499W        W19346  19.788  10.348  11.438  0.3123  0.1453  0.0395
 2500W        W19347  16.065  14.823   4.509  0.1224 -0.1465  0.0819
 2501W        W19348  18.032  15.948  10.733 -0.3044 -0.4963  0.0222
 2502W        W19349   8.117   4.303   2.605 -0.3180  0.1223  0.0506
 2503W        W19350  11.933  14.622   4.577 -0.1722  0.0112 -0.0878
 2504W        W19351  11.694   5.526  11.624  0.0216  0.0892  0.1784
 2505W        W19352  17.111  14.728   3.329 -0.1326 -0.2388  0.0079
 2506W        W19353  12.467  12.186   4.676 -0.3149  0.1398 -0.1592
 2507W        W19354   5.820  12.962  11.451  0.4307 -0.0182 -0.4215
 2508W        W19355   1.741  16.922  11.577  0.4106  0.1281 -0.4630
 2509W        W19356   1.193   6.833  12.118 -0.1396  0.3348 -0.4960
 2510W        W19357   5.835  19.710   2.763 -0.1361  0.3234 -0.3545
 2511W        W19358  11.539  10.925  13.925  0.1879 -0.0649  0.2679
 2512W        W19359  17.828  15.755   1.131  0.2386 -0.1076  0.1313
 2513W        W19360   9.376   7.979  13.848 -0.1474 -0.1756  0.4148
 2514W        W19361  17.967  17.920   1.154  0.1205  0.3167 -0.1778
 2515W        W19362  18.642   7.967   1.426 -0.4343  0.0125  0.1751
 2516W        W19363  14.781  14.179  13.343 -0.1477  0.0576  0.2238
 2517W        W19364  17.215  10.156   2.341 -0.0580  0.0405  0.0504
 2518W        W19365   7.015   8.171  12.751 -0.0535 -0.1779  0.1115
 2519W        W19366   4.755  10.724  11.074 -0.0600 -0.0099 -0.0105
 2520W        W19367  12.116   0.709   1.050  0.1879  0.2675  0.3201
 2521W        W19368  15.377   6.386  10.498 -0.0184 -0.0010  0.0290
 2522W        W19369   5.207  13.322   1.358  0.1364  0.2194  0.1509
 2523W        W19370   3.290  19.033  10.158 -0.0199 -0.1753 -0.0208
 2524W        W19371   3.606  11.560   0.025 -0.0194 -0.0697 -0.0888
 2525W        W19372  14.553   0.767   3.256 -0.2320 -0.1612 -0.0548
 2526W        W19373  17.336   2.333   4.000 -0.0904 -0.7215 -0.0925
 2527W        W19374  13.590  14.779   4.659  0.0868 -0.1556  0.5044
 2528W        W19375   3.621  16.945   4.815 -0.1683  0.0130  0.2390
 2529W        W19376   3.438  17.600   9.758  0.1955 -0.0869  0.2369
 2530W        W19377  12.175   1.232  11.206 -0.1026  0.0005  0.2078
 2531W        W19378   1.136   6.978   4.342  0.0852  0.3770  0.1625
 2532W        W19379  15.208   1.346   4.190  0.2637 -0.1539 -0.2918
 2533W        W19380  14.570  16.101   2.027  0.0508  0.1156  0.2126
 2534W        W19381   1.403   9.140   3.041 -0.5457 -0.2847  0.2194
 2535W        W19382  11.276  16.233  11.928 -0.0473  0.2730  0.0802
 2536W        W19383  17.505  11.580  10.092  0.2487 -0.1730 -0.0443
 2537W        W19384  11.894  13.245   0.638 -0.0146  0.2556 -0.1755
 2538W        W19385   6.119  17.088   4.457 -0.3085 -0.2889  0.1289
 2539W        W19386   4.763  18.860   2.060 -0.2524 -0.0116  0.0393
 2540W        W19387  15.500  13.309   1.047  0.3209 -0.0046 -0.3180
 2541W        W19388  15.187   2.056  13.007 -0.0723 -0.1271 -0.1039
 2542W        W19389  13.464  13.539  11.219  0.0330 -0.1460 -0.1006
 2543W        W19390   5.543  18.665   3.813  0.1325  0.2546 -0.1575
 2544W        W19391   4.270  13.571   4.282  0.1859  0.3334  0.3176
 2545W        W19392   7.782   9.228  12.437 -0.1762 -0.6411 -0.1879
 2546W        W19393  13.992  13.076   2.533  0.2309 -0.1625  0.2242
 2547W        W19394  14.097   2.481  12.258 -0.0063  0.0384 -0.0317
 2548W        W19395   6.778   7.212   1.904  0.1671 -0.1153 -0.0214
 2549W        W19396   8.298   6.070  10.820  0.3141 -0.1256 -0.0109
 2550W        W19397   7.240   4.016  12.017  0.0963 -0.0066  0.0912
 2551W        W19398  12.174  19.125  10.887  0.2032  0.0160 -0.1878
 2552W        W19399  15.655   0.826  13.951  0.2319  0.0719 -0.0551
 2553W        W19400   7.955  15.794   0.103  0.0638 -0.0942 -0.2435
 2554W        W19401  18.911  18.338   2.585 -0.2689 -0.1004  0.3691
 2555W        W19402  18.240   3.303  12.958  0.1538 -0.0879 -0.0447
 2556W        W19403  17.704  15.936   2.109 -0.1634  0.1330 -0.1338
 2557W        W19404   5.595  19.715  11.839  0.1896  0.1672 -0.1503
 2558W        W19405  15.688   6.430   4.434  0.1695 -0.0842 -0.1257
 2559W        W19406   1.763   1.692  13.018  0.0171  0.1369  0.2331
 2560W        W19407  13.007  18.531   0.530  0.0608 -0.2463  0.1094
 2561W        W19408  18.936  16.815  11.141 -0.2570  0.0717 -0.3052
 2562W        W19409   1.401  18.466   8.921  0.1722  0.2117 -0.0452
 2563W        W19410   3.984   8.955  11.649 -0.3085  0.0686 -0.0952
 2564W        W19411   6.637  10.933   1.221  0.0592 -0.0844  0.0992
 2565W        W19412   1.498   7.851  10.097 -0.0780  0.1477 -0.2709
 2566W        W19413   7.996   8.680   0.286 -0.0477  0.3131 -0.2021
 2567W        W19414  10.502  11.282   0.548  0.3699 -0.1228  0.1905
 2568W        W19415  10.949   2.824   3.674 -0.0333  0.0998 -0.3048
 2569W        W19416  18.602  18.670   1.211  0.2349 -0.0974  0.2127
 2570W        W19417  17.428   4.149   2.749  0.0669 -0.0626  0.0277
 2571W        W19418   5.329  19.467   1.714 -0.0310 -0.1635 -0.2627
 2572W        W19419   2.271   0.243   0.285  0.0137 -0.4091  0.1427
 2573W        W19420  14.490  10.111   4.219 -0.1814 -0.1529  0.1707
 2574W        W19421  17.984   2.124   0.383 -0.1886 -0.0285  0.0477
 2575W        W19422   5.225   4.426   1.595  0.0800 -0.2167 -0.2369
 2576W        W19423   2.346   5.417   3.955  0.2995 -0.0554 -0.1626
 2577W        W19424   0.333   5.039   9.828 -0.0249  0.0222  0.1444
 2578W        W19425  10.912  16.825  11.885  0.1022  0.0105  0.3058
 2579W        W19426   7.775  10.184   2.725  0.0268 -0.0190 -0.1614
 2580W        W19427   6.054   5.542   3.082 -0.2347 -0.5109  0.1746
 2581W        W19428  11.176  14.409  10.586  0.0957  0.1490 -0.4700
 2582W        W19429   0.101  14.478  11.278 -0.3364  0.0793 -0.1090
 2583W        W19430  13.944  11.642  13.369  0.0155  0.1033 -0.0609
 2584W        W19431  14.189  17.297   2.120 -0.0831  0.2380  0.1448
 2585W        W19432   5.865   7.805  11.397  0.0979  0.1310 -0.0225
 2586W        W19433  17.242  15.260  10.071  0.0141  0.2740  0.0296
 2587W        W19434  11.833  16.408   0.442  0.3304  0.1348  0.2386
 2588W        W19435   5.338  16.518  14.124  0.4806 -0.0762 -0.0020
 2589W        W19436   4.609   9.799  11.542 -0.0205 -0.0859 -0.0021
 2590W        W19437  16.662   7.908  12.569  0.0965  0.0954  0.0465
 2591W        W19438  10.454   4.772   9.339  0.1966 -0.1324  0.0335
 2592W        W19439  18.809  15.394   2.818  0.0442  0.1288 -0.1847
 2593W        W19440  17.823  18.196  10.891 -0.0333  0.1919  0.0507
 2594W        W19441   2.596  15.858  13.037 -0.1664  0.0492  0.0646
 2595W        W19442   2.480  14.389  10.917 -0.0626  0.0939  0.1515
 2596W        W19443   6.348  15.895   9.318  0.0019  0.0972  0.3172
 2597W        W19444  14.552  14.714  12.056  0.1287  0.1827 -0.3117
 2598W        W19445   7.014   5.487  11.638 -0.0381 -0.0933  0.1444
 2599W        W19446   2.795  15.707  13.657  0.1160  0.2493  0.0229
 2600W        W19447   6.537   4.654  11.717 -0.2535  0.0308 -0.2166
 2601W        W19448   4.793   0.608  10.134 -0.1842  0.1341 -0.0213
 2602W        W19449  18.379  16.410  12.260 -0.1883  0.0218 -0.0009
 2603W        W19450   1.306  10.624   1.305  0.4989 -0.3237 -0.2040
 2604W        W19451   4.161  10.319  13.144  0.4999  0.3222 -0.0735
 2605W        W19452   9.199   9.562  13.318 -0.0328 -0.0128  0.1013
 2606W        W19453   9.626  17.918   1.619  0.2426 -0.1158  0.2958
 2607W        W19454   8.101  10.108   0.236 -0.2260  0.0070 -0.2058
 2608W        W19455  12.093  14.673  12.316  0.0303 -0.3155 -0.0926
 2609W        W19456  17.376   7.216  11.232 -0.3308 -0.1015  0.5318
 2610W        W19457  15.600  19.903   2.185 -0.0753  0.1811 -0.3589
 2611W        W19458   1.718   6.212   0.973  0.2184  0.0926  0.2416
 2612W        W19459  14.596  13.220  11.336 -0.0998  0.3263  0.0544
 2613W        W19460  15.610   2.937  11.899 -0.1261  0.4115 -0.0041
 2614W        W19461  10.222   5.393  10.222 -0.0349 -0.1437  0.1417
 2615W        W19462   6.559  16.800  13.288 -0.0449  0.1329 -0.0344
 2616W        W19463  11.621  13.393  13.617  0.2416  0.0424  0.1888
 2617W        W19464  18.828  18.529   1.691 -0.1250 -0.3539 -0.0923
 2618W        W19465  19.788  14.194   0.858  0.2437 -0.0749 -0.1586
 2619W        W19466   1.232   5.837  14.110 -0.1699  0.1968  0.2191
 2620W        W19467   0.793   4.580   3.352 -0.0645  0.0196 -0.1496
 2621W        W19468   7.660   7.291  12.635 -0.0856 -0.1096  0.0051
 2622W        W19469   0.809  10.215  13.115 -0.1447  0.2980 -0.3203
 2623W        W19470  15.410  14.849  10.991  0.4544  0.1063  0.3356
 2624W        W19471   3.021   6.744   3.995 -0.0171  0.0141 -0.2361
 2625W        W19472  10.663  16.693   2.605 -0.1637  0.0500 -0.0244
 2626W        W19473   7.430  16.034  10.237  0.1264  0.3252  0.4695
 2627W        W19474   7.937  18.398  12.145 -0.2724 -0.2435 -0.0392
 2628W        W19475   8.616  18.706   1.039  0.0628 -0.1224  0.2781
 2629W        W19476  18.012   4.760  12.915 -0.2342  0.1430 -0.1394
 2630W        W19477   1.017  16.958  10.197 -0.1381  0.1402  0.3617
 2631W        W19478  12.515   3.371  13.116 -0.2663 -0.2543 -0.2417
 2632W        W19479   1.781   1.435  14.145 -0.0741 -0.1258  0.2475
 2633W        W19480   4.046  16.046  13.129  0.0495 -0.0558  0.1046
 2634W        W19481   6.686  10.075   3.260 -0.0966 -0.1590  0.0294
 2635W        W19482  18.872  17.688   4.547 -0.1761 -0.0894  0.2856
 2636W        W19483  19.568  14.466  12.236  0.1836 -0.3387  0.1045
 2637W        W19484   4.593   1.616  11.754 -0.3264  0.1183  0.2305
 2638W        W19485   8.208   2.588   0.636  0.1788  0.3918 -0.0868
 2639W        W19486   4.315   3.707   0.037 -0.0173 -0.0843  0.0491
 2640W        W19487   7.943   6.705  13.828  0.0345  0.0639 -0.5172
 2641W        W19488  12.647   8.317   2.819  0.0964  0.1844  0.2846
 2642W        W19489   5.336  17.063   0.595 -0.1661  0.1318  0.4503
 2643W        W19490   0.876   6.005   1.305  0.0647 -0.3671 -0.1560
 2644W        W19491  16.326   0.557  11.869 -0.1742  0.0001 -0.2966
 2645W        W19492  12.090  16.425  11.044 -0.0000  0.3175 -0.1206
 2646W        W19493   9.163  12.015   0.104 -0.1696 -0.2234 -0.1878
 2647W        W19494  12.361  14.861  11.325 -0.4659 -0.1058  0.2162
 2648W        W19495   2.578   6.256  11.663  0.0492  0.0021  0.0022
 2649W        W19496  13.388  11.934  13.406  0.0191 -0.1082  0.0795
 2650W        W19497   9.936   1.497  13.432  0.0201  0.0183  0.2419
 2651W        W19498   5.090   5.357  11.824  0.0446 -0.1490  0.3665
 2652W        W19499  15.229   2.409   3.468  0.1301  0.0893 -0.0766
 2653W        W19500  16.306  16.755   2.964 -0.1425  0.0915  0.2110
 2654W        W19501  12.623   5.030   4.499 -0.1035  0.0298 -0.1996
 2655W        W19502   5.409  18.320   1.612 -0.0858 -0.3196 -0.2558
 2656W        W19503  12.361   1.990   0.275 -0.0317  0.0313  0.1490
 2657W        W19504  12.601   2.747   4.346  0.1847 -0.0908  0.2140
 2658W        W19505  16.439   5.152   1.111  0.4498 -0.2081 -0.1553
 2659W        W19506   8.574   4.787  12.092  0.0350  0.0994 -0.1588
 2660W        W19507   5.244   3.863  10.869 -0.0543 -0.0597  0.0279
 2661W        W19508  11.686   6.548   0.182 -0.1443 -0.0693 -0.0320
 2662W        W19509   0.667   7.956   0.354 -0.2310  0.1569  0.0849
 2663W        W19510  16.542   2.567   5.504 -0.0120 -0.1173 -0.3370
 2664W        W19511   0.817  14.459   2.038  0.0452 -0.0548  0.0294
 2665W        W19512   4.106  12.363   2.056  0.3200  0.1418  0.1017
 2666W        W19513  13.505   1.003  10.285  0.2393  0.1167  0.0072
 2667W        W19514   3.376   9.469   0.622 -0.3172 -0.1281  0.0101
 2668W        W19515  19.130  12.948  13.745  0.2510 -0.0956 -0.0003
 2669W        W19516  14.099   2.918   5.863 -0.3646  0.0121 -0.0603
 2670W        W19517  13.379   4.452   0.562 -0.1486  0.0805 -0.2353
 2671W        W19518   9.401   5.037  11.761 -0.1521 -0.0156  0.2621
 2672W        W19519   1.247   3.331  12.483  0.2630  0.1279  0.2800
 2673W        W19520   0.205  10.862  10.096  0.0070 -0.0138 -0.0111
 2674W        W19521  13.964  16.666   1.336  0.2936 -0.2701  0.0289
 2675W        W19522  12.157   1.213   3.516  0.1819  0.3367 -0.2347
 2676W        W19523  13.351  17.326  11.859 -0.1636  0.0910  0.1293
 2677W        W19524  13.293  13.556  10.683  0.0467  0.1458 -0.0031
 2678W        W19525   3.757  12.949  13.900  0.1750  0.2682  0.0155
 2679W        W19526   8.850   2.030  12.851  0.3539 -0.1132  0.1325
 2680W        W19527  18.096   9.521  14.252  0.2791 -0.2551  0.0839
 2681W        W19528   3.960  16.435  12.392  0.1129  0.0367 -0.2832
 2682W        W19529  11.204   9.958  12.672  0.3039  0.1101  0.0529
 2683W        W19530  12.894  15.288  10.990  0.0716  0.1206  0.3203
 2684W        W19531   8.848  10.234   2.700 -0.0655  0.3025  0.2631
 2685W        W19532   2.311   7.830   1.143 -0.0711  0.0347  0.0939
 2686W        W19533  16.348   1.992   0.662  0.0644 -0.1251 -0.1438
 2687W        W19534  10.405   4.344  10.040 -0.1312 -0.0949 -0.1461
 2688W        W19535  12.016  10.893   1.079 -0.3062  0.0094  0.1565
 2689W        W19536  16.010   3.577   2.982 -0.0652  0.2998 -0.0362
 2690W        W19537   6.757   1.247  12.887  0.0843 -0.0526  0.0774
 2691W        W19538   0.161   1.704   0.918  0.3751 -0.0365 -0.2116
 2692W        W19539  10.189   8.017   4.295 -0.1410  0.0952  0.0024
 2693W        W19540  15.290  19.117   0.373  0.0740  0.2042 -0.0899
 2694W        W19541  10.507   1.852   1.004 -0.1721 -0.1959  0.0407
 2695W        W19542  17.211   0.537  13.693  0.1012  0.1289 -0.0133
 2696W        W19543  18.232   5.216   4.402  0.0469 -0.0897 -0.0252
 2697W        W19544   2.456  16.360   3.290 -0.0363  0.0363 -0.3694
 2698W        W19545  16.067   1.533   9.580 -0.0430 -0.2555 -0.2895
 2699W        W19546   4.866  14.259  10.934  0.0053 -0.0457  0.2480
 2700W        W19547   3.342   8.692  11.028 -0.0220  0.1848 -0.1343
 2701W        W19548   4.505   7.466   3.060 -0.1855  0.0011  0.1666
 2702W        W19549   9.427  11.018   3.026 -0.2447  0.3612 -0.3751
 2703W        W19550   9.142   3.921   4.492 -0.0674  0.0213 -0.0791
 2704W        W19551  11.673   1.881  13.872 -0.2873 -0.0815  0.0973
 2705W        W19552   8.611   2.141   2.654 -0.0351 -0.2016 -0.1007
 2706W        W19553   9.244  18.864   3.678 -0.2701  0.0740  0.0050
 2707W        W19554   8.714   6.068   5.389 -0.0106  0.1744 -0.1492
 2708W        W19555  19.892   1.514  12.342  0.0111  0.1668  0.1684
 2709W        W19556   6.928  19.357   4.445 -0.1407 -0.2341  0.0410
 2710W        W19557   8.738   3.768  12.372 -0.0857  0.1260 -0.1903
 2711W        W19558   2.443   5.244   2.335 -0.1023  0.2809 -0.3773
 2712W        W19559   8.118  17.481  11.501  0.3109  0.0632 -0.2186
 2713W        W19560  19.587   4.479  10.329 -0.0549 -0.0090  0.0407
 2714W        W19561  10.265  18.984  13.960  0.0127  0.3201  0.0436
 2715W        W19562  12.761   7.485   1.127  0.0815 -0.4850  0.0959
 2716W        W19563  19.636  10.551  12.344  0.3929  0.2440  0.3867
 2717W        W19564   6.887   6.206   1.755 -0.0082 -0.1012  0.0923
 2718W        W19565  17.730   1.863  14.297 -0.0543  0.1088 -0.0951
 2719W        W19566   9.707   0.021  13.415  0.0885  0.0646 -0.5037
 2720W        W19567  19.002  12.736  12.546 -0.0322  0.1274 -0.0302
 2721W        W19568  19.907  13.054  11.633 -0.0747  0.0039  0.0109
 2722W        W19569  11.084  14.316  11.557  0.0693 -0.0333 -0.0863
 2723W        W19570   7.747   9.503   0.833  0.2554  0.2818  0.0427
 2724W        W19571   4.021   9.684  10.171 -0.1556 -0.3487  0.0164
 2725W        W19572   5.761  13.010  11.993  0.0212 -0.2848 -0.1125
 2726W        W19573   9.148  13.412   1.462  0.1175  0.1838 -0.0039
 2727W        W19574   1.914   6.675   9.582 -0.0773 -0.0013  0.2111
 2728W        W19575  17.516  13.266  13.372  0.2893  0.0275 -0.0770
 2729W        W19576   6.348  12.884   0.217 -0.0068  0.0184  0.4226
 2730W        W19577  14.784   7.387   4.037  0.1808 -0.0560  0.1973
 2731W        W19578  12.440   0.335  12.623 -0.0373  0.0312  0.4336
 2732W        W19579   2.262  15.508  10.893  0.1626  0.3879  0.0634
 2733W        W19580  12.674  19.670  11.487 -0.1305 -0.2187  0.2617
 2734W        W19581   2.375  13.423  11.494  0.2821 -0.2761  0.0763
 2735W        W19582   3.340   2.796   4.501  0.1668  0.0276  0.0394
 2736W        W19583  11.231   3.014   4.212 -0.0835 -0.1154  0.0761
 2737W        W19584  17.141  17.456  12.705 -0.0690  0.2450  0.0349
 2738W        W19585   4.824   0.822   4.462 -0.0072  0.0036  0.0867
 2739W        W19586   7.695  17.756   0.398  0.0561 -0.1359  0.1619
 2740W        W19587  11.020   7.557  11.742 -0.1535  0.1494 -0.3638
 2741W        W19588  18.595   1.374   0.072 -0.2808 -0.0241 -0.1264
 2742W        W19589  18.022   7.006   4.777  0.2192  0.4848 -0.2364
 2743W        W19590  13.735  10.747  13.301  0.2428  0.2688 -0.1685
 2744W        W19591   4.852   6.754  11.838  0.0595 -0.3648  0.0125
 2745W        W19592   1.611  18.086   1.459  0.1028  0.1660  0.0866
 2746W        W19593   6.820  15.073  11.420 -0.0977  0.1872 -0.3299
 2747W        W19594  12.877  14.839   3.019  0.2046 -0.3159  0.0734
 2748W        W19595   4.334  19.785  11.438 -0.1614 -0.4666 -0.0732
 2749W        W19596   9.643   1.868   1.348 -0.1623 -0.0514  0.3246
 2750W        W19597  10.982   8.823  11.175  0.3066  0.2005  0.1423
 2751W        W19598   2.028  13.865   1.857 -0.6608 -0.0846  0.0404
 2752W        W19599  12.890   5.794   1.813 -0.3934  0.1147  0.0313
 2753W        W19600   6.432  10.504   1.840 -0.1818 -0.0497 -0.1674
 2754W        W19601  16.141   6.271  11.896  0.0927 -0.1136 -0.1902
 2755W        W19602  13.974   4.812  10.928  0.0879 -0.3380  0.1508
 2756W        W19603   5.032  19.865  12.928  0.0036 -0.1037 -0.3056
 2757W        W19604  19.397   7.456   0.989 -0.1383 -0.1628 -0.1923
 2758W        W19605  10.733  15.358  13.823 -0.4553  0.0982 -0.1102
 2759W        W19606   4.357  13.533   0.171  0.0966  0.3191 -0.1511
 2760W        W19607   7.206  12.748  12.503 -0.2357 -0.2920  0.1542
 2761W        W19608   0.159  13.746  13.070  0.0845  0.1058 -0.0170
 2762W        W19609   0.263   5.247   2.558 -0.2332 -0.0462 -0.0446
 2763W        W19610   4.882   2.558   0.719 -0.1653  0.1846  0.2763
 2764W        W19611   4.299  15.917  14.310 -0.2659 -0.2050  0.2125
 2765W        W19612  18.780   4.773   1.690 -0.3907  0.1652 -0.2807
 2766W        W19613   8.338  13.565   4.162  0.0677 -0.0278 -0.1348
 2767W        W19614  13.304  16.345  12.878 -0.2368 -0.0650 -0.0168
 2768W        W19615  17.200   6.316  14.148  0.3689  0.3069 -0.0140
 2769W        W19616  15.569   5.419   5.564 -0.1217  0.0102 -0.0153
 2770W        W19617   8.361  12.077  11.556  0.2166 -0.4423  0.0921
 2771W        W19618  14.580  17.421  10.535 -0.1457 -0.4238  0.0590
 2772W        W19619   8.532   2.605   2.244 -0.0320 -0.1881  0.1059
 2773W        W19620   3.650   8.155   0.380 -0.2289  0.2966 -0.1786
 2774W        W19621  11.091  19.009   0.205  0.1728 -0.0965 -0.0185
 2775W        W19622  18.933  13.283   3.453  0.0799 -0.1779  0.0205
 2776W        W19623  15.977  16.845  12.309 -0.2471 -0.0197 -0.3700
 2777W        W19624   1.660   3.856  13.194 -0.1464 -0.2430  0.1423
 2778W        W19625  19.625   9.339   3.824  0.0055 -0.1294  0.0772
 2779W        W19626  18.003  12.167  11.706  0.0153 -0.0503 -0.1864
 2780W        W19627  11.821  14.628   1.632  0.0910  0.0568  0.0695
 2781W        W19628   0.202  11.738   2.678 -0.0375 -0.0347 -0.1050
 2782W        W19629  18.087  10.824   1.786  0.1381 -0.0537  0.0420
 2783W        W19630   8.900  11.893   4.215  0.0200 -0.1074 -0.1815
 2784W        W19631   3.181   5.517  14.099  0.0975 -0.0451  0.1525
 2785W        W19632  10.735   6.155   0.416 -0.4191  0.0043 -0.1275
 2786W        W19633  19.585   5.490   1.378 -0.1417 -0.1186  0.2780
 2787W        W19634   7.850   4.276   9.915 -0.0470  0.3588 -0.2254
 2788W        W19635   7.452  15.793  13.052 -0.0446  0.1028 -0.0109
 2789W        W19636  16.317  19.187   0.359 -0.0129 -0.0612  0.1707
 2790W        W19637   4.557  17.747  10.735  0.1162 -0.1045  0.1805
 2791W        W19638   4.733   6.476  10.884 -0.2312  0.0146  0.2499
 2792W        W19639  12.413  15.195  10.910 -0.1150  0.1251  0.0548
 2793W        W19640   8.028  19.432  13.077  0.0360 -0.0995 -0.0497
 2794W        W19641   2.045  16.231   1.998 -0.2414 -0.0982 -0.2897
 2795W        W19642   0.470   6.941  12.768  0.1713  0.0059  0.0956
 2796W        W19643   2.349   5.813   0.564  0.1768 -0.0386  0.0295
 2797W        W19644  18.014  10.194  10.097  0.2232  0.0217 -0.1225
 2798W        W19645  19.393  11.365  10.715 -0.2043 -0.0233 -0.0049
 2799W        W19646   5.577  14.405   2.244 -0.1394  0.2063  0.1811
 2800W        W19647   6.111  17.448  12.087 -0.0810 -0.0794  0.0931
 2801W        W19648   4.152   9.015   0.021  0.0247 -0.0348  0.0870
 2802W        W19649   2.953  18.626   3.310 -0.0977 -0.4389  0.1990
 2803W        W19650   3.285  16.242   0.335  0.0641 -0.0985 -0.1122
 2804W        W19651   6.807   4.471  12.596  0.0415  0.1328 -0.4399
 2805W        W19652  11.240  18.645  11.932 -0.0902 -0.1210 -0.0583
 2806W        W19653  11.732   6.406   5.238 -0.2312  0.1102  0.1057
 2807W        W19654  15.004  13.107   5.368  0.1009 -0.0382  0.0433
 2808W        W19655   6.316   0.383  11.251  0.1589 -0.3520 -0.0642
 2809W        W19656  16.303  15.685   3.764 -0.2495  0.0086  0.1506
 2810W        W19657  12.939  10.008   4.564  0.0360  0.1771  0.3380
 2811W        W19658   5.581  10.108   1.722  0.0242  0.2523 -0.1385
 2812W        W19659  11.202  11.309   2.257 -0.0191  0.2738 -0.2450
 2813W        W19660   7.995  18.427   3.573 -0.0137 -0.0490  0.0069
 2814W        W19661   4.324   2.085  12.471  0.2127 -0.2399 -0.0336
 2815W        W19662   7.320   5.074  13.343  0.0851  0.0423  0.1110
 2816W        W19663   4.144  11.818  12.626  0.0611  0.0207  0.1481
 2817W        W19664  15.534   6.865   2.358  0.2023  0.0471 -0.0161
 2818W        W19665   2.707   3.623  10.736 -0.0753 -0.1498 -0.2290
 2819W        W19666   8.150  11.826   9.163  0.0059  0.0743 -0.2209
 2820W        W19667   2.913  15.736  10.018 -0.0334 -0.3542  0.0787
 2821W        W19668  13.495   1.371   4.482 -0.0278 -0.0259 -0.0069
 2822W        W19669   3.024  14.701   3.752  0.3066  0.1742  0.2640
 2823W        W19670  17.741   1.323   9.921 -0.2619  0.2204 -0.1079
 2824W        W19671  16.981  17.363   0.003  0.1570  0.4827 -0.1283
 2825W        W19672  14.998  19.518   1.676 -0.1185 -0.1828 -0.5412
 2826W        W19673  10.723   2.473  10.984 -0.3044  0.0847 -0.1024
 2827W        W19674  16.622  14.976  12.279  0.3327  0.0761 -0.2130
 2828W        W19675  11.254   8.022  13.664  0.1614  0.2809 -0.1236
 2829W        W19676  12.174  19.759  11.493  0.0795  0.1570  0.2282
 2830W        W19677  10.987  13.575  13.564 -0.1171  0.1634 -0.2097
 2831W        W19678   1.496   9.038   0.031  0.2381 -0.2719 -0.1445
 2832W        W19679   4.054   4.071  11.117 -0.2280 -0.1116 -0.0853
 2833W        W19680  13.329   5.568  10.311  0.2023 -0.0030 -0.1669
 2834W        W19681   8.099   6.165   0.393  0.4105  0.0568 -0.0763
 2835W        W19682   0.822   6.408   9.947  0.1682  0.1034 -0.2632
 2836W        W19683   3.759  18.289  11.054  0.3417  0.2772 -0.1729
 2837W        W19684   0.664   8.587  10.365  0.1292  0.1811 -0.1618
 2838W        W19685  13.235  15.727   0.411 -0.2367 -0.1530  0.1366
 2839W        W19686  13.417   9.119   4.177  0.0435  0.1382  0.0572
 2840W        W19687  16.683   6.085  11.756  0.0080 -0.1056  0.0554
 2841W        W19688   2.729   4.684  14.172 -0.3836  0.1423 -0.2550
 2842W        W19689  14.611  10.268   0.014  0.1189  0.0193 -0.0409
 2843W        W19690   0.690  13.144   2.711 -0.2426  0.1386 -0.1846
 2844W        W19691  13.854  12.263   3.711 -0.2291  0.3816  0.1867
 2845W        W19692  17.230   4.014  10.628 -0.0477  0.1581 -0.2125
 2846W        W19693   1.342  15.324   1.559  0.1865  0.2579 -0.1188
 2847W        W19694  10.374  19.589  10.899  0.0110 -0.0552  0.0773
 2848W        W19695   1.556   9.928   0.253  0.3038 -0.2265  0.1651
 2849W        W19696   7.012   3.348   1.628  0.0991 -0.0990  0.3059
 2850W        W19697   4.519   7.800   3.456 -0.4337 -0.2382 -0.1305
 2851W        W19698  16.984   6.222   1.945 -0.1391  0.2460  0.2289
 2852W        W19699  16.543   6.305  13.289 -0.3128  0.4342  0.4284
 2853W        W19700   0.885  18.517   2.671 -0.3040  0.3712 -0.0454
 2854W        W19701  10.043  18.284  14.278  0.0912  0.0617 -0.0291
 2855W        W19702  14.616  13.457   1.106  0.0042 -0.0104  0.3478
 2856W        W19703  18.776  12.093   4.348  0.1610 -0.4558  0.0903
 2857W        W19704  11.571  18.220   2.483 -0.1583  0.1938 -0.1530
 2858W        W19705  19.156  12.866   3.650 -0.2028 -0.0015 -0.1077
 2859W        W19706  19.525   4.749   2.887 -0.1648 -0.2911  0.2714
 2860W        W19707  14.203  16.514  11.793 -0.3692  0.1074 -0.2673
 2861W        W19708  10.870   9.013   1.747 -0.0075 -0.2827 -0.0433
 2862W        W19709   9.894  10.003   4.046  0.1534  0.0499 -0.1246
 2863W        W19710   9.857  14.111   1.413 -0.1301  0.0141  0.0589
 2864W        W19711  16.811  14.137  12.167  0.0736  0.1137 -0.1095
 2865W        W19712  12.609   8.402  10.269 -0.0087 -0.0259 -0.2201
 2866W        W19713   9.244   8.131   1.725 -0.2996 -0.0841  0.1377
 2867W        W19714  13.247  11.554   3.653 -0.1943  0.2919  0.2323
 2868W        W19715  18.674   6.518   3.194  0.3073 -0.1005 -0.0066
 2869W        W19716  14.601  11.210  12.422 -0.0279  0.1458 -0.1568
 2870W        W19717   0.511  17.298   5.189  0.1662 -0.0461  0.2790
 2871W        W19718  14.180   6.786   1.060  0.0773  0.2266  0.1144
 2872W        W19719   8.428   9.882  10.349 -0.1365  0.1030 -0.1195
 2873W        W19720   6.575   9.345   5.156  0.0301  0.0892  0.0581
 2874W        W19721  13.866   5.577  11.109  0.0510  0.0178  0.0096
 2875W        W19722  12.363   7.871   2.353  0.1032 -0.1367  0.1798
 2876W        W19723   3.349   0.348   1.163 -0.0004  0.1145 -0.2293
 2877W        W19724   6.536  19.767   3.672 -0.1639 -0.0464 -0.1445
 2878W        W19725   8.333  17.409  12.309  0.1084 -0.2199  0.1430
 2879W        W19726  12.268  11.258  13.563 -0.3733  0.1074 -0.2480
 2880W        W19727   2.165  18.796   1.741  0.1030  0.2313 -0.0183
 2881W        W19728   7.351  11.508   2.077  0.0267 -0.0936  0.0100
 2882W        W19729   1.644   9.047  12.742 -0.1070 -0.0744  0.0499
 2883W        W19730  14.523   9.924  12.019  0.1002  0.0553 -0.0110
 2884W        W19731  18.711   4.477   3.223 -0.0493 -0.2668 -0.1337
 2885W        W19732  11.846   6.854  14.126 -0.1063  0.0932 -0.0209
 2886W        W19733   0.581  17.126  10.331 -0.4097 -0.3423 -0.1107
 2887W        W19734   3.286   6.877  10.692 -0.2031  0.0351 -0.2379
 2888W        W19735  10.578   5.676  10.894  0.0860 -0.1502 -0.1976
 2889W        W19736  16.126  10.964  12.066 -0.0004 -0.1244  0.1629
 2890W        W19737   9.597  11.387   2.724 -0.0245 -0.1753  0.1744
 2891W        W19738   1.417   8.968  13.789  0.0755 -0.2681 -0.0126
 2892W        W19739   9.360   3.303   3.115 -0.0621 -0.0512  0.1327
 2893W        W19740   4.817  11.434  12.055 -0.2001 -0.1047 -0.2529
 2894W        W19741  15.857  15.496  11.939  0.0961 -0.2680 -0.4121
 2895W        W19742   0.565   3.307   0.884 -0.3930  0.0502 -0.0669
 2896W        W19743   5.844  17.669  12.468  0.2340  0.0238  0.1990
 2897W        W19744  14.469   6.530   4.448 -0.0568  0.1594 -0.2063
 2898W        W19745   2.930   5.588   0.226  0.4167 -0.3843 -0.0462
 2899W        W19746  15.589   9.447  11.780 -0.1322 -0.0672 -0.2051
 2900W        W19747   7.040  19.759  12.422 -0.1512 -0.0839 -0.2692
 2901W        W19748   9.428   9.760  11.563  0.0865 -0.2304  0.3195
 2902W        W19749   9.756  17.108   0.678 -0.2611  0.0969 -0.1530
 2903W        W19750   8.472   5.502  13.042 -0.0439  0.2620 -0.1143
 2904W        W19751  16.190   0.373   2.008  0.1384 -0.0628  0.0892
 2905W        W19752   7.379   2.110  11.820  0.0486  0.2139 -0.1481
 2906W        W19753  11.452  11.514   2.658 -0.2154 -0.3107  0.3102
 2907W        W19754   2.291  15.212  10.511 -0.2762  0.1110  0.3634
 2908W        W19755   6.833   2.422  11.220  0.3015  0.0120 -0.2920
 2909W        W19756  10.535  19.729   0.088  0.2241 -0.0797  0.5028
 2910W        W19757   2.696  18.754   1.521  0.2167 -0.0138 -0.0210
 2911W        W19758  14.848  11.015  11.116  0.0415  0.2181 -0.0414
 2912W        W19759  14.061   5.257  13.809  0.0067  0.0539 -0.4305
 2913W        W19760   5.648  19.466   1.010  0.1429  0.0571  0.2750
 2914W        W19761  19.142  10.950  11.508  0.2670  0.1632  0.2155
 2915W        W19762  14.105  12.979  12.780 -0.3454 -0.1746  0.1370
 2916W        W19763   9.794   6.409  13.928  0.0739  0.1546  0.0221
 2917W        W19764  10.100   5.589   0.016  0.2433  0.2358  0.1047
 2918W        W19765   1.361   2.167   3.425  0.1029 -0.0792  0.3371
 2919W        W19766   3.062   7.019  13.809  0.2027  0.1040 -0.0098
 2920W        W19767   2.824   6.928  11.036  0.1021  0.0684  0.2975
 2921W        W19768   1.288   0.409  14.299  0.0394 -0.1504  0.0814
 2922W        W19769  11.727   4.404  11.639 -0.0933 -0.2474  0.3837
 2923W        W19770  12.689   2.396   1.394 -0.0783  0.2098 -0.1224
 2924W        W19771   5.697   5.404   0.280 -0.2370  0.1995 -0.0047
 2925W        W19772   3.995   2.057   4.377 -0.1301  0.1783 -0.1672
 2926W        W19773  18.968  11.227   1.407 -0.1501 -0.2198  0.1497
 2927W        W19774  12.008   0.733   4.685 -0.2804 -0.1481  0.3097
 2928W        W19775  17.463   2.009   0.373 -0.0709 -0.2066  0.0314
 2929W        W19776   7.751  16.237   0.968 -0.2749 -0.0472 -0.1884
 2930W        W19777  11.572  16.109   5.112 -0.0220  0.0889 -0.1374
 2931W        W19778   4.587  12.332  13.916 -0.5836 -0.1815  0.1638
 2932W        W19779  16.558   9.557  12.822  0.2085  0.2325  0.2654
 2933W        W19780   2.930   3.935   2.606  0.0074 -0.0239 -0.0836
 2934W        W19781   9.368  17.349  13.946  0.0799  0.1034 -0.1020
 2935W        W19782  13.726   7.681   5.393 -0.1221 -0.4601  0.2573
 2936W        W19783   7.130  10.814   5.462 -0.3138 -0.2352 -0.4130
 2937W        W19784  13.752  14.815   0.408 -0.0981  0.2027 -0.1293
 2938W        W19785  18.610  18.676   4.134 -0.0352 -0.0787  0.2843
 2939W        W19786   7.530  19.469   2.902  0.2650 -0.0758  0.1410
 2940W        W19787  16.877  11.983  13.589  0.1714 -0.0160  0.1626
 2941W        W19788  10.616  13.179  12.777 -0.0836  0.0483 -0.0198
 2942W        W19789   5.130  15.997   2.102  0.1825 -0.0717 -0.2225
 2943W        W19790   5.977  17.942   0.781 -0.0448 -0.0276  0.0554
 2944W        W19791  15.287   8.218  11.140 -0.0935 -0.0588  0.0495
 2945W        W19792  13.800  14.374   0.175 -0.1659  0.0008  0.0362
 2946W        W19793  19.422   4.234   2.838  0.0899 -0.1802 -0.0714
 2947W        W19794  19.550   0.517  12.164  0.0746  0.1642 -0.0770
 2948W        W19795  16.452  16.467  11.962 -0.0092 -0.1649  0.0050
 2949W        W19796  18.359  14.995   4.613  0.0582 -0.3521 -0.0563
 2950W        W19797  13.520   5.297   3.008  0.2761  0.3853  0.0882
 2951W        W19798  19.114  11.397  12.477  0.2175  0.1459 -0.3135
 2952W        W19799  10.630   9.651   0.573 -0.0902  0.1688  0.1408
 2953W        W19800   5.922  19.550  13.787  0.0697 -0.2058  0.0036
 2954W        W19801  16.706   8.026  10.904  0.3880 -0.1070  0.0684
 2955W        W19802  19.015   5.178  10.142 -0.0396 -0.1072 -0.2464
 2956W        W19803  10.047  19.524  12.099  0.1613  0.3129 -0.3111
 2957W        W19804   3.579   8.684   3.090  0.1391  0.1757  0.2156
 2958W        W19805  19.332  18.986   0.188 -0.0815  0.2484 -0.1590
 2959W        W19806   5.876  16.948   9.356  0.0497  0.0979  0.1108
 2960W        W19807   3.925  17.582  13.951  0.1927 -0.0178  0.0867
 2961W        W19808   6.175  19.253   0.886 -0.1102 -0.0899 -0.0464
 2962W        W19809   1.816   5.111  11.001 -0.1627 -0.3566  0.0048
 2963W        W19810   9.979   4.549   2.231  0.0539 -0.2427 -0.0600
 2964W        W19811   2.962   8.238   4.216 -0.1763  0.1848  0.2656
 2965W        W19812  14.735  13.394  11.771 -0.0451 -0.2389  0.0093
 2966W        W19813  11.104   0.239  13.783 -0.0256  0.2493 -0.2888
 2967W        W19814  18.395   3.700   3.453 -0.2022  0.1115 -0.4187
 2968W        W19815  16.283   5.922  13.527  0.3027 -0.3443  0.1273
 2969W        W19816   4.355   1.240   3.519 -0.1468 -0.1831  0.0071
 2970W        W19817  18.191  11.735   0.229  0.2824  0.0499  0.0643
 2971W        W19818  12.600   7.509   5.313 -0.1043  0.2744  0.3607
 2972W        W19819  13.014   8.874   1.103  0.0272  0.1245  0.1100
 2973W        W19820  18.440  12.143   0.272  0.1941 -0.1612  0.0051
 2974W        W19821  13.934  14.781   2.837 -0.0920 -0.4426  0.0359
 2975W        W19822   3.166   1.690   1.522 -0.2715  0.4646 -0.3324
 2976W        W19823  10.240   3.385   4.967 -0.0925 -0.0783  0.0730
 2977W        W19824  15.356  13.884  14.174 -0.0922 -0.0619  0.3529
 2978W        W19825  16.310   9.640  10.754 -0.0713 -0.1845 -0.2187
 2979W        W19826  14.247   7.875  13.374  0.1806 -0.1722 -0.1806
 2980W        W19827  10.330   9.703  14.127  0.2851  0.1597  0.0553
 2981W        W19828   9.156  12.606  13.200 -0.1979 -0.0072  0.0247
 2982W        W19829   8.479   9.870   1.987  0.1725  0.0385 -0.1096
 2983W        W19830   6.656  15.100   3.780 -0.0673  0.1624  0.2615
 2984W        W19831   3.599  10.796   4.381 -0.1804  0.1671  0.0885
 2985W        W19832  19.832   9.305   1.083 -0.1065  0.0107 -0.1928
 2986W        W19833  12.083  18.688   4.840 -0.2999 -0.1792 -0.1259
 2987W        W19834  17.755  15.367  12.253 -0.1965 -0.1716  0.0800
 2988W        W19835  15.908   8.941  13.684  0.1408 -0.0146 -0.0767
 2989W        W19836  13.315  13.520   2.898  0.0453  0.2402 -0.2019
 2990W        W19837  13.473   4.013   0.388 -0.1011  0.1967 -0.1626
 2991W        W19838   7.839  17.358  13.575  0.3506  0.1111 -0.3880
 2992W        W19839   1.481   6.981   3.556 -0.1897  0.2018  0.3109
 2993W        W19840  19.740   5.017   2.478  0.1357  0.3128 -0.0211
 2994W        W19841  12.880  17.504   9.779  0.2598 -0.0544 -0.0066
 2995W        W19842   3.821   8.473   2.261 -0.1071  0.0484 -0.1207
 2996W        W19843  11.928  18.371   0.896  0.2352 -0.3828  0.1790
 2997W        W19844   4.318   0.492   2.916  0.3311  0.4082  0.0253
 2998W        W19845  14.110   2.850  11.353 -0.2345 -0.0678 -0.2327
 2999W        W19846  19.475  14.816   0.340  0.1022 -0.2361  0.2389
 3000W        W19847   1.836   8.126   0.128  0.3795  0.1465 -0.2972
 3001W        W19848   2.469   5.030  13.852  0.1493  0.2322  0.5039
 3002W        W19849   2.874  16.006   1.066 -0.3454 -0.3211  0.1121
 3003W        W19850  18.592  10.375   9.099  0.0190 -0.1076 -0.0940
 3004W        W19851  13.047  16.124  10.904 -0.0579  0.0086  0.2180
 3005W        W19852   4.232  18.534   4.800  0.0325  0.1226 -0.2673
 3006W        W19853   7.098  16.277  10.029  0.1528  0.2922 -0.1293
 3007W        W19854   7.953   4.824   0.101 -0.0128  0.3830  0.2917
 3008W        W19855  19.612   4.468  14.018 -0.0772 -0.0304  0.0519
 3009W        W19856   7.735   4.429   0.301 -0.0193  0.0884  0.1297
 3010W        W19857   9.883  17.193   2.740  0.0716  0.0273 -0.0161
 3011W        W19858  10.473  12.787   4.220 -0.0262 -0.0113  0.0722
 3012W        W19859  18.405  11.170   2.553  0.2237  0.0325  0.0585
 3013W        W19860   3.531   7.524   4.061  0.0625  0.0992  0.2013
 3014W        W19861  19.924   9.413  14.029 -0.1799  0.3037  0.1535
 3015W        W19862  16.139   2.539   4.873  0.1191 -0.0791 -0.1809
 3016W        W19863   4.755  12.098   3.535  0.2583 -0.2475 -0.3137
 3017W        W19864  18.141  14.285  10.937  0.1252  0.0660  0.3950
 3018W        W19865   4.129  16.217   1.078  0.0352 -0.1965  0.0544
 3019W        W19866  13.430   5.120  13.536 -0.1316  0.0059 -0.1196
 3020W        W19867  12.518  10.007   2.479 -0.3790  0.0656  0.2639
 3021W        W19868  10.690   1.315  12.258 -0.1294 -0.1200 -0.2011
 3022W        W19869   0.590  10.735   3.885  0.0263  0.0949  0.2565
 3023W        W19870  10.993  12.814  12.553 -0.1116  0.4460 -0.0544
 3024W        W19871  11.838   1.013  13.817  0.2463 -0.1851 -0.0565
 3025W        W19872  13.899   2.395  11.343 -0.3953 -0.3401  0.1012
 3026W        W19873  14.072   2.491   4.065  0.1467  0.0489  0.2326
 3027W        W19874  11.685   5.819  10.713  0.0594 -0.5168 -0.4407
 3028W        W19875   4.177  10.767   5.139 -0.0663  0.0017 -0.0639
 3029W        W19876   1.121   0.779  12.354  0.1374 -0.0665 -0.0066
 3030W        W19877  12.516   2.413   3.919  0.1405 -0.0839  0.1577
 3031W        W19878   5.188   1.124   0.735  0.0426 -0.3698  0.0568
 3032W        W19879   1.658  18.476  13.181  0.2920  0.3204  0.1052
 3033W        W19880  18.836  19.288   2.797  0.2312 -0.0586 -0.0554
 3034W        W19881  16.323  11.099   2.559  0.0717  0.1835  0.0759
 3035W        W19882  11.997  18.911  13.527 -0.0513  0.1483 -0.1892
 3036W        W19883   1.658   0.820  14.078 -0.0273 -0.0557 -0.0813
 3037W        W19884  12.643   4.501  13.601  0.0758  0.1020  0.3042
 3038W        W19885  15.223   7.391   0.238  0.2134 -0.1680 -0.0175
 3039W        W19886   9.503  14.830   3.580  0.1994 -0.1864 -0.1038
 3040W        W19887  19.296   2.456   1.657  0.0681  0.0026  0.0660
 3041W        W19888  15.836  12.461  12.313 -0.2574  0.0063 -0.0506
 3042W        W19889  16.854  13.781  10.515 -0.0578 -0.3911  0.0520
 3043W        W19890  12.823  14.404  10.450  0.0630  0.3735  0.0316
 3044W        W19891  10.216   9.571   4.836  0.1016  0.0797 -0.3103
 3045W        W19892  18.326   0.176  12.632 -0.0205 -0.0548  0.0964
 3046W        W19893  18.058  12.285   3.547  0.1576  0.0776  0.0953
 3047W        W19894  10.022   1.558   9.871 -0.2584  0.1875  0.0507
 3048W        W19895  15.313  15.252   2.340 -0.0396  0.1111  0.4121
 3049W        W19896  10.370   7.255  13.232  0.2251 -0.3655  0.0733
 3050W        W19897   8.831   0.060   2.406  0.0000 -0.0177  0.2132
 3051W        W19898   1.966   2.363  13.524 -0.1817  0.1251 -0.0744
 3052W        W19899   0.835   7.561   3.166  0.0146 -0.1562 -0.2803
 3053W        W19900   1.336   8.931   0.994  0.3772  0.1191 -0.1863
 3054W        W19901  15.868   0.074   0.972  0.0174 -0.0966 -0.2266
 3055W        W19902  12.794  17.098   1.668  0.0621 -0.0968 -0.0898
 3056W        W19903   9.922   0.951  13.586 -0.2007  0.0593 -0.2188
 3057W        W19904   4.996   8.890  11.302  0.3213  0.1471 -0.0931
 3058W        W19905   0.167   2.195   0.965  0.0357  0.1682 -0.1461
 3059W        W19906   2.232   6.726   3.716 -0.3778 -0.0316 -0.0466
 3060W        W19907   0.263  12.006  12.542  0.0529 -0.4237 -0.3361
 3061W        W19908  10.409  16.369  11.337 -0.0601  0.2395  0.1040
 3062W        W19909  11.883  12.762   2.733 -0.0375 -0.0138 -0.1798
 3063W        W19910  11.805  19.321   0.621 -0.0816 -0.2850 -0.0485
 3064W        W19911   8.192  16.693   9.589  0.3137 -0.1091  0.2727
 3065W        W19912  15.860   8.860   0.755 -0.2492  0.0428 -0.2041
 3066W        W19913  12.882  11.917  13.614 -0.0348  0.1025 -0.1114
 3067W        W19914  14.909  10.561  10.732 -0.4666 -0.0481 -0.0940
 3068W        W19915  11.038  17.385   3.525  0.0531 -0.3520 -0.0910
 3069W        W19916   7.701  16.820   1.198  0.0140  0.3088  0.3221
 3070W        W19917   9.355  17.348   9.724  0.0741  0.3158 -0.0506
 3071W        W19918   2.180  14.315  11.710 -0.0610  0.0675 -0.0929
 3072W        W19919   0.503  16.811   0.521 -0.0147  0.2553 -0.2575
 3073W        W19920   3.027   6.456  13.101 -0.0506 -0.0342  0.3976
 3074W        W19921   9.775  15.643   4.391 -0.1891 -0.1767 -0.0173
 3075W        W19922   9.518   7.019   4.740 -0.0755  0.2906  0.2516
 3076W        W19923  18.847   8.309  10.966  0.1254  0.2512  0.3010
 3077W        W19924  18.372   1.113   1.076 -0.0601  0.0872 -0.2047
 3078W        W19925  16.721  15.586   2.386  0.5115  0.1816  0.1671
 3079W        W19926   7.197   2.679   3.354 -0.0082 -0.0073 -0.0585
 3080W        W19927   4.837  13.667   0.577 -0.0074  0.0626 -0.1596
 3081W        W19928  18.627   1.462  13.277 -0.0540 -0.0615 -0.0918
 3082W        W19929   3.273   4.860   0.523 -0.0601  0.1659 -0.0313
 3083W        W19930  11.740   0.669  11.942  0.0543 -0.2439  0.2880
 3084W        W19931   7.648  12.762  10.271 -0.0433 -0.2060 -0.3904
 3085W        W19932  19.668  14.855  10.377 -0.1858  0.0556 -0.0167
 3086W        W19933  15.397   8.477   1.369  0.2393 -0.2400  0.2006
 3087W        W19934   0.648   1.692  11.026 -0.2086 -0.1555 -0.1714
 3088W        W19935  17.810   3.028  12.932  0.0862  0.2010  0.1942
 3089W        W19936  11.123   5.457   0.317 -0.2283  0.0075  0.0294
 3090W        W19937  16.637   5.878   1.831 -0.0804  0.1914  0.1034
 3091W        W19938   6.605   9.251   3.086  0.0158  0.1334  0.1316
 3092W        W19939   9.105  17.637   0.020  0.3135 -0.0865 -0.1777
 3093W        W19940   1.090  16.903   2.406  0.1224 -0.2330 -0.1897
 3094W        W19941   3.478  14.060   3.096 -0.0552  0.0910  0.1536
 3095W        W19942   0.339  14.959  12.275 -0.0311  0.0853  0.1339
 3096W        W19943  13.198  15.070   4.244 -0.2152  0.0078 -0.0643
 3097W        W19944  11.463  15.566  10.241 -0.2680  0.2813  0.0362
 3098W        W19945   2.394   7.039   0.909  0.1643  0.1478 -0.0635
 3099W        W19946   9.068  16.420   0.658 -0.2248 -0.2262 -0.1944
 3100W        W19947   8.951  11.045   1.519  0.0515 -0.0920  0.0443
 3101W        W19948  14.217  12.469   0.088  0.1349 -0.1513 -0.0372
 3102W        W19949  14.358   2.599  11.705 -0.0241 -0.0322 -0.0540
 3103W        W19950  11.391  11.791   2.125 -0.1658  0.1997 -0.1350
 3104W        W19951   4.673   4.228   1.260 -0.1308  0.0751  0.1651
 3105W        W19952   8.133  17.485   0.630 -0.0085 -0.0347  0.2289
 3106W        W19953  12.521   7.242   0.397 -0.1128  0.0007  0.2838
 3107W        W19954   7.507   3.392   3.929  0.0074  0.1809 -0.1568
 3108W        W19955  14.447  15.462   3.401 -0.1063  0.0778 -0.0487
 3109W        W19956  16.523  14.248  13.374  0.2739  0.0284 -0.2812
 3110W        W19957  16.034  13.260   1.385  0.2044 -0.0522 -0.1181
 3111W        W19958   4.127  14.425   3.127 -0.0646 -0.4396  0.0880
 3112W        W19959   8.416   5.033   3.316 -0.2393 -0.1899 -0.3607
 3113W        W19960  11.774   3.246   0.132  0.3830 -0.0914  0.0650
 3114W        W19961   2.668  12.003   1.024 -0.0578 -0.1206  0.2989
 3115W        W19962   8.307  18.733  11.265  0.2680 -0.2706 -0.0699
 3116W        W19963  18.122   5.984   2.094 -0.3467  0.1154  0.0289
 3117W        W19964   4.370  17.234   0.226  0.3187 -0.0498 -0.0978
 3118W        W19965   7.692  15.189   2.894 -0.2155  0.3430  0.1748
 3119W        W19966   2.257   2.012  13.719  0.3338  0.1612  0.3611
 3120W        W19967  13.268   3.358   2.352 -0.1034 -0.2963 -0.2253
 3121W        W19968   9.252   2.596   2.134  0.1588  0.1254 -0.0312
 3122W        W19969  13.336  13.623  14.165 -0.0433  0.0313 -0.0688
 3123W        W19970  13.200  18.983  14.088  0.0308 -0.0915  0.0691
 3124W        W19971  10.321   8.635  10.740 -0.2358 -0.1634  0.1606
 3125W        W19972   8.079  12.091   1.888 -0.2091  0.0086 -0.1038
 3126W        W19973  19.268   3.012   1.532 -0.1936  0.0730  0.0281
 3127W        W19974   2.967   4.109  10.206 -0.0932  0.2028  0.1418
 3128W        W19975   3.419   0.368   5.271 -0.3411 -0.0901 -0.3337
 3129W        W19976   8.736   4.053  13.139  0.1881  0.0201 -0.3229
 3130W        W19977   5.570  15.257   5.142 -0.1116 -0.0342 -0.1104
 3131W        W19978   2.145  18.621   9.941  0.0650  0.2288 -0.0158
 3132W        W19979  17.376  18.273  12.277 -0.0700 -0.1285  0.1213
 3133W        W19980   6.558  12.981  11.109 -0.0578 -0.1803 -0.1781
 3134W        W19981   8.015   5.150  11.038  0.0536  0.0678 -0.0294
 3135W        W19982   2.842  10.349   0.186 -0.1449 -0.3578  0.0243
 3136W        W19983  15.684  15.981   0.696  0.0243  0.3572 -0.1664
 3137W        W19984   1.512   2.854  10.883 -0.1719  0.1174 -0.2939
 3138W        W19985   3.816  15.847   4.915 -0.1450 -0.0120 -0.2461
 3139W        W19986  18.820  11.960  11.336 -0.0469 -0.3413  0.1951
 3140W        W19987   0.872   5.640   0.136  0.5254 -0.3615  0.0874
 3141W        W19988   7.395   4.126   0.697  0.0631 -0.0677  0.0419
 3142W        W19989  14.277  17.815   9.281 -0.0594 -0.1225 -0.0009
 3143W        W19990  12.678  19.583   0.911  0.0583 -0.1694  0.0071
 3144W        W19991   2.494   9.609  12.871 -0.1136 -0.2062  0.0297
 3145W        W19992  14.351   2.018   1.992  0.1329 -0.2194 -0.0584
 3146W        W19993  13.218  14.618   0.439  0.0043  0.1466  0.0574
 3147W        W19994   5.180   0.903   9.942  0.1634 -0.3750 -0.0463
 3148W        W19995   9.270   3.397   4.432  0.2264  0.2099 -0.1763
 3149W        W19996   8.773   9.704   2.903  0.0079 -0.0658 -0.0392
 3150W        W19997  14.760   2.230  13.210 -0.2243 -0.1020  0.1680
 3151W        W19998  18.308   2.072  11.347 -0.0872  0.0171 -0.1026
 3152W        W19999  18.041   8.048   5.095  0.0528 -0.4449 -0.1745
 3153W        W20000   4.667   8.618   0.714 -0.0268 -0.1211  0.0228
 3154W        W20001  13.378   6.167   2.637  0.0028  0.0399  0.1714
 3155W        W20002   1.052   4.810   3.018 -0.2033 -0.1449  0.0825
 3156W        W20003  11.736   1.881   0.820  0.2530 -0.0519 -0.0521
 3157W        W20004   8.617  18.146   0.657 -0.2582 -0.1663 -0.0622
 3158W        W20005   0.473  11.436   0.102  0.1821  0.0275  0.2228
 3159W        W20006  10.769   1.146   5.721  0.4678  0.1565 -0.0697
 3160W        W20007  13.506  10.009   0.362 -0.2980 -0.0249 -0.1042
 3161W        W20008   5.438  16.818  13.673  0.2866 -0.0799 -0.3499
 3162W        W20009  11.479  14.311   1.953  0.2847  0.0091  0.0547
 3163W        W20010   4.583   5.666   0.680  0.2159  0.0704 -0.1432
 3164W        W20011   3.386  12.907  12.255  0.1489  0.1152  0.2494
 3165W        W20012   9.719   5.394  10.939  0.2062  0.0194 -0.0990
 3166W        W20013  12.893  11.868   4.986  0.1166  0.0774 -0.3185
 3167W        W20014   9.851   5.487   4.322 -0.0059 -0.1098 -0.0410
 3168W        W20015   6.049   8.575  13.721  0.0647 -0.0763  0.1401
 3169W        W20016   5.157  19.739   9.737 -0.1648  0.0384 -0.1228
 3170W        W20017  18.606  10.219  13.723 -0.4096 -0.1164  0.1201
 3171W        W20018   3.429  11.430   3.456 -0.0384 -0.1263  0.0063
 3172W        W20019   4.085  12.981   3.705  0.0405  0.2240  0.1859
 3173W        W20020   9.650  14.631  11.326 -0.1082 -0.0297 -0.3743
 3174W        W20021   8.772   5.641  13.402  0.0605  0.3203  0.2779
 3175W        W20022  18.069   2.292  12.239 -0.5006 -0.2026  0.3263
 3176W        W20023  18.405   3.044  13.744  0.0902  0.1897  0.2452
 3177W        W20024  13.754  12.835  11.070 -0.2154 -0.2022 -0.0950
 3178W        W20025  17.555  13.839  12.498  0.3028  0.3933  0.1334
 3179W        W20026  18.267  16.370   1.344  0.0468 -0.1078  0.0565
 3180W        W20027   2.487  18.378   3.103  0.1341 -0.0881  0.2613
 3181W        W20028  18.721   8.841  14.003  0.2760 -0.0657 -0.2481
 3182W        W20029   1.428  12.573   1.728 -0.0863  0.1606  0.4623
 3183W        W20030  15.245   4.049  10.792  0.0229 -0.0776  0.1030
 3184W        W20031  12.480  16.802  13.200 -0.1700  0.1529 -0.1501
 3185W        W20032   2.497   2.101   1.630 -0.1785  0.1153 -0.2191
 3186W        W20033  12.710  19.140  13.918  0.0231  0.1746 -0.1658
 3187W        W20034  12.728  12.066  11.667  0.0467  0.4656 -0.0728
 3188W        W20035   5.789  17.763   2.670 -0.2251 -0.1938 -0.1457
 3189W        W20036   7.109  18.616  11.280 -0.3835  0.1494  0.1744
 3190W        W20037  17.849   2.140  13.422  0.0939 -0.1355  0.2768
 3191W        W20038  15.579  15.477   0.606 -0.2104  0.0416  0.5630
 3192W        W20039  12.274   0.620   1.580  0.0959 -0.2301  0.0948
 3193W        W20040  13.937   0.945   1.334  0.1390 -0.0355  0.2526
 3194W        W20041  17.786   2.713  12.156 -0.1286 -0.2388 -0.2170
 3195W        W20042  18.975   6.283  13.280  0.1947  0.1533  0.0393
 3196W        W20043  17.248   1.334   3.445  0.2192 -0.1276 -0.2350
 3197W        W20044  10.378   1.928   2.269  0.2651 -0.3230  0.2421
 3198W        W20045   2.140  16.659  11.914 -0.1226  0.0947  0.2202
 3199W        W20046   9.568   8.102   3.415  0.2091  0.3694  0.1953
 3200W        W20047   9.227   7.931  10.789 -0.0401 -0.1243 -0.3549
 3201W        W20048   6.167  15.993   3.493 -0.0601  0.1126 -0.1051
 3202W        W20049   2.906   5.059   2.012 -0.1443 -0.2284  0.2459
 3203W        W20050   5.042   8.460   3.050 -0.2751  0.0203 -0.0659
 3204W        W20051   4.767   4.357   0.288  0.0349 -0.1863 -0.4483
 3205W        W20052  11.712   9.833   9.003  0.0713 -0.0112  0.1829
 3206W        W20053  13.936  14.648   1.124 -0.0122 -0.2325  0.0268
 3207W        W20054   7.796  10.913  13.719 -0.1291 -0.0608  0.0088
 3208W        W20055  19.126   3.005  12.084  0.2453  0.0442 -0.0357
 3209W        W20056   5.741  12.555   2.650 -0.1806  0.0786  0.3882
 3210W        W20057  15.321   5.139   0.004  0.1959  0.1127  0.0213
 3211W        W20058   7.915   1.037  12.708 -0.6201  0.3448 -0.1640
 3212W        W20059   3.139   9.359   1.418  0.0230  0.3596  0.1022
 3213W        W20060   9.055  19.758  10.096  0.3282 -0.1176 -0.1435
 3214W        W20061  18.599  14.138  11.249  0.2486  0.0784  0.1795
 3215W        W20062  15.867  14.340   2.165  0.2879  0.2254 -0.0802
 3216W        W20063  15.921  15.897   3.920  0.2906 -0.0074  0.3397
 3217W        W20064   0.582  17.244   2.289  0.0348 -0.1973 -0.1206
 3218W        W20065   4.709  18.063  12.625 -0.1577 -0.2629 -0.0676
 3219W        W20066   7.886   9.423   1.395 -0.1693 -0.0296  0.2795
 3220W        W20067  18.459   9.333  11.566  0.2554 -0.2049 -0.0524
 3221W        W20068  16.115   7.579  14.241  0.0258 -0.1426 -0.4617
 3222W        W20069   3.155  11.184  11.000  0.3613 -0.1839  0.3691
 3223W        W20070  18.502  12.808  11.665  0.3330  0.1995  0.0935
 3224W        W20071   1.393   5.911   1.359  0.0947  0.1001  0.0985
 3225W        W20072  16.945  17.594  10.395  0.1125  0.0410  0.3953
 3226W        W20073   9.365   4.287   3.598  0.0006 -0.1858  0.0041
 3227W        W20074  17.459   2.978  10.372  0.2119 -0.2571 -0.2060
 3228W        W20075  10.755  11.863  12.874  0.0439 -0.0566 -0.0051
 3229W        W20076  11.313  16.792  14.285  0.3414 -0.1875  0.1363
 3230W        W20077  19.591   4.871   0.169  0.0359  0.1757  0.1120
 3231W        W20078   4.196   4.739  11.860  0.3438  0.1377 -0.2775
 3232W        W20079   8.681  18.636   1.550  0.1780  0.1641 -0.5725
 3233W        W20080   6.846  16.932   0.071  0.1508  0.0357 -0.1348
 3234W        W20081   5.612   8.682   0.884  0.0060  0.0536 -0.2166
 3235W        W20082  17.439   0.035  13.129 -0.1686 -0.0485  0.2432
 3236W        W20083   3.233  12.160   2.861 -0.0787  0.1630  0.0001
 3237W        W20084   4.262   4.979  11.053  0.0192  0.1548 -0.0970
 3238W        W20085  10.444   7.295   0.748  0.0542 -0.1545  0.0887
 3239W        W20086  16.325  17.045   4.219 -0.0492  0.0527 -0.2673
 3240W        W20087  10.595   2.997  11.876 -0.1457 -0.2873 -0.2696
 3241W        W20088  16.194   3.350   1.885 -0.0724  0.2825  0.1631
 3242W        W20089  10.720   6.205   3.534 -0.1288 -0.2292  0.0016
 3243W        W20090  17.483  19.862   4.328 -0.0831 -0.4256 -0.2515
 3244W        W20091   9.560   1.204   3.939 -0.0724  0.0999  0.1153
 3245W        W20092  17.948   8.940   1.662 -0.0837 -0.0678 -0.1210
 3246W        W20093   4.044  16.402   2.453 -0.0535 -0.1161 -0.0299
 3247W        W20094   2.976  16.443   0.670 -0.0034 -0.0353 -0.0708
 3248W        W20095  15.203  18.402  12.783 -0.2948 -0.1312  0.5044
 3249W        W20096  18.759   6.665   2.221  0.1172  0.0695 -0.0727
 3250W        W20097   8.339   5.763   1.862  0.2702 -0.4112  0.4000
 3251W        W20098   8.746  15.759   9.994  0.0806  0.4137 -0.2176
 3252W        W20099   5.350   1.854   3.728  0.0437 -0.2006 -0.1799
 3253W        W20100  12.421  13.818  14.173  0.4834 -0.1694 -0.1908
 3254W        W20101  18.500  17.878   2.970 -0.0232  0.2764  0.0773
 3255W        W20102  19.786  17.304   1.099  0.1250  0.1000  0.1344
 3256W        W20103   8.006  15.631   2.303  0.1839 -0.1994 -0.1053
 3257W        W20104  19.157   1.855  12.230  0.0563 -0.3370  0.0498
 3258W        W20105   4.127   7.771  11.550 -0.1021 -0.2441  0.0732
 3259W        W20106  10.509  15.976  10.030  0.1243 -0.0434  0.2274
 3260W        W20107   6.805  18.407   0.338  0.0772  0.1656  0.0038
 3261W        W20108   5.544  12.846  10.978  0.0324 -0.1279 -0.0785
 3262W        W20109   7.231  14.327   0.754 -0.3578  0.1212 -0.0236
 3263W        W20110  14.291   3.119   4.933  0.1639  0.0604  0.3525
 3264W        W20111  10.766   9.274  12.242  0.1123  0.1523  0.1146
 3265W        W20112   6.032  12.375  13.742 -0.0653 -0.3591  0.4947
 3266W        W20113  19.296   5.767   2.575 -0.5077 -0.2401  0.1024
 3267W        W20114  12.843  12.995  11.169 -0.1219 -0.2191 -0.0052
 3268W        W20115  18.311   9.937  13.361 -0.0153 -0.0657 -0.0892
 3269W        W20116  19.766  12.173   4.880 -0.0281 -0.0352 -0.0905
 3270W        W20117  16.914   0.776   2.858  0.1515 -0.0382  0.0672
 3271W        W20118  14.250  18.480  11.916  0.0819  0.1202 -0.0687
 3272W        W20119  11.148   2.230  13.273 -0.2212 -0.3555  0.0847
 3273W        W20120  13.144   9.419   1.069 -0.0985 -0.0805  0.2999
 3274W        W20121  12.607  19.307   5.451 -0.0301  0.1108 -0.1160
 3275W        W20122   5.255   5.747   1.901 -0.3991 -0.1326 -0.1264
 3276W        W20123  13.857  13.028   1.564 -0.0056  0.2833  0.0526
 3277W        W20124   0.274  12.421   4.453 -0.1992  0.2049  0.0454
 3278W        W20125   6.532  17.055  10.005 -0.1563 -0.2360 -0.0606
 3279W        W20126  14.306   4.707  12.778 -0.1074 -0.1960  0.1300
 3280W        W20127   1.039   9.994   3.447  0.1297 -0.3069 -0.0633
 3281W        W20128  15.938   0.203   4.893 -0.0061  0.1005  0.1697
 3282W        W20129   8.087  15.165  10.546  0.0664  0.2319  0.3946
 3283W        W20130   2.328  18.374   1.626  0.2785 -0.3278 -0.1143
 3284W        W20131   6.837   6.381  11.418  0.1119  0.0225  0.0996
 3285W        W20132   6.858   1.351  10.184 -0.1977 -0.3434 -0.1186
 3286W        W20133   4.661  13.892   4.337 -0.0674  0.2810 -0.0159
 3287W        W20134   9.228   1.423  11.745  0.1338  0.0403  0.0851
 3288W        W20135  17.841  12.976   3.754  0.1461 -0.0396 -0.1209
 3289W        W20136   6.893  18.857  13.538  0.0098 -0.0189  0.0044
 3290W        W20137  18.287   2.062   9.501  0.0551  0.1858  0.0204
 3291W        W20138   5.382   9.620   5.238 -0.1384 -0.2328 -0.0472
 3292W        W20139  17.548   4.594   4.363  0.0454  0.2422 -0.0082
 3293W        W20140  13.164  16.888   1.348 -0.3091  0.0670  0.1417
 3294W        W20141  10.789  14.467   1.304 -0.0573 -0.2641 -0.0028
 3295W        W20142   2.091  14.614   4.377 -0.0019  0.2199 -0.2461
 3296W        W20143  13.529  14.922   1.353  0.5403  0.3541  0.0315
 3297W        W20144   4.839  19.743  13.932  0.0234  0.2007 -0.2580
 3298W        W20145  11.042  11.635  13.915 -0.0437 -0.0732  0.1289
 3299W        W20146   3.451  18.023  10.212  0.0125 -0.1156 -0.1498
 3300W        W20147  10.445   7.180   1.683 -0.1803  0.1757 -0.1378
 3301W        W20148   7.899   1.508   1.236  0.1630 -0.0290  0.3123
 3302W        W20149  16.053  19.914  12.524  0.0954  0.2790  0.0664
 3303W        W20150   7.416  10.292   0.480 -0.2088 -0.2848  0.0891
 3304W        W20151  18.681  17.824   0.213 -0.2449 -0.0961 -0.1525
 3305W        W20152   9.044   5.579  11.524  0.1276  0.2328 -0.1321
 3306W        W20153   7.872  13.237   0.507 -0.0403 -0.0443 -0.0594
 3307W        W20154   6.950  12.003   2.874  0.1199  0.4962 -0.0020
 3308W        W20155   4.426  17.726   3.730 -0.5373 -0.4368  0.1130
 3309W        W20156   5.281   5.059  12.269  0.1699 -0.2912 -0.1137
 3310W        W20157   4.616  16.924   9.305 -0.1749  0.1255 -0.2273
 3311W        W20158   6.647  14.372  14.212 -0.0053 -0.1421 -0.1470
 3312W        W20159  11.522  14.236   4.532 -0.1795 -0.0381 -0.0501
 3313W        W20160   3.191  12.175   2.304  0.0262  0.0467 -0.0011
 3314W        W20161   8.538   4.230  11.285 -0.3612 -0.1562 -0.1816
 3315W        W20162  16.470  11.124   1.399  0.3089 -0.0607  0.0271
 3316W        W20163  17.318   7.212  10.755  0.0290 -0.2184  0.0394
 3317W        W20164   2.866  15.203  13.777  0.0810 -0.0012 -0.0513
 3318W        W20165   6.654  19.050  11.931  0.0224 -0.2244  0.2601
 3319W        W20166  10.121   4.964   2.428 -0.1170 -0.1854 -0.2123
 3320W        W20167   7.858  17.034  13.098  0.1828 -0.2775 -0.1309
 3321W        W20168   9.799   9.808   8.950  0.0823  0.0473  0.1601
 3322W        W20169   2.133  17.350  10.837 -0.3729  0.1808  0.0149
 3323W        W20170   1.163  12.429  13.454 -0.0895 -0.0503  0.1708
 3324W        W20171  14.414   5.572  11.926  0.2938 -0.0926 -0.1837
 3325W        W20172  10.015   2.412   4.685  0.2676  0.1173  0.0604
 3326W        W20173   2.864   7.759  10.805 -0.4358  0.3104 -0.1946
 3327W        W20174   4.882   8.306   3.494 -0.0947 -0.0162  0.1168
 3328W        W20175  18.993   5.809   0.745 -0.2866 -0.2568  0.0992
 3329W        W20176   1.007  11.595   4.001  0.4756 -0.1077  0.0525
 3330W        W20177   1.207  14.697   3.505 -0.0350  0.2707 -0.1453
 3331W        W20178   5.495  19.524   3.778  0.1447 -0.2320 -0.0803
 3332W        W20179  11.083  11.730  12.003 -0.1634  0.0252 -0.2471
 3333W        W20180  19.516  13.685  10.017 -0.0169  0.0934  0.0951
 3334W        W20181   5.260   4.226  14.063  0.0878  0.3115 -0.0774
 3335W        W20182   6.566  13.327  10.109 -0.0160 -0.1200 -0.1446
 3336W        W20183  14.154   5.218  12.602 -0.2783  0.2913 -0.1748
 3337W        W20184  11.556   7.970  13.157 -0.1333 -0.0735  0.3040
 3338W        W20185  18.705   5.233  12.534  0.0618 -0.3178 -0.1956
 3339W        W20186   1.703  10.929   1.987  0.0976  0.0906 -0.0207
 3340W        W20187  13.758  12.255   4.219  0.1400 -0.1466  0.0759
 3341W        W20188   4.448   9.684  12.005 -0.0193 -0.0463  0.2898
 3342W        W20189  10.851  17.200  13.691 -0.1235 -0.1737  0.2682
 3343W        W20190   9.024   4.497   1.031  0.0133  0.1153  0.0024
 3344W        W20191   5.049  15.293   3.126  0.2418  0.0650 -0.3254
 3345W        W20192  14.939   7.833  13.283  0.0924 -0.2407  0.0195
 3346W        W20193  11.651   2.860  10.892 -0.0605 -0.1282  0.0653
 3347W        W20194   2.428   5.491   9.933 -0.1909  0.0749 -0.2482
 3348W        W20195   5.602   3.345   3.568  0.3291  0.0638  0.1777
 3349W        W20196   9.479   0.237  11.672 -0.0121  0.1251  0.0384
 3350W        W20197  13.119  10.500   8.675  0.1206 -0.0611 -0.3512
 3351W        W20198  12.473  18.253  11.149  0.4934 -0.0826 -0.3023
 3352W        W20199   0.085  16.377  11.183  0.1455 -0.1028 -0.0102
 3353W        W20200   5.302   4.137  10.420 -0.0552 -0.1821 -0.1144
 3354W        W20201   8.382  16.335  10.530  0.2005 -0.1453 -0.0339
 3355W        W20202  15.918   3.582   3.876  0.2094 -0.1411 -0.4771
 3356W        W20203  19.579  19.303   2.026 -0.0790  0.3774  0.0973
 3357W        W20204   9.280   7.456  13.588 -0.4649  0.1488 -0.1995
 3358W        W20205   7.711   1.487   1.696 -0.1419 -0.0568 -0.0844
 3359W        W20206  12.053  10.224  12.120 -0.2796  0.3137 -0.2302
 3360W        W20207   9.969   1.097  11.216  0.0265  0.0472  0.1015
 3361W        W20208   8.962  15.725   0.257 -0.0472  0.0565 -0.1846
 3362W        W20209   0.312  11.150   2.726  0.2362  0.0163 -0.3338
 3363W        W20210   4.373   0.913   4.643  0.2174  0.1063  0.1142
 3364W        W20211  18.613  15.842  13.963 -0.1686 -0.2397  0.1008
 3365W        W20212  17.988  15.582  10.374 -0.0381 -0.1018  0.0627
 3366W        W20213  17.957   0.186   3.432 -0.1617  0.1323  0.2087
 3367W        W20214   9.205  12.937   0.337  0.1235  0.0844 -0.2230
 3368W        W20215  17.116   0.310   2.996  0.0189 -0.0164 -0.1990
 3369W        W20216   9.545   3.892  10.994  0.0376  0.1504  0.3664
 3370W        W20217   0.395  10.904   0.902 -0.0041  0.0774 -0.3722
 3371W        W20218   4.863   1.752  13.780  0.0012 -0.1696 -0.1887
 3372W        W20219  18.402  10.205  11.701 -0.2377  0.1043  0.0294
 3373W        W20220  16.378   2.924   2.571  0.2091  0.1204  0.1746
 3374W        W20221  14.158   2.247   4.880 -0.5253  0.0965  0.0775
 3375W        W20222   5.300   4.024   4.339  0.0162 -0.0581 -0.0318
 3376W        W20223   0.204   7.087   0.317 -0.0205  0.0734  0.1175
 3377W        W20224  11.311  12.909   2.940  0.2891  0.2278 -0.0274
 3378W        W20225   9.616   8.195  11.293 -0.3359 -0.1211 -0.1201
 3379W        W20226  19.375   9.281  12.920 -0.1434 -0.0020  0.0810
 3380W        W20227  19.612   0.079   4.518 -0.5115  0.2137 -0.2872
 3381W        W20228   9.215  16.240   3.935 -0.1095 -0.1542  0.1140
 3382W        W20229   9.328  10.286   4.233 -0.2084  0.1491 -0.2506
 3383W        W20230   9.648  11.374   1.258 -0.3076 -0.0411  0.1907
 3384W        W20231  11.589  12.245  12.768 -0.0715  0.2920 -0.1940
 3385W        W20232  10.524  13.489  13.269  0.1791  0.1084 -0.0203
 3386W        W20233  11.525   7.417  11.933 -0.2516 -0.2419  0.0247
 3387W        W20234   1.372   8.009  14.229 -0.0976 -0.1499  0.0076
 3388W        W20235  13.439   5.189  11.584 -0.1054 -0.1207 -0.1388
 3389W        W20236   6.315   6.085  11.279  0.0738  0.0463  0.0666
 3390W        W20237  11.673  13.828   2.054 -0.5498  0.0228  0.0827
 3391W        W20238   6.347  15.439   0.639 -0.0335  0.2766 -0.2414
 3392W        W20239  15.793   7.142   3.118 -0.0973  0.1513 -0.1772
 3393W        W20240  12.096   6.198   0.979  0.0715 -0.2004 -0.1837
 3394W        W20241   3.925  17.206   4.438 -0.2420  0.3178 -0.0903
 3395W        W20242  13.193  10.678  11.188 -0.1246  0.1868 -0.1536
 3396W        W20243  16.758  10.484  10.768  0.1232  0.0897  0.0457
 3397W        W20244   9.658   6.905  11.355  0.0018  0.2195  0.2951
 3398W        W20245  19.650  16.074   4.692  0.1029 -0.1417 -0.2963
 3399W        W20246   9.390  14.798  12.304  0.2416 -0.0343 -0.3215
 3400W        W20247   7.105  14.115   2.341  0.0345  0.1508  0.1264
 3401W        W20248  11.599   7.621   4.404 -0.1300  0.1710 -0.0569
 3402W        W20249  11.696   0.314  11.056  0.0450 -0.0402  0.3557
 3403W        W20250  17.117  11.491  13.533 -0.1693 -0.0498 -0.2269
 3404W        W20251   1.968  18.706  11.256  0.0178 -0.1756 -0.0617
 3405W        W20252  19.643  14.290  11.705  0.1860  0.0863 -0.2357
 3406W        W20253   6.099   7.430  11.217 -0.2372  0.0778 -0.4146
 3407W        W20254   1.868  15.556  14.057  0.1360 -0.1742  0.2299
 3408W        W20255  18.497   4.545  11.324 -0.1274  0.2261  0.1028
 3409W        W20256   4.469  15.043  11.971  0.0448 -0.0753 -0.1325
 3410W        W20257  19.089   4.992   2.924  0.0521 -0.1436  0.1269
 3411W        W20258  19.757   2.653   1.850  0.5358  0.1964 -0.1610
 3412W        W20259  15.816  13.046  14.296 -0.1188 -0.0763 -0.1260
 3413W        W20260  19.722  15.954  11.220  0.4814 -0.1778 -0.0594
 3414W        W20261  16.836   0.891  12.801  0.0267 -0.0063  0.0759
 3415W        W20262   6.612   8.829  13.495  0.0336  0.0343 -0.0432
 3416W        W20263   1.207   8.507   0.322 -0.2524 -0.0890 -0.3580
 3417W        W20264  16.099  11.509   1.642  0.0381 -0.1264 -0.1558
 3418W        W20265   2.636   2.009   0.042  0.2669  0.3752  0.0246
 3419W        W20266  12.413   8.278  10.686  0.0678  0.1463 -0.2784
 3420W        W20267   9.922   0.989   2.082 -0.0852 -0.2390  0.1046
 3421W        W20268   5.522  14.867   2.306 -0.3765 -0.0884 -0.2295
 3422W        W20269  16.409  15.153  10.034 -0.0906 -0.1341  0.2505
 3423W        W20270  18.662   3.445  11.341  0.0672 -0.1644  0.0040
 3424W        W20271   6.389   1.447  10.259 -0.1039 -0.1909 -0.1317
 3425W        W20272  10.286   7.470  12.778 -0.1216 -0.1835  0.1814
 3426W        W20273   5.003   1.790  10.221 -0.0297  0.0779 -0.1183
 3427W        W20274  18.590   5.281   1.241  0.1152  0.0254 -0.2020
 3428W        W20275   2.976  11.545   4.358  0.0849  0.3007 -0.0561
 3429W        W20276   3.416   4.191   3.840  0.1702  0.3663 -0.0488
 3430W        W20277   8.094   9.225  13.834 -0.0757 -0.0499 -0.0485
 3431W        W20278   8.216   9.313   0.767  0.1256 -0.1287  0.1364
 3432W        W20279   9.779  18.446  12.132 -0.4364  0.0085 -0.0385
 3433W        W20280   0.259  11.978   0.425  0.0470 -0.0592  0.1545
 3434W        W20281   3.267  12.334   3.801  0.1026 -0.2924 -0.0660
 3435W        W20282   7.865   0.705   2.989 -0.0338  0.0547  0.6767
 3436W        W20283   0.615  16.732  12.849  0.0392 -0.0240  0.0762
 3437W        W20284  11.901   0.308   0.336 -0.2804 -0.0947  0.2463
 3438W        W20285  17.152  18.396  10.442 -0.1156 -0.0986  0.1570
 3439W        W20286   2.456   3.898  12.864  0.0373  0.0396 -0.0523
 3440W        W20287   1.902  16.870   0.082  0.3787 -0.0130 -0.0191
 3441W        W20288  14.846   6.749   0.673  0.1652  0.1186 -0.0722
 3442W        W20289   6.281   7.448   4.803  0.0191 -0.1787  0.2100
 3443W        W20290  12.987  16.916  13.024 -0.2980  0.4006 -0.3147
 3444W        W20291  13.520  12.255  12.074  0.0240 -0.0254 -0.0313
 3445W        W20292  10.890   6.607  13.331  0.2341  0.0429  0.0008
 3446W        W20293   8.699  10.513   1.183 -0.3627  0.2808 -0.3243
 3447W        W20294  13.799   6.881   9.243 -0.1287  0.2242 -0.0431
 3448W        W20295   2.919  14.303   9.726  0.1101  0.3233 -0.2541
 3449W        W20296  12.952  15.845   1.654 -0.1094  0.3414  0.1034
 3450W        W20297  18.046   5.742   3.321 -0.1908 -0.2120 -0.3041
 3451W        W20298   4.886  19.068   3.616  0.0444 -0.0954 -0.3486
 3452W        W20299  18.744  17.507   0.678 -0.1820 -0.0885  0.1076
 3453W        W20300   3.417  17.210   3.763  0.2047  0.1218 -0.2703
 3454W        W20301  14.331   2.622   3.623  0.0762 -0.0101 -0.2891
 3455W        W20302  11.393  13.825  13.793  0.0533  0.0253  0.0495
 3456W        W20303   8.259  12.403   0.777 -0.0841  0.2981  0.0627
 3457W        W20304  14.994  11.525   0.856 -0.0172 -0.2122  0.0912
 3458W        W20305  17.780   6.501  10.352  0.3355 -0.3967  0.0806
 3459W        W20306   3.963  19.443  11.235  0.0639 -0.2323 -0.5221
 3460W        W20307  17.439  15.093   4.631  0.2227 -0.3164  0.1414
 3461W        W20308   8.833  13.531  12.871  0.1759 -0.0261  0.0631
 3462W        W20309   6.430  14.788   3.493  0.3427  0.0342 -0.0489
 3463W        W20310  18.371  16.399   4.821  0.0840  0.1241  0.1473
 3464W        W20311   5.058   7.860   3.583  0.0637 -0.0075 -0.1375
 3465W        W20312   7.258  15.602   2.038 -0.1779 -0.0935 -0.0050
 3466W        W20313   8.517  15.041   2.935 -0.3013  0.0884 -0.0043
 3467W        W20314   7.726   3.189  14.028  0.1213 -0.1238  0.1823
 3468W        W20315   5.638   3.362   3.002  0.2767  0.2906 -0.0772
 3469W        W20316   7.973   4.723   1.427  0.3216  0.1646 -0.0603
 3470W        W20317  10.116  16.663   1.919  0.4029  0.0092  0.1103
 3471W        W20318   7.639  12.915   1.972 -0.6819  0.2221 -0.0464
 3472W        W20319   1.844  18.387   3.906 -0.2110 -0.2459  0.0835
 3473W        W20320   3.183   5.880   0.670 -0.3111  0.2734  0.0354
 3474W        W20321  18.585   2.906   0.772 -0.4330  0.3328  0.0242
 3475W        W20322   8.229  15.928  13.259  0.1891  0.1419  0.2110
 3476W        W20323   9.494   2.379  14.267 -0.1067  0.1447 -0.0348
 3477W        W20324  15.704   3.125   3.815  0.3464  0.1025  0.1766
 3478W        W20325  15.231  17.657   1.333  0.3598 -0.3207 -0.2256
 3479W        W20326  10.732   3.937   2.177  0.1854  0.2609  0.0925
 3480W        W20327  18.730  12.006   2.120  0.1266 -0.0355 -0.1302
 3481W        W20328  12.699   4.004   4.976  0.1362  0.0283  0.0557
 3482W        W20329  13.330   2.616  13.178 -0.0048  0.0351 -0.0993
 3483W        W20330   2.802   7.833  13.090  0.2514 -0.2320  0.0882
 3484W        W20331   0.757  12.282  10.083 -0.2929  0.0755 -0.0164
 3485W        W20332   8.227   1.028  14.068  0.0148  0.2617  0.3078
 3486W        W20333   5.599  15.099   3.796  0.1100 -0.3644 -0.2422
 3487W        W20334   9.419  17.965   2.090 -0.1317 -0.0623 -0.1468
 3488W        W20335   5.583   6.247  11.949 -0.0342  0.1491  0.1787
 3489W        W20336  11.574  16.228   2.446  0.2883  0.0265  0.0377
 3490W        W20337   2.747   6.866  12.918  0.0759 -0.0128 -0.1090
 3491W        W20338   1.569  11.866   4.264 -0.0763  0.1460 -0.4441
 3492W        W20339   3.106  18.925  11.741  0.1638  0.0151  0.0881
 3493W        W20340  15.101   1.472   3.701  0.2306  0.0877  0.3501
 3494W        W20341   0.731   4.325  12.323  0.2429 -0.3173  0.0294
 3495W        W20342   1.157  10.526  11.851 -0.1181 -0.3003  0.2215
 3496W        W20343  10.180  19.844  10.365 -0.0869 -0.2845 -0.2051
 3497W        W20344  10.483   9.707   4.330 -0.1202 -0.2926  0.1834
 3498W        W20345   7.031   3.926  13.447 -0.2299  0.0620 -0.1442
 3499W        W20346   3.714   1.652   4.956 -0.2977 -0.2126  0.3131
 3500W        W20347   4.861  15.332   1.567  0.1229 -0.0994 -0.0426
 3501W        W20348   1.046   6.484   4.081 -0.1789 -0.0654 -0.0374
 3502W        W20349   4.664  10.242   2.700  0.3026  0.3478 -0.0091
 3503W        W20350   7.873   1.698  13.656  0.1426 -0.1401  0.2752
 3504W        W20351   2.498   2.722  10.018 -0.0136 -0.1915 -0.1935
 3505W        W20352  13.024  16.794  10.107  0.0197 -0.0280  0.2152
 3506W        W20353  13.048   7.218   1.444  0.0647 -0.1042 -0.2411
 3507W        W20354  17.534   3.284   1.371  0.1175  0.2670  0.2475
 3508W        W20355  15.524   9.067   2.356  0.2836  0.2379 -0.1966
 3509W        W20356   1.682   9.983  12.478  0.4120 -0.2251  0.0892
 3510W        W20357   6.782  11.491   2.837  0.0949  0.2654 -0.1648
 3511W        W20358   0.166  16.446   2.806  0.1437 -0.4007 -0.0110
 3512W        W20359   5.900  12.296   3.675  0.0367  0.0361 -0.1323
 3513W        W20360  10.718  13.510   0.725  0.1492 -0.1944  0.1923
 3514W        W20361   7.265  18.060   1.710 -0.0965  0.1329 -0.2669
 3515W        W20362  10.010   3.968   1.557  0.1118  0.1588  0.3158
 3516W        W20363   5.228   8.502  11.207  0.0400  0.2088 -0.0008
 3517W        W20364  14.319  17.623   2.509  0.0615 -0.2583  0.0408
 3518W        W20365  10.652  14.870   4.386  0.3633  0.2101  0.1056
 3519W        W20366  13.366  18.754  11.712  0.5107 -0.1118  0.0433
 3520W        W20367   0.295   9.270   5.245 -0.0369  0.0012  0.0868
 3521W        W20368   4.989   0.592   1.841 -0.0176  0.2418  0.1648
 3522W        W20369   9.999  15.202  13.974  0.1018 -0.3339 -0.3183
 3523W        W20370   9.433   1.972  13.364 -0.3394  0.0579  0.1157
 3524W        W20371  11.835  15.442   1.954  0.2824  0.3651 -0.1037
 3525W        W20372  15.130   7.707  11.160 -0.2550 -0.0709 -0.1144
 3526W        W20373  13.006  14.359  12.634  0.3433 -0.0507  0.2380
 3527W        W20374   4.917   0.179  11.367  0.0431 -0.0986 -0.2550
 3528W        W20375  10.026   4.002  12.869  0.0727  0.1151  0.2249
 3529W        W20376  15.562  10.705   0.614 -0.0345 -0.1181 -0.3868
 3530W        W20377  13.610  17.651  13.384 -0.2502  0.0519 -0.1668
 3531W        W20378  12.403   5.993   1.439 -0.0766  0.1674 -0.0238
 3532W        W20379  15.357   8.630  10.781  0.3168  0.1539  0.0984
 3533W        W20380   3.818   7.942   4.178 -0.0890 -0.2863 -0.0772
 3534W        W20381   7.864  11.707   2.321  0.0758 -0.1223  0.4254
 3535W        W20382  16.678   8.222   0.717 -0.2357  0.0705 -0.2049
 3536W        W20383  14.340  10.228   0.550 -0.0003  0.1964  0.2392
 3537W        W20384   3.607  14.114  10.052 -0.1156 -0.0840 -0.1191
 3538W        W20385   2.300  12.358   1.857  0.0374 -0.0858 -0.1815
 3539W        W20386   3.164  10.016  12.352  0.2614 -0.1700 -0.1509
 3540W        W20387   1.703   9.746  13.362 -0.1389  0.0890  0.3900
 3541W        W20388   1.477   6.916  10.343  0.1597  0.0781 -0.1746
 3542W        W20389   1.454   0.046   0.252 -0.3713  0.0834  0.0073
 3543W        W20390   6.899  14.247  10.635  0.3754 -0.1004 -0.1215
 3544W        W20391  14.905   4.683   3.640  0.0126 -0.2405  0.2666
 3545W        W20392   3.188   0.364   3.128  0.0847 -0.0882  0.1668
 3546W        W20393   7.412   8.324   0.330  0.0843 -0.1527  0.0889
 3547W        W20394  11.361   6.402  13.297 -0.4062  0.4118  0.1322
 3548W        W20395  18.129  17.529   3.232  0.0351  0.0655  0.5169
 3549W        W20396   1.685  15.165  12.009 -0.1370 -0.0504  0.0483
 3550W        W20397   9.862  13.797   2.087 -0.1627  0.0602 -0.1133
 3551W        W20398   2.475   7.983   0.701 -0.1230 -0.1552 -0.0144
 3552W        W20399   7.014  13.742  11.838  0.1846 -0.2492  0.1072
 3553W        W20400   9.606  17.895  11.488  0.2864 -0.1934  0.3094
 3554W        W20401   1.535   9.448  11.087  0.0493  0.1312 -0.1329
 3555W        W20402  15.521   8.317   4.800  0.0257 -0.2885  0.0319
 3556W        W20403  13.605  17.624   3.377 -0.0312 -0.4498 -0.2994
 3557W        W20404   1.752  19.832  11.274  0.1880 -0.2221  0.0024
 3558W        W20405   5.081  16.738  11.635  0.1751  0.0912 -0.0474
 3559W        W20406  13.418   4.739   3.874  0.0206 -0.3818  0.1524
 3560W        W20407   6.992  17.193   1.999  0.3101  0.1119  0.0010
 3561W        W20408   9.367  14.112   0.177 -0.2166  0.1141  0.1927
 3562W        W20409  10.589  15.806   1.597 -0.0086 -0.0868 -0.1077
 3563W        W20410  16.356   1.323   3.668 -0.1947 -0.1298  0.2100
 3564W        W20411   3.787   9.654   0.127 -0.0278 -0.0360 -0.5120
 3565W        W20412  15.399  15.598  10.434 -0.0570 -0.1370  0.0841
 3566W        W20413   8.704   9.441  13.598  0.1914  0.1491  0.0461
 3567W        W20414  18.154   1.559  10.829  0.2986 -0.2000  0.3903
 3568W        W20415   9.492   8.692   8.805 -0.0380  0.2982 -0.5523
 3569W        W20416  16.191  11.757  12.177 -0.1537  0.0894 -0.1304
 3570W        W20417  18.138   6.756  11.133 -0.1478  0.2738 -0.2423
 3571W        W20418  18.430  15.992  13.466 -0.1306  0.0595  0.1465
 3572W        W20419   0.167   9.728  11.099  0.0707  0.1986 -0.0429
 3573W        W20420  10.627  16.014  13.581 -0.1735 -0.3732 -0.1756
 3574W        W20421  14.401   7.071  12.326 -0.0918  0.1588  0.0914
 3575W        W20422  18.253  10.645  10.085  0.1635 -0.1654 -0.1021
 3576W        W20423  13.727  11.168  12.943  0.0977  0.0222  0.1276
 3577W        W20424   9.535  13.313  10.626  0.3837 -0.4060 -0.2995
 3578W        W20425  13.042  15.887  13.860  0.3415 -0.0339  0.0309
 3579W        W20426  12.063  19.258  11.833 -0.1523 -0.0433  0.3368
 3580W        W20427  15.411   4.376   2.798  0.0755  0.1389 -0.0958
 3581W        W20428   4.018   7.862  12.037 -0.2786 -0.1809  0.2170
 3582W        W20429   4.946   1.431  10.564  0.0284 -0.0012  0.0365
 3583W        W20430   4.247   1.449  12.117  0.3893 -0.1591 -0.3707
 3584W        W20431  11.801  13.058   9.556 -0.0081  0.3493  0.0193
 3585W        W20432  17.682   3.674  10.950  0.1737 -0.0364 -0.1481
 3586W        W20433  16.315  15.201   1.557  0.0919  0.3476 -0.2687
 3587W        W20434  13.165   2.613   1.552  0.0199 -0.1470  0.0983
 3588W        W20435   0.501   9.424  12.618  0.0668 -0.1434  0.1800
 3589W        W20436  16.175   9.761  12.476  0.1884 -0.0145  0.2621
 3590W        W20437   4.868   3.396   1.523 -0.0530  0.1407 -0.0962
 3591W        W20438   1.276   1.728   0.853  0.1279 -0.2257 -0.2549
 3592W        W20439   3.187  10.520   1.874 -0.0036 -0.0252  0.1517
 3593W        W20440   5.091   6.328  12.144  0.0736 -0.1319 -0.0397
 3594W        W20441  13.116   3.065  13.712  0.0665  0.2943 -0.0481
 3595W        W20442  19.051  19.002   4.263  0.4543  0.2315  0.2313
 3596W        W20443  15.240   4.097   0.816  0.0305 -0.3081  0.0360
 3597W        W20444  19.495  18.657   4.306  0.1483 -0.1228 -0.3810
 3598W        W20445   2.109  10.433   1.908  0.1730 -0.1560 -0.0703
 3599W        W20446  15.291  15.977  10.021 -0.2906  0.0007 -0.0440
 3600W        W20447  15.931   7.214  11.578  0.3081 -0.5411  0.2281
 3601W        W20448  15.885  10.208  12.370 -0.4850 -0.0814 -0.0907
 3602W        W20449  12.244   8.116   0.988 -0.2156 -0.1362  0.3463
 3603W        W20450  10.135   9.373   4.387  0.1724 -0.1023 -0.2922
 3604W        W20451  16.392  10.497  12.651  0.3393 -0.1573  0.0005
 3605W        W20452  14.753   4.334  10.808 -0.1979  0.2360  0.1015
 3606W        W20453  17.068  16.971  10.841 -0.2542 -0.1416  0.1962
 3607W        W20454  17.749   3.948  11.361  0.0250  0.3931  0.0869
 3608W        W20455  13.928   0.672   1.986  0.2640  0.0012  0.0888
 3609W        W20456   4.853  18.337   2.057  0.0673  0.2409  0.1217
 3610W        W20457   0.298  13.456  10.505 -0.0321 -0.0302  0.0680
 3611W        W20458   0.103   9.306   1.566  0.2630  0.0393  0.0557
 3612W        W20459  10.654   0.029   1.314 -0.1110  0.2352  0.3041
 3613W        W20460  11.724  11.060   0.143 -0.2298  0.0183  0.2385
 3614W        W20461   2.451   7.413   0.168  0.3172  0.1973 -0.1346
 3615W        W20462  18.515   0.723   1.978  0.0159 -0.2329  0.1522
 3616W        W20463  10.047  15.890   1.507 -0.0308  0.0019  0.1911
 3617W        W20464  13.144   4.362   4.082  0.1962 -0.0528  0.2329
 3618W        W20465  10.512  18.027  12.682  0.1190 -0.0234  0.0124
 3619W        W20466   3.321   1.894   2.776  0.1692 -0.0230 -0.0435
 3620W        W20467  10.388  13.340   2.844  0.0466  0.0594  0.0482
 3621W        W20468  14.183   9.876  11.062 -0.0878 -0.0548  0.1341
 3622W        W20469   7.855   4.020   3.537  0.1076  0.2607 -0.1013
 3623W        W20470   2.131   3.678  12.302  0.1546  0.0130 -0.0141
 3624W        W20471  16.753   0.009   0.663 -0.0287 -0.1749 -0.1776
 3625W        W20472  14.771  15.381  10.443  0.0065 -0.1797  0.3569
 3626W        W20473  13.156  16.189   0.293 -0.1618 -0.0091  0.0891
 3627W        W20474  15.419   3.936   2.315 -0.1145  0.1452  0.2767
 3628W        W20475  16.756  16.222  11.655  0.2163  0.0064 -0.1136
 3629W        W20476   2.174  18.440   2.117 -0.0792  0.3431  0.0057
 3630W        W20477   0.910  16.581   3.966 -0.1930  0.1180 -0.0171
 3631W        W20478   2.644  11.558  10.255  0.0280  0.4522  0.0636
 3632W        W20479  12.794  16.195  11.279  0.0115  0.0844  0.1617
 3633W        W20480   7.726  14.245  13.174 -0.0615  0.1854  0.2540
 3634W        W20481   0.622   7.399  11.164 -0.0851 -0.0928  0.1805
 3635W        W20482  15.747   3.681  13.842  0.1366 -0.1757  0.0638
 3636W        W20483  16.432  18.518   4.819 -0.0143 -0.1688 -0.0288
 3637W        W20484  18.780  19.870   3.978  0.0957  0.2550  0.4707
 3638W        W20485  16.690  19.272  10.309  0.1519 -0.0639  0.1234
 3639W        W20486  18.524   0.233   1.660 -0.2435 -0.0076 -0.0249
 3640W        W20487   7.032   6.750  13.141 -0.0660  0.1175 -0.1087
 3641W        W20488   6.572  15.731   3.703  0.1000  0.1820  0.1393
 3642W        W20489  11.345   6.278   3.326 -0.2198  0.3684 -0.2245
 3643W        W20490   5.951  18.091   9.554  0.0767  0.3467  0.1096
 3644W        W20491   2.114  13.988   3.389 -0.2342 -0.0376 -0.0755
 3645W        W20492  10.376  19.177   9.095  0.3124 -0.1563  0.0761
 3646W        W20493  14.907  16.282  12.817 -0.0495 -0.3075 -0.1023
 3647W        W20494   0.034   8.947   2.050 -0.2330 -0.0496  0.4420
 3648W        W20495   2.866   1.511  12.570  0.0529  0.0159  0.0527
 3649W        W20496  13.420   1.542   1.202  0.3922  0.1255  0.5104
 3650W        W20497  16.383   7.185  12.806 -0.0228  0.0552  0.0496
 3651W        W20498   6.382   8.604   3.113  0.0389  0.1067 -0.1854
 3652W        W20499   3.121  19.336   3.772  0.1390 -0.1454 -0.0886
 3653W        W20500   5.805   2.679  12.878  0.1320 -0.2125  0.0073
 3654W        W20501   8.205  10.417  10.891 -0.2034 -0.3892  0.2612
 3655W        W20502   6.272   9.384   9.737 -0.2586  0.0715  0.0870
 3656W        W20503   4.069  10.606  12.206  0.1257 -0.2778 -0.1580
 3657W        W20504   8.776  10.842   4.797  0.0441 -0.0125  0.0907
 3658W        W20505   6.203   4.356  11.989 -0.2656  0.2684 -0.1697
 3659W        W20506  19.455   1.118   3.557  0.0231  0.0923 -0.3434
 3660W        W20507  10.319  17.196   9.824 -0.0537 -0.4209  0.1753
 3661W        W20508  18.929  16.718  12.801 -0.2303  0.0706  0.1501
 3662W        W20509   2.241  10.549   2.748  0.0815  0.1743 -0.3147
 3663W        W20510  19.116  11.486   3.285 -0.4474 -0.1006 -0.2525
 3664W        W20511  13.670  19.580   1.037 -0.1268  0.0781  0.1666
 3665W        W20512   0.621   9.790  11.930 -0.3080  0.2184  0.0404
 3666W        W20513   2.359   6.455   4.092 -0.0108 -0.3258 -0.0033
 3667W        W20514  12.199   2.236   1.084  0.1538  0.0367  0.0158
 3668W        W20515  10.762   9.039   1.245  0.0132 -0.0386  0.0751
 3669W        W20516   2.134   5.101   8.779 -0.3317 -0.1118  0.1254
 3670W        W20517  11.445  16.837   3.315 -0.4079 -0.0114 -0.0309
 3671W        W20518   1.145   1.086  10.571 -0.1801 -0.3194  0.0539
 3672W        W20519  11.690   0.323   3.418  0.1835 -0.1371  0.0070
 3673W        W20520  18.559  18.342   2.944  0.3328 -0.0008  0.1991
 3674W        W20521   0.857   8.338  10.839 -0.0139 -0.6242  0.0645
 3675W        W20522  17.123   2.257   3.560  0.2571  0.1429  0.0709
 3676W        W20523   7.539  10.676  14.222 -0.3884  0.0397  0.2423
 3677W        W20524  14.781   5.152  13.419  0.1683  0.1112  0.3964
 3678W        W20525  12.933  14.850  11.229  0.1878  0.1356 -0.0991
 3679W        W20526  14.411  12.312  13.351 -0.0298 -0.1162 -0.4126
 3680W        W20527  13.972   4.984  11.883  0.0244  0.0666 -0.2145
 3681W        W20528  17.485  12.734   1.329 -0.3058 -0.4758  0.1745
 3682W        W20529  10.184  11.332  10.594 -0.0791 -0.0318  0.1790
 3683W        W20530   6.367   4.934  12.150 -0.0989  0.0572  0.0513
 3684W        W20531   6.969   5.680   1.755 -0.0381  0.5255 -0.0450
 3685W        W20532   6.589   3.094   4.471  0.1051 -0.2367 -0.0899
 3686W        W20533  12.107  19.662   1.550  0.0341 -0.0431 -0.1446
 3687W        W20534   2.431  11.676   2.956 -0.1905  0.3054  0.1824
 3688W        W20535   0.696   0.259   4.230  0.0936 -0.0747 -0.0216
 3689W        W20536   9.926  14.807  12.340 -0.1325  0.0762  0.0475
 3690W        W20537  10.726   3.548  14.059  0.0458  0.2152  0.0079
 3691W        W20538  14.867   1.898  12.085 -0.0546  0.2703  0.1626
 3692W        W20539  13.531   8.058   9.233 -0.0253 -0.1139  0.2380
 3693W        W20540  13.365  10.856   3.143  0.1897  0.1013 -0.4164
 3694W        W20541  10.736   3.543   1.872  0.0244  0.3026 -0.2797
 3695W        W20542   7.592  15.740   3.318  0.0905 -0.0905 -0.3577
 3696W        W20543  14.511  15.671  10.793  0.1857 -0.0358  0.0074
 3697W        W20544  11.465   0.255  10.463  0.1242 -0.4322 -0.3362
 3698W        W20545   7.770  18.723   2.752 -0.0928  0.1613 -0.0063
 3699W        W20546  17.564   8.419  13.236  0.0973  0.0489  0.2215
 3700W        W20547   9.907   3.606  13.990 -0.0571 -0.2884 -0.2165
 3701W        W20548   8.141  11.540   2.727 -0.2290  0.3296 -0.3435
 3702W        W20549   5.532   7.686   1.244 -0.1745 -0.3442 -0.2989
 3703W        W20550   4.005  18.223   2.671  0.2674  0.3342  0.1048
 3704W        W20551   9.591  19.588   3.846 -0.1974  0.0880  0.0244
 3705W        W20552  19.713  13.725   2.447  0.0418 -0.0672  0.1197
 3706W        W20553  18.332   2.027  10.002 -0.3183  0.1169  0.1360
 3707W        W20554   1.035  17.904  11.970 -0.3418  0.0535 -0.0182
 3708W        W20555   4.700  12.754  10.275 -0.3484  0.0586 -0.0390
 3709W        W20556  19.908  14.089  12.158  0.0158 -0.2938  0.2115
 3710W        W20557  19.083  18.636  14.304  0.3060 -0.0927  0.2719
 3711W        W20558  10.749   9.268  11.338 -0.1047 -0.2073  0.0235
 3712W        W20559  15.163  14.053  13.737 -0.2790 -0.1389  0.0745
 3713W        W20560  16.303  13.126   4.017  0.2398 -0.0882 -0.2586
 3714W        W20561  15.312  17.289   3.986  0.1301  0.0737  0.0261
 3715W        W20562  11.566   5.293  12.049 -0.0377  0.2407  0.2455
 3716W        W20563  10.939   7.974   9.885 -0.3746  0.2365 -0.1086
 3717W        W20564   0.096   2.222  11.082  0.1021 -0.2161 -0.0058
 3718W        W20565  10.999  10.792  10.378 -0.2843  0.2962  0.2730
 3719W        W20566   2.593   9.367   4.671 -0.3968 -0.2561 -0.0426
 3720W        W20567  10.486   7.685   4.623  0.1374 -0.0287  0.0698
 3721W        W20568   1.535   1.788   0.206 -0.0046  0.3182 -0.0275
 3722W        W20569  15.633  13.747  10.855  0.1875  0.0920 -0.3917
 3723W        W20570   2.555  10.690  12.802 -0.1534  0.3240 -0.1161
 3724W        W20571  15.654   6.645  14.016 -0.2609 -0.0208 -0.2054
 3725W        W20572   0.218   9.080   2.487  0.2737  0.1536  0.0909
 3726W        W20573   9.091  12.111   1.834  0.2018 -0.0966 -0.4391
 3727W        W20574  18.749   6.202   2.013  0.0626 -0.1944  0.3259
 3728W        W20575   2.462  13.838   2.625 -0.0767 -0.2339  0.0543
 3729W        W20576   8.628   4.104   2.400  0.3459  0.0844  0.4428
 3730W        W20577  18.481   2.679   4.907 -0.0085  0.1207 -0.0687
 3731W        W20578  16.946   2.401  11.328  0.1889  0.1165 -0.1266
 3732W        W20579   7.276  11.143   3.389  0.1316 -0.2280  0.1290
 3733W        W20580   1.696  11.833  11.996 -0.1851 -0.1457  0.0998
 3734W        W20581   9.138   6.828   1.158  0.0264  0.5525  0.1352
 3735W        W20582   4.356  19.564  12.213  0.1997  0.1621 -0.2497
 3736W        W20583   4.373  15.252  11.022  0.1140 -0.1012 -0.4226
 3737W        W20584   3.993  10.051   2.804 -0.0040 -0.1446 -0.0552
 3738W        W20585  11.613   0.935   1.856 -0.1884  0.1801 -0.1358
 3739W        W20586   1.500   0.803  11.562 -0.1211  0.0464 -0.4851
 3740W        W20587  15.727  17.386  11.398  0.3226  0.2769 -0.0545
 3741W        W20588  16.134  18.308  13.266 -0.0209  0.0842  0.0254
 3742W        W20589  13.040   8.275  12.803  0.0878  0.0506 -0.0342
 3743W        W20590  13.215  11.643   1.826  0.1200 -0.6311 -0.3154
 3744W        W20591   5.592   3.508  10.947  0.1487 -0.2396 -0.3713
 3745W        W20592   3.887  17.487   8.562 -0.3340  0.0931  0.0372
 3746W        W20593   5.994   9.160  12.690  0.2010  0.1876  0.0387
 3747W        W20594  18.371   9.528   1.624 -0.0406  0.1467 -0.1987
 3748W        W20595  15.254  18.031   2.595  0.6362 -0.1681  0.2426
 3749W        W20596   7.962  11.725   1.266 -0.1239 -0.2110  0.0382
 3750W        W20597   5.957  18.356   4.077  0.1098 -0.1171 -0.2159
 3751W        W20598   1.833  10.961  12.304  0.1374  0.2359  0.3552
 3752W        W20599  14.801   6.407  13.085 -0.1487  0.0202 -0.1760
 3753W        W20600  18.181   0.925  13.019 -0.1065  0.0494 -0.1091
 3754W        W20601  18.075  15.249   1.332  0.0277 -0.0913  0.1131
 3755W        W20602   3.564  11.386   0.776  0.0163 -0.0454 -0.1455
 3756W        W20603  12.711  15.186   0.395  0.0172 -0.1780 -0.0237
 3757W        W20604   9.803   7.264   3.619 -0.0243  0.2137 -0.2283
 3758W        W20605  11.891  17.597  13.091  0.1687 -0.4661  0.2219
 3759W        W20606  17.106   8.770   0.136 -0.1778 -0.3390 -0.0502
 3760W        W20607   3.879  14.743   0.705  0.0998  0.1178  0.0258
 3761W        W20608  15.452   3.478   1.052 -0.2886  0.0925  0.2562
 3762W        W20609   6.568   8.124   2.027 -0.0391  0.3709 -0.0938
 3763W        W20610   8.779   5.136   9.698 -0.1301 -0.0392  0.1139
 3764W        W20611  10.432  10.248  11.635 -0.3154  0.2301  0.0408
 3765W        W20612   1.970   5.139   2.018 -0.2078 -0.0676  0.0952
 3766W        W20613  12.747  19.724  14.166  0.0395  0.0745  0.0947
 3767W        W20614   0.219   8.609   0.221 -0.0722  0.2329 -0.0398
 3768W        W20615  14.793  13.004  10.206 -0.4073 -0.2430  0.2465
 3769W        W20616   2.995   1.949  10.134 -0.1969  0.1364  0.1001
 3770W        W20617   8.074  14.984   3.242 -0.1112  0.2106  0.0351
 3771W        W20618   4.894  12.276   0.036 -0.2549  0.3266 -0.2030
 3772W        W20619  17.003  12.340   2.547  0.2227 -0.3477  0.1049
 3773W        W20620   2.654  13.418   0.677 -0.0569  0.2646 -0.0135
 3774W        W20621  17.686  13.609  10.142  0.1067 -0.0671 -0.1666
 3775W        W20622   4.747  19.501   0.277 -0.3497 -0.2792 -0.3086
 3776W        W20623   9.621  11.511   0.743 -0.1328 -0.3162  0.0844
 3777W        W20624   5.137  18.940  11.561 -0.0415 -0.1143  0.0281
 3778W        W20625   8.392  12.470   2.579  0.2515  0.1909 -0.1388
 3779W        W20626  18.381  11.761   4.223 -0.1692 -0.0448  0.0825
 3780W        W20627   4.289   8.798  11.140  0.0001  0.0662 -0.2817
 3781W        W20628  11.908   6.169  12.802  0.1390 -0.1653 -0.1140
 3782W        W20629  17.441   9.623   1.153  0.2926 -0.0539  0.1731
 3783W        W20630  14.529  18.643   2.187  0.0735 -0.1927  0.2289
 3784W        W20631   6.473   1.715  11.711  0.0853 -0.0129  0.1170
 3785W        W20632  19.043  15.552  10.743  0.0149 -0.0491 -0.0037
 3786W        W20633   6.371   0.355  13.258 -0.2336 -0.1264  0.0905
 3787W        W20634   0.011  15.920   3.476 -0.2201  0.0563  0.0956
 3788W        W20635  11.217   3.944  10.449  0.1417 -0.2651  0.1466
 3789W        W20636   4.819  12.033   2.553  0.1335 -0.0075  0.1110
 3790W        W20637  10.059  19.840   0.592 -0.1127 -0.0725  0.0596
 3791W        W20638   8.844   6.205  13.577 -0.2427 -0.0238  0.2934
 3792W        W20639  13.233   6.144   3.619  0.3959 -0.0568 -0.0297
 3793W        W20640   8.348   4.110   3.891  0.0409  0.0230  0.1664
 3794W        W20641  13.968   9.486   1.743 -0.4774 -0.3978  0.0836
 3795W        W20642  14.500   8.094   1.815  0.0022  0.1288 -0.0062
 3796W        W20643   5.335   7.064   4.146 -0.0315 -0.3183 -0.3435
 3797W        W20644   2.040   6.260   0.031  0.4350 -0.1091  0.0297
 3798W        W20645   1.714   5.547   1.680  0.1995 -0.0095 -0.0323
 3799W        W20646   2.498  15.486   2.767 -0.1418  0.3962 -0.0463
 3800W        W20647  10.157  15.038   0.533 -0.0884 -0.0199  0.0600
 3801W        W20648   6.109   1.811  13.159  0.0531 -0.0095 -0.1012
 3802W        W20649  15.507  15.504   1.140 -0.0412 -0.1080  0.1623
 3803W        W20650  10.886  16.348   9.405  0.3686  0.4292  0.2741
 3804W        W20651  14.970  13.900  11.485 -0.0262 -0.1773 -0.0114
 3805W        W20652  19.441  11.342  13.320  0.0941 -0.1038 -0.1710
 3806W        W20653   2.077   8.339   0.559 -0.1034 -0.1471  0.0695
 3807W        W20654   8.018   5.218   4.406 -0.0600 -0.1306 -0.5270
 3808W        W20655   6.424   4.355  12.994  0.1253  0.1665  0.1782
 3809W        W20656  11.967  14.314  10.919 -0.3333 -0.1535 -0.0294
 3810W        W20657   5.873   7.191   0.814  0.1839  0.1045  0.3831
 3811W        W20658  11.344  18.525  10.390  0.1949  0.4410 -0.0658
 3812W        W20659  17.721  19.293   2.104  0.3245  0.0106  0.0012
 3813W        W20660   9.904  12.268   3.503 -0.0239 -0.1021  0.0635
 3814W        W20661  10.234   9.823  11.968  0.0238  0.1574 -0.1719
 3815W        W20662   3.372  18.074   4.080  0.0489  0.1208  0.0384
 3816W        W20663  10.214   3.093  10.167 -0.4326 -0.1062  0.2195
 3817W        W20664   6.476   1.684   2.372 -0.1169  0.3809  0.1307
 3818W        W20665   7.985  18.816  13.441  0.0405 -0.1680 -0.2459
 3819W        W20666   7.290  17.782   9.993  0.0420  0.1539 -0.3193
 3820W        W20667   4.342   8.246   3.435  0.0260  0.2411  0.0455
 3821W        W20668   7.774   2.877   1.997 -0.2019 -0.0606  0.1689
 3822W        W20669  17.328  15.818  11.482 -0.0626  0.1640 -0.2290
 3823W        W20670   9.705  11.250  14.170 -0.0582  0.0902 -0.0161
 3824W        W20671   5.731   9.359  13.739  0.2523 -0.0930 -0.0661
 3825W        W20672  19.448   4.693  12.404  0.3723  0.0983 -0.0152
 3826W        W20673   5.529   7.177  10.937  0.0192  0.0900 -0.3386
 3827W        W20674  15.027   3.642   5.161  0.2758 -0.0002  0.0993
 3828W        W20675  17.613  11.911  12.842  0.0570 -0.1093 -0.2215
 3829W        W20676  19.636   5.585  11.015 -0.4158 -0.2561  0.0094
 3830W        W20677   5.534   7.904   3.783  0.2787  0.0108 -0.5477
 3831W        W20678  12.126  16.101   0.097 -0.1369 -0.0166  0.2572
 3832W        W20679  14.781  16.132   0.197  0.0989 -0.0192  0.0190
 3833W        W20680  10.125   4.541   9.699  0.2275 -0.1730  0.2003
 3834W        W20681  18.162   6.388   1.725 -0.0446  0.1775 -0.1187
 3835W        W20682  11.879  19.841   3.244 -0.1052 -0.0252 -0.1546
 3836W        W20683   7.319   8.567  14.200 -0.1591 -0.4022 -0.0676
 3837W        W20684   7.059   2.173  12.912  0.0119  0.1488 -0.2353
 3838W        W20685   3.736  17.696   1.692  0.0803  0.0228  0.2805
 3839W        W20686  11.513  15.239   3.516 -0.1382 -0.3386 -0.0822
 3840W        W20687   0.920  13.303   3.344  0.2499 -0.0225  0.2684
 3841W        W20688  18.693   7.167   4.071 -0.2142  0.2564 -0.1678
 3842W        W20689   4.868  15.671   3.400 -0.4477 -0.0101  0.1885
 3843W        W20690  13.243  10.420   0.527  0.0514 -0.0681  0.0430
 3844W        W20691  10.618   5.974  13.992  0.0542 -0.0875  0.3658
 3845W        W20692   1.741  10.421   2.223  0.3590 -0.2608  0.1243
 3846W        W20693  19.669  17.984  11.983 -0.1951 -0.2562  0.0286
 3847W        W20694   5.404   9.844   2.684  0.1654 -0.1034 -0.0838
 3848W        W20695  17.236  10.689   1.306 -0.0131 -0.0409 -0.2689
 3849W        W20696  10.963   8.546  13.064 -0.1194  0.1402 -0.2973
 3850W        W20697  19.402   0.867   1.702 -0.3193 -0.3864 -0.0747
 3851W        W20698  17.906   6.769   3.990  0.0398 -0.1668  0.0806
 3852W        W20699  15.008   8.755  13.369 -0.2519 -0.0025  0.1171
 3853W        W20700  12.271   1.195  11.678  0.0868  0.0859 -0.0469
 3854W        W20701   6.734   9.649   4.280  0.0391  0.0958 -0.2701
 3855W        W20702   5.932  12.548  10.155  0.2824 -0.1087 -0.1157
 3856W        W20703  13.795   6.250   2.886  0.0340  0.0357 -0.2777
 3857W        W20704  12.060  16.956  11.807  0.2610  0.4862  0.1815
 3858W        W20705  16.784   0.082  14.311  0.3308 -0.0989 -0.2024
 3859W        W20706   0.958  17.404   3.987  0.1816  0.3137 -0.2271
 3860W        W20707   7.814  15.039   1.902  0.1064  0.0102 -0.0275
 3861W        W20708  18.360  15.246   0.815 -0.2604 -0.2937 -0.1210
 3862W        W20709   7.472  15.466   3.741 -0.2056  0.1381 -0.0996
 3863W        W20710  14.621  18.748  12.100 -0.1281 -0.2486  0.1423
 3864W        W20711  11.006   4.876   2.368  0.4464  0.1250  0.2260
 3865W        W20712   8.909  15.879   9.495 -0.2245 -0.1522  0.1878
 3866W        W20713   3.908   2.787   1.206  0.0438 -0.2364  0.2202
 3867W        W20714   0.789   7.685   0.782 -0.3844  0.0902 -0.2915
 3868W        W20715   9.872   4.078   0.080  0.1982  0.1446  0.2321
 3869W        W20716  17.359  14.095  12.159  0.1338 -0.0133  0.2030
 3870W        W20717  11.474   9.674   3.273  0.1965 -0.0359 -0.2974
 3871W        W20718   5.613  16.031   3.413 -0.1597 -0.0163  0.0275
 3872W        W20719  13.599   6.458   5.352  0.1770 -0.0263 -0.0526
 3873W        W20720   0.905   4.898   1.791 -0.1014 -0.0406  0.0221
 3874W        W20721  10.944  15.216   0.034 -0.0246 -0.0858  0.3906
 3875W        W20722  17.205  13.660   9.666 -0.3647  0.0393  0.2731
 3876W        W20723  18.307   3.448   4.200 -0.0141 -0.1759 -0.2956
 3877W        W20724  13.971  14.169  10.224 -0.0437 -0.0388 -0.0987
 3878W        W20725  15.970  18.798   3.390  0.3020 -0.1509  0.0002
 3879W        W20726  11.703  17.182   0.302  0.1939 -0.2069 -0.1252
 3880W        W20727  19.624   8.489  11.737 -0.2246  0.1524 -0.0321
 3881W        W20728   7.115   9.798  13.620 -0.5010  0.0636 -0.0879
 3882W        W20729  17.131  19.741   0.255 -0.0271 -0.2865  0.0562
 3883W        W20730  17.831  18.552   2.859 -0.0850  0.1348  0.1831
 3884W        W20731  14.186   8.092  12.200 -0.1222  0.1380 -0.1505
 3885W        W20732  14.071  14.923   4.514  0.0686  0.0296 -0.1377
 3886W        W20733   6.651   6.387   8.889 -0.0601 -0.1361 -0.1490
 3887W        W20734   6.801  14.808   2.740 -0.2827 -0.1304  0.0237
 3888W        W20735   9.846  18.373   1.436 -0.0434 -0.0405  0.1920
 3889W        W20736   7.173  18.738  13.955 -0.1013 -0.1608  0.0159
 3890W        W20737   0.524  19.777  10.850 -0.3086  0.1538 -0.1202
 3891W        W20738   7.965   6.386  12.181 -0.4469 -0.2407 -0.2403
 3892W        W20739   9.300   3.137  13.175 -0.1278 -0.2185 -0.3616
 3893W        W20740  14.152  13.680   4.740  0.1784 -0.2419 -0.0474
 3894W        W20741   2.336   9.856   3.171 -0.1326 -0.0622 -0.0723
 3895W        W20742  11.912  18.576   2.509 -0.1113  0.0703  0.1979
 3896W        W20743   6.453   9.210   4.235  0.2392  0.1442  0.0357
 3897W        W20744  16.133   7.299   4.589  0.1235  0.2361 -0.0792
 3898W        W20745   0.232  15.175  13.216 -0.0340 -0.3549 -0.1107
 3899W        W20746   5.372   1.208   3.219 -0.0445  0.1234 -0.1063
 3900W        W20747   2.993   8.732  13.267  0.3695 -0.1187 -0.3408
 3901W        W20748   2.616   5.146   0.053 -0.1255  0.1726 -0.3448
 3902W        W20749   9.098   4.945  12.211  0.4928 -0.3705 -0.0916
 3903W        W20750   6.980  15.618  13.863  0.1797  0.3674  0.0867
 3904W        W20751   8.087  16.466   1.373 -0.1262  0.1555  0.4390
 3905W        W20752  17.009  14.807  12.568 -0.0365 -0.1752  0.1012
 3906W        W20753   3.626   9.556   3.466  0.2857 -0.1228 -0.3602
 3907W        W20754   7.492   3.816   2.868 -0.3739 -0.1369 -0.0596
 3908W        W20755   7.067   1.614   9.815 -0.0657 -0.1361  0.2562
 3909W        W20756  18.814  16.223   1.498 -0.2206 -0.0845 -0.2411
 3910W        W20757   9.035   7.343  12.539 -0.0570  0.3229 -0.3150
 3911W        W20758   5.477   9.052   0.573 -0.2198  0.2174  0.2342
 3912W        W20759  10.630   1.463  13.935 -0.2082 -0.0851  0.3528
 3913W        W20760   0.764  17.988  12.359 -0.0390 -0.0557  0.1974
 3914W        W20761  15.373   8.358   4.216  0.0009  0.2527 -0.0311
 3915W        W20762   5.470  10.682  13.050 -0.3614 -0.4040 -0.0919
 3916W        W20763   6.690  14.658  13.761  0.1104  0.3726  0.4568
 3917W        W20764   9.527  17.092  13.337 -0.1703 -0.2375  0.0698
 3918W        W20765   3.161  14.444  10.233 -0.0404 -0.1071 -0.0277
 3919W        W20766   8.608  17.448  10.750  0.0268  0.1368 -0.1322
 3920W        W20767  17.731   5.134   1.459 -0.2375 -0.0559 -0.4500
 3921W        W20768   4.843   4.206  10.707  0.0775 -0.0217 -0.3943
 3922W        W20769  16.091  10.751   4.389  0.1462 -0.3465 -0.0929
 3923W        W20770  14.090  16.450  13.659 -0.0918  0.3041 -0.0701
 3924W        W20771  18.568   4.326  13.795  0.1700 -0.0122 -0.0428
 3925W        W20772   4.284   9.640  13.777  0.1939  0.2407  0.0033
 3926W        W20773  18.489  10.269   2.826  0.1552  0.1514 -0.4146
 3927W        W20774   1.106   9.610  10.290  0.1160  0.0269  0.1188
 3928W        W20775  13.703  16.498   2.130 -0.1643 -0.2146 -0.0682
 3929W        W20776  12.872  19.772   1.443 -0.2449 -0.1291  0.2391
 3930W        W20777  16.913  12.301   4.661 -0.2241 -0.0607  0.1947
 3931W        W20778   0.716  17.508  11.526 -0.0345 -0.1245  0.1208
 3932W        W20779   5.819  15.816  10.555 -0.1322  0.1354 -0.1886
 3933W        W20780   7.106  17.056  10.044 -0.5316 -0.0417 -0.3358
 3934W        W20781  10.079   0.521  12.466  0.2169  0.2314  0.3049
 3935W        W20782   6.437   8.146   2.647 -0.2999  0.0569  0.4117
 3936W        W20783   8.891   2.994   2.102 -0.1003 -0.0256 -0.1378
 3937W        W20784   6.222  11.668  11.976  0.0205  0.0029  0.0750
 3938W        W20785   8.446  10.145   2.392  0.3401 -0.1353  0.1033
 3939W        W20786  13.554   4.275  11.830  0.2826  0.4019 -0.2092
 3940W        W20787   1.873   6.737   0.236 -0.0806  0.1406 -0.1436
 3941W        W20788  10.946   9.523   4.042  0.2619 -0.1284 -0.0156
 3942W        W20789   4.126   5.096  12.649  0.0005  0.0086  0.1459
 3943W        W20790  13.060   2.430  12.221 -0.1016  0.0136  0.3038
 3944W        W20791   7.871  11.708  14.186 -0.0654  0.0776 -0.1823
 3945W        W20792   8.208  17.697  10.393 -0.0417  0.0845  0.2417
 3946W        W20793  10.635  12.260   1.970  0.1400 -0.2395 -0.0212
 3947W        W20794   0.081  16.083  14.043 -0.1615  0.1091  0.3203
 3948W        W20795   9.528   2.180   1.749 -0.1015 -0.1702 -0.1082
 3949W        W20796  19.279  11.653   2.589 -0.3057 -0.0431  0.0617
 3950W        W20797   6.699   2.851   0.942 -0.0508  0.0143  0.1364
 3951W        W20798   9.761  12.215  10.242 -0.2416  0.1194  0.2732
 3952W        W20799  10.336   8.424   4.000 -0.2985 -0.0903  0.0348
 3953W        W20800  15.660  10.804  12.898  0.1870 -0.0484 -0.3424
 3954W        W20801   2.354   3.226  13.485 -0.2991  0.1537  0.0933
 3955W        W20802  12.683   7.177   1.807 -0.0308  0.1369 -0.0380
 3956W        W20803   2.261  11.961  11.389  0.2035  0.1143 -0.1625
 3957W        W20804   6.250   8.192  12.695 -0.0461 -0.1782 -0.0949
 3958W        W20805   9.107   7.036   4.306  0.0447  0.1681 -0.1618
 3959W        W20806  11.232   5.842   0.673 -0.0339  0.1455  0.1169
 3960W        W20807   6.559   7.446   3.446  0.2518  0.3770  0.0474
 3961W        W20808   7.393   4.664  10.061 -0.1405  0.2600  0.0952
 3962W        W20809   0.319  15.210   1.879 -0.2782  0.0021  0.1756
 3963W        W20810  12.586   5.742  12.967 -0.5111 -0.0864  0.1142
 3964W        W20811  12.002   3.110   1.056 -0.5066 -0.2022  0.1160
 3965W        W20812  15.416  17.209   1.521  0.2618 -0.2200 -0.0095
 3966W        W20813  11.169   5.410   1.968 -0.0199  0.1011 -0.1288
 3967W        W20814   9.841  17.922  12.948 -0.3640 -0.0536 -0.2684
 3968W        W20815  13.519   3.704  10.797  0.2012 -0.2547  0.0251
 3969W        W20816   4.352   1.967  13.865  0.0759 -0.1817 -0.0261
 3970W        W20817   7.147  15.708   0.102 -0.0822 -0.0787  0.2843
 3971W        W20818   0.017  16.084   0.670  0.1296 -0.1352  0.2820
 3972W        W20819   6.213  13.736  12.301  0.0170  0.5018 -0.3873
 3973W        W20820  11.866  14.056  11.331 -0.3188  0.0936 -0.3958
 3974W        W20821   1.324   6.692  10.804 -0.2152 -0.0514  0.3839
 3975W        W20822  12.865  17.241  10.377  0.2040 -0.2728  0.1195
 3976W        W20823   9.924  13.360   0.096  0.0899 -0.2299  0.0771
 3977W        W20824  12.188  13.075  12.326 -0.4143 -0.0636 -0.1223
 3978W        W20825  15.521   6.419   9.804 -0.1921 -0.2346  0.0795
 3979W        W20826   7.238   6.198   2.602 -0.0262  0.3103  0.0766
 3980W        W20827   3.466   9.991   3.982  0.0749  0.0680 -0.0035
 3981W        W20828   0.590   2.226   4.555 -0.0239 -0.1035 -0.0540
 3982W        W20829   7.342   2.847   4.671 -0.2197 -0.3942  0.3005
 3983W        W20830  19.700   5.489   2.591  0.0498 -0.2456  0.0229
 3984W        W20831   9.417  14.870   9.939  0.2105 -0.0494  0.3822
 3985W        W20832   4.685  13.341   4.421 -0.1805  0.1147  0.0884
 3986W        W20833  14.445  14.590  11.121  0.3579  0.0510  0.3085
 3987W        W20834  13.670  13.321  12.188 -0.0750  0.0505 -0.0062
 3988W        W20835   5.737  18.675   1.462 -0.2308 -0.0286  0.0285
 3989W        W20836  16.316   2.648  10.928  0.1056 -0.2604  0.0876
 3990W        W20837   1.612   3.819   4.043  0.0780  0.0348 -0.2220
 3991W        W20838  15.117  12.327  11.540 -0.1866  0.0724 -0.1011
 3992W        W20839  12.895   5.667   1.343  0.0141 -0.0833  0.3209
 3993W        W20840  19.500   2.654  12.826 -0.1208 -0.0866  0.2358
 3994W        W20841  18.454   2.311   3.142 -0.4150  0.2530  0.2103
 3995W        W20842  17.087   7.243   5.457 -0.1556 -0.0826  0.0380
 3996W        W20843   9.596  12.623  11.746  0.3317 -0.3797  0.0242
 3997W        W20844   6.156  11.828   1.992  0.0429  0.5459  0.2652
 3998W        W20845  14.081   3.670   2.890  0.1383  0.1198 -0.1225
 3999W        W20846   0.971   3.245   1.150 -0.1297  0.1117  0.4677
 4000W        W20847  10.186   7.737  10.868  0.1244 -0.1811  0.1385
 4001W        W20848   1.707  12.466   2.463 -0.0701 -0.1611  0.0834
 4002W        W20849   2.601   5.984  13.026  0.0988 -0.0563  0.0563
 4003W        W20850   8.761  19.872  10.536 -0.1119 -0.0532  0.0141
 4004W        W20851  11.235   0.288   4.152  0.4432  0.0371 -0.1296
 4005W        W20852  14.775  10.876   4.121 -0.3713  0.0195 -0.2455
 4006W        W20853  10.844  16.794  12.402 -0.0053 -0.0859  0.2668
 4007W        W20854   0.220  16.798   0.083 -0.0296 -0.0879  0.1916
 4008W        W20855   4.555  17.905  13.206 -0.0232  0.0275 -0.4116
 4009W        W20856  18.093  18.110   4.328  0.0679 -0.0496  0.1972
 4010W        W20857   5.442  16.651  10.672  0.0379  0.0991  0.3533
 4011W        W20858   1.028   9.238  14.025 -0.0057 -0.2382 -0.1869
 4012W        W20859  14.173  10.602  11.546 -0.1107 -0.2250 -0.0063
 4013W        W20860  12.993  12.233  11.158 -0.1324 -0.4021  0.1133
 4014W        W20861  14.330   3.458   6.328  0.4303  0.0295 -0.1901
 4015W        W20862   9.204   4.876   9.797  0.0019  0.1475 -0.4933
 4016W        W20863   3.840   6.812  14.290 -0.0049 -0.1882  0.2550
 4017W        W20864   2.762   8.976   0.573 -0.0407 -0.0349  0.1231
 4018W        W20865  19.306   6.624  11.801  0.2170  0.1099 -0.2226
 4019W        W20866  18.792  11.454  13.892  0.1369 -0.1742  0.0357
 4020W        W20867  10.912   7.181   2.500 -0.1818 -0.1541 -0.0362
 4021W        W20868   1.850   3.490   2.400  0.3318  0.0423 -0.1062
 4022W        W20869  18.689  15.585   3.940  0.0505  0.2737  0.2968
 4023W        W20870  19.221  13.305  10.584  0.0302  0.1672 -0.2744
 4024W        W20871  16.047   0.926  13.000  0.0130  0.1728 -0.1359
 4025W        W20872  18.344  17.366   4.732  0.1654  0.0868  0.2604
 4026W        W20873   8.954  17.233   2.077 -0.0354 -0.0157 -0.1556
 4027W        W20874   6.855  12.305  14.175 -0.3273  0.1732  0.0982
 4028W        W20875  12.471   9.308  12.291 -0.2521  0.1225 -0.0879
 4029W        W20876  10.230   2.617  10.503  0.1747  0.3231 -0.3159
 4030W        W20877  16.430  17.865   3.388 -0.0156  0.0995 -0.2772
 4031W        W20878   6.908   4.508   2.267 -0.4759  0.0764 -0.2338
 4032W        W20879  19.406  19.274  10.445  0.1394  0.6752  0.0463
 4033W        W20880   7.282  15.043   2.618  0.0401 -0.1923  0.2955
 4034W        W20881   4.293  16.976   1.854  0.1641  0.0322 -0.0146
 4035W        W20882   6.618  13.999   2.231 -0.0429  0.0730 -0.1896
 4036W        W20883   1.638  17.709   2.073  0.1109  0.0912 -0.1926
 4037W        W20884  10.880   3.497   2.955  0.6533 -0.0239 -0.0306
 4038W        W20885  17.126  10.800  12.549 -0.0420  0.0150 -0.0647
 4039W        W20886  10.892   3.973  13.836 -0.1922  0.1517  0.2112
 4040W        W20887   4.325  11.841  13.920 -0.1453  0.2325  0.0945
 4041W        W20888  19.730  17.799  11.174 -0.3933 -0.1498  0.4333
 4042W        W20889  15.480   6.346   3.511  0.1068  0.2039  0.1244
 4043W        W20890   3.841  17.543  12.615  0.2255  0.1324  0.1732
 4044W        W20891  16.281  13.108   1.812  0.0846 -0.0142  0.1156
 4045W        W20892  16.583   9.417   2.539  0.0828 -0.1455  0.0164
 4046W        W20893   5.615  10.439   3.427  0.1817  0.0288  0.1378
 4047W        W20894   4.052  12.604   9.462  0.0514 -0.0679 -0.0142
 4048W        W20895  16.880   9.320  10.094 -0.0411 -0.2951 -0.3609
 4049W        W20896   9.547  16.725   3.279 -0.1820  0.1069 -0.1530
 4050W        W20897   7.167  12.498  10.301 -0.1568 -0.2187  0.1329
 4051W        W20898  10.572   9.967   4.837  0.0940  0.1844 -0.1938
 4052W        W20899  12.196   3.328  12.602 -0.3936  0.2751 -0.0186
 4053W        W20900   4.881   1.564   1.591  0.1872 -0.1797  0.0704
 4054W        W20901  14.381   8.082  10.827  0.1725 -0.0723 -0.0312
 4055W        W20902   7.129  15.452  11.532  0.2219  0.0899 -0.0519
 4056W        W20903  14.283  10.752  12.498  0.3251  0.1333  0.0789
 4057W        W20904   6.663   4.049   1.284 -0.0013  0.0945 -0.0794
 4058W        W20905   3.563  18.180   0.822 -0.1655 -0.0964 -0.2377
 4059W        W20906   6.202   4.971   3.093 -0.2216  0.0775  0.3084
 4060W        W20907   3.281  15.390   1.775 -0.3230 -0.2248 -0.2822
 4061W        W20908   9.844   7.612   4.223  0.1663 -0.0003 -0.2876
 4062W        W20909  12.037   2.109  10.950 -0.1165  0.0266 -0.3160
 4063W        W20910   4.589   8.034   1.634 -0.2425  0.0664 -0.2528
 4064W        W20911   7.176   9.925   2.057  0.0970  0.0061 -0.1107
 4065W        W20912  11.306   2.733   0.449  0.5301 -0.1418 -0.0640
 4066W        W20913   1.373  15.404  13.140  0.5374 -0.0057 -0.3578
 4067W        W20914  18.759   2.614  13.792  0.0804 -0.0035 -0.1362
 4068W        W20915  11.586   2.646   1.590  0.0422 -0.1178  0.1141
 4069W        W20916   9.599   3.322   3.541 -0.5478  0.3421  0.0317
 4070W        W20917  13.422   7.738   2.971  0.1588 -0.0560  0.1202
 4071W        W20918  13.494   3.710  11.378  0.1251  0.0397  0.3695
 4072W        W20919   0.105  18.040  11.627 -0.0779  0.0995 -0.2471
 4073W        W20920  12.558   2.203   4.350  0.2159 -0.2195 -0.0971
 4074W        W20921   0.012   7.115   1.737  0.0481 -0.2820 -0.1016
 4075W        W20922  14.738   1.065  12.953 -0.0177 -0.1191 -0.1340
 4076W        W20923   7.192   1.929  11.260  0.0167 -0.2079  0.2820
 4077W        W20924   9.352   7.761   4.280  0.1036 -0.1353  0.4804
 4078W        W20925  13.300   5.099  10.432 -0.3204 -0.0869 -0.0299
 4079W        W20926   6.512  18.153   2.698 -0.3413 -0.4892  0.1544
 4080W        W20927   8.153   5.441   3.272  0.1544  0.2840  0.3235
 4081W        W20928   4.794  16.480  11.126  0.3223 -0.1524  0.1491
 4082W        W20929  15.544  18.724   3.602 -0.1081 -0.3739  0.2113
 4083W        W20930  16.873   8.384   2.218  0.1092  0.0253 -0.2677
 4084W        W20931  18.502   6.525   4.558 -0.0320  0.0192  0.0149
 4085W        W20932  12.809   5.300   1.707  0.0063 -0.0071  0.0082
 4086W        W20933   5.206   1.867  10.650 -0.0005  0.0134 -0.1006
 4087W        W20934   5.274   7.165  13.676 -0.0610  0.1654  0.1124
 4088W        W20935   4.028  15.407   2.779  0.1053  0.1178  0.4872
 4089W        W20936  17.391  11.260  11.909  0.3783  0.1599 -0.0680
 4090W        W20937  13.032   6.032   0.233  0.1815 -0.1259  0.2915
 4091W        W20938   2.447   1.256  12.595  0.2430  0.3841 -0.1945
 4092W        W20939   1.930   2.088   2.510 -0.1833 -0.2435  0.0546
 4093W        W20940  15.093   0.693  11.600 -0.2675  0.0548  0.2812
 4094W        W20941  11.341  12.566   2.420 -0.1564 -0.1192 -0.3526
 4095W        W20942  18.284  19.728   4.135 -0.2611 -0.3058  0.0770
 4096W        W20943   1.185   0.448   0.539  0.2422 -0.1731  0.1460
 4097W        W20944  19.241   6.490  12.874 -0.1882  0.0663  0.0947
 4098W        W20945  12.940   3.378   1.483 -0.1116 -0.3870  0.2059
 4099W        W20946  13.308  11.514   5.290 -0.1972 -0.1554 -0.2147
 4100W        W20947  18.787   1.104   2.915  0.0710  0.0248 -0.0899
 4101W        W20948   8.374   2.500   0.205 -0.0795 -0.2948  0.2087
 4102W        W20949  17.261  16.035   0.341 -0.3149 -0.0571  0.2749
 4103W        W20950   7.469   0.341  10.543  0.0093 -0.1677 -0.0988
 4104W        W20951   3.885  19.178   0.422  0.1415 -0.1191  0.0764
 4105W        W20952   8.567   1.640  11.487 -0.3063  0.1686 -0.1744
 4106W        W20953  12.212   6.830  11.114 -0.3084  0.2507 -0.3995
 4107W        W20954   1.981   9.416  13.122 -0.1874 -0.2550 -0.1685
 4108W        W20955   2.808  18.611   4.776  0.1805  0.1312  0.5224
 4109W        W20956  11.561   7.014  10.972  0.1689 -0.0649  0.4013
 4110W        W20957   8.698  12.292  14.222  0.3454 -0.0186  0.2881
 4111W        W20958   6.907  14.211   4.442  0.1348  0.3454  0.1900
 4112W        W20959  18.261  17.789  14.175  0.3376 -0.0526  0.1960
 4113W        W20960   3.376  16.215   3.233 -0.0909 -0.0502 -0.2817
 4114W        W20961  17.433   8.567   4.309 -0.2116  0.0943  0.1210
 4115W        W20962   0.274   6.124   3.713 -0.0219  0.0332  0.0755
 4116W        W20963  18.483   4.590  12.725 -0.0219 -0.0236  0.0909
 4117W        W20964  11.284   2.936   0.031  0.0316 -0.2588 -0.1682
 4118W        W20965  13.792  16.454   5.113  0.1667 -0.1333  0.0181
 4119W        W20966  16.169   7.461  11.155  0.0115 -0.1360  0.1046
 4120W        W20967  19.211   8.440   0.951  0.2634  0.0499 -0.0542
 4121W        W20968  17.661   7.114   3.629 -0.3556  0.1885 -0.2307
 4122W        W20969   4.512  14.728   2.080  0.0734  0.1892  0.0738
 4123W        W20970  17.252   6.700   0.964  0.1146 -0.3647  0.1184
 4124W        W20971  13.196   3.221   0.912  0.0300  0.0925 -0.1086
 4125W        W20972  16.745  13.530   3.213  0.1242 -0.1552  0.1483
 4126W        W20973  13.658  14.458   2.623 -0.1958  0.1117  0.1446
 4127W        W20974  10.960  18.969   4.420 -0.3106  0.0975 -0.3117
 4128W        W20975  19.043   0.932  12.960  0.0680  0.4984 -0.3628
 4129W        W20976   3.041   4.955   2.974  0.3596 -0.2706 -0.1765
 4130W        W20977   7.479  14.532  10.789  0.1830 -0.0983 -0.0416
 4131W        W20978   7.545   4.982  11.010 -0.2859  0.1061 -0.0789
 4132W        W20979  16.930  17.650   4.990 -0.1073  0.1678  0.0626
 4133W        W20980  17.514  18.121   1.064  0.1536  0.0665  0.0870
 4134W        W20981   1.820  15.383   4.626  0.3190  0.0850  0.2166
 4135W        W20982  13.447  18.394  11.314 -0.1157 -0.2028 -0.0085
 4136W        W20983   2.505  12.685   2.945  0.3198  0.1505 -0.4607
 4137W        W20984  17.313   7.127   5.887 -0.3160  0.0335  0.0497
 4138W        W20985   7.347  12.805   0.392  0.2480 -0.0926 -0.3153
 4139W        W20986   5.957  10.205  10.976  0.0253  0.1217 -0.0647
 4140W        W20987   2.178   0.837  12.481 -0.2176  0.2010 -0.0643
 4141W        W20988   2.021  14.951   0.831 -0.2160 -0.0531  0.0124
 4142W        W20989  16.636   7.792   2.739  0.4018 -0.1992 -0.1701
 4143W        W20990  19.597  14.158   3.178 -0.1424 -0.1444 -0.3695
 4144W        W20991  13.411   9.416  13.553 -0.0896 -0.0982  0.1299
 4145W        W20992  17.437   4.637   0.646  0.0159  0.1276  0.0486
 4146W        W20993   7.048  12.019  11.178  0.2153 -0.1293  0.0675
 4147W        W20994  15.189   2.825   1.253  0.2570  0.1245  0.0595
 4148W        W20995  19.714  11.600   0.732 -0.1237 -0.0431  0.0887
 4149W        W20996   7.657   5.115   2.098  0.1391 -0.1342  0.1494
 4150W        W20997   4.629  15.558  11.740 -0.0490  0.0342 -0.0055
 4151W        W20998  10.839  17.202  14.308  0.0320  0.0228  0.1766
 4152W        W20999  18.246   0.803  10.616 -0.4439 -0.3888  0.0328
 4153W        W21000   1.217   3.829  10.152 -0.0982  0.3924 -0.1069
 4154W        W21001   1.856  19.665   0.244  0.0229  0.2406  0.1430
 4155W        W21002  13.117   6.938   3.805  0.0037  0.1777 -0.2061
 4156W        W21003   1.092  11.891   2.111  0.0516  0.2961  0.0979
 4157W        W21004   1.395   7.879   5.265 -0.1386  0.1176  0.3962
 4158W        W21005   6.682  15.147  12.389 -0.0587  0.0536 -0.1057
 4159W        W21006   7.082   1.463  11.499 -0.1164  0.0826 -0.1608
 4160W        W21007   1.668  14.171  11.817  0.0756  0.1023  0.2230
 4161W        W21008  19.435   2.703  12.312  0.3923  0.0849 -0.0255
 4162W        W21009   7.357   0.497   0.001 -0.0487  0.2622  0.0994
 4163W        W21010  10.172  19.343   0.615 -0.1700 -0.0329  0.1899
 4164W        W21011  11.715  11.668   1.666 -0.0041 -0.0338 -0.0397
 4165W        W21012  18.817   7.563   2.355 -0.2566 -0.4532  0.0582
 4166W        W21013   2.966  15.183   9.958  0.2903 -0.0145 -0.0201
 4167W        W21014  16.330   0.352   3.949 -0.2274 -0.2153 -0.4692
 4168W        W21015   5.904   7.896  10.517  0.2505 -0.2465  0.2241
 4169W        W21016  15.156   1.934   3.592 -0.0972 -0.0784 -0.0431
 4170W        W21017  14.514  13.344   2.501  0.2289  0.1200 -0.1781
 4171W        W21018  18.809   5.698   4.601  0.1369  0.0653  0.3637
 4172W        W21019   2.064   8.088   3.166  0.1806 -0.0108  0.0005
 4173W        W21020  17.658  18.427  13.835 -0.0855  0.1693  0.0910
 4174W        W21021   1.192  11.841   9.673  0.1101 -0.0336 -0.1604
 4175W        W21022   7.563   3.303   3.363  0.2773 -0.2297  0.5155
 4176W        W21023  12.180   8.647  10.399 -0.0358  0.1437  0.3174
 4177W        W21024   1.685  10.244  12.887 -0.0646 -0.1940 -0.2292
 4178W        W21025  16.304   2.135   2.666  0.1319  0.1399  0.0264
 4179W        W21026  12.815  17.289  11.095  0.2515 -0.1480 -0.0940
 4180W        W21027  10.616  18.730  10.944  0.2000  0.1919  0.0402
 4181W        W21028   1.993   0.274   1.483  0.1857  0.1921  0.0404
 4182W        W21029  19.680   2.359  13.571 -0.1566 -0.1669  0.2154
 4183W        W21030   5.333   1.649  13.735 -0.0855  0.1340  0.0208
 4184W        W21031  13.356   2.207   0.396 -0.1527 -0.0521 -0.1889
 4185W        W21032  13.981   9.172   4.010  0.0870 -0.1543 -0.1162
 4186W        W21033   6.180  10.248   4.252 -0.1752  0.3099 -0.2796
 4187W        W21034   5.377  15.133   9.981  0.3796 -0.1995  0.1912
 4188W        W21035   8.302   7.884  11.936  0.0995 -0.1525  0.1121
 4189W        W21036  14.195  16.771   2.310 -0.1761 -0.1270 -0.0763
 4190W        W21037  13.315   4.035   4.480  0.1186 -0.0351  0.1841
 4191W        W21038  13.503  10.004   2.221 -0.0367  0.0685 -0.2141
 4192W        W21039   3.945   6.023  10.950  0.0836 -0.5946  0.0211
 4193W        W21040   3.506  16.018  10.236  0.3181  0.1229  0.2705
 4194W        W21041   5.874  10.402  11.470 -0.0314  0.0493  0.0880
 4195W        W21042   6.245   3.440   1.850 -0.1033 -0.0182 -0.0123
 4196W        W21043   9.317   4.976  13.099  0.1210  0.0037  0.1246
 4197W        W21044   7.132   7.829   2.479 -0.0744 -0.2829 -0.0192
 4198W        W21045   7.118   7.593   3.304  0.2398  0.2753 -0.1003
 4199W        W21046  12.262   5.492   3.796  0.0297  0.0988 -0.0720
 4200W        W21047   9.292  16.132  10.614  0.1484  0.1830 -0.2550
 4201W        W21048   7.178  15.114  10.575  0.3725 -0.1667 -0.0340
 4202W        W21049   9.535   0.584   9.247  0.1002  0.0887 -0.3012
 4203W        W21050  14.887  12.575   4.094  0.1351 -0.2467 -0.1049
 4204W        W21051  15.845  14.178   3.200 -0.1666 -0.4896 -0.0999
 4205W        W21052  10.565   7.544  12.369 -0.0240  0.3674  0.2562
 4206W        W21053  11.277   6.323   2.331 -0.1947  0.2868  0.2317
 4207W        W21054   7.789  19.008  12.944  0.3205  0.3238  0.1096
 4208W        W21055  15.741   6.672  13.241 -0.4182 -0.4800 -0.1945
 4209W        W21056   3.803   3.960  13.515 -0.0523  0.0715 -0.1551
 4210W        W21057   2.469  19.435   4.230  0.0238  0.0662  0.1316
 4211W        W21058  11.129   8.312   4.605  0.0113 -0.1798  0.2573
 4212W        W21059  16.396  17.219  12.302 -0.0776 -0.2626 -0.0116
 4213W        W21060  16.267  12.348  10.986 -0.1718  0.2577 -0.0699
 4214W        W21061  12.685   8.425   0.786  0.0405 -0.0552  0.0242
 4215W        W21062  17.880  12.079   4.707  0.0757 -0.1154  0.1674
 4216W        W21063   7.674  10.463  10.864  0.0619 -0.2371 -0.2991
 4217W        W21064  11.793   1.257   2.348  0.2863 -0.1456  0.3678
 4218W        W21065  10.827  17.941  10.188 -0.0791 -0.2133  0.0501
 4219W        W21066   1.803   0.989  11.174  0.3127 -0.0726  0.0473
 4220W        W21067   8.728  12.442   1.635 -0.1870 -0.3503  0.1179
 4221W        W21068  19.010   4.084   3.121 -0.2550  0.3131 -0.2275
 4222W        W21069   1.852  18.502  14.263 -0.3040 -0.1516  0.4977
 4223W        W21070   3.591  17.228   9.481  0.0982  0.0648 -0.3129
 4224W        W21071  15.640   3.405  12.825  0.1137  0.1045  0.0947
 4225W        W21072  18.245   9.394   4.423  0.0685 -0.5920 -0.0960
 4226W        W21073   0.971  14.161   4.005  0.1310 -0.0991 -0.0427
 4227W        W21074  15.418   6.939   4.225  0.1257  0.1365 -0.1426
 4228W        W21075   6.183   4.467  14.151  0.1060  0.0275 -0.0810
 4229W        W21076   5.427   2.455   2.636  0.0442 -0.0028 -0.1358
 4230W        W21077  18.722   8.298   0.029  0.2762  0.0689 -0.4107
 4231W        W21078   2.246  15.163  14.157  0.2579  0.2354  0.0975
 4232W        W21079  12.280  14.582  13.583 -0.0138 -0.2797  0.0131
 4233W        W21080  18.459   5.475   3.493  0.0496  0.1221 -0.0709
 4234W        W21081  10.032  14.242   4.927  0.2488  0.0377  0.0204
 4235W        W21082  15.335  16.631   4.020 -0.0541 -0.2752  0.1582
 4236W        W21083  10.942   8.814  12.542 -0.0057 -0.2297  0.1443
 4237W        W21084  15.903   2.071   2.925  0.4557  0.1694 -0.0336
 4238W        W21085   3.073   0.317  11.171  0.1839  0.2671  0.0912
 4239W        W21086  18.834   8.222   1.847 -0.3175  0.1298  0.1069
 4240W        W21087  16.195  18.503   1.776  0.1778 -0.1501  0.0453
 4241W        W21088   3.052   4.032   3.426  0.1690  0.1352  0.0847
 4242W        W21089   6.697   2.910  12.307  0.1029  0.3167  0.0132
 4243W        W21090   4.611   7.403  11.880 -0.2002 -0.0189  0.1129
 4244W        W21091   2.684  16.663  14.258  0.1342  0.2803  0.1188
 4245W        W21092   5.035  12.763   1.255 -0.0137  0.0710 -0.1782
 4246W        W21093  14.450  14.502   4.475  0.0655  0.4191  0.1744
 4247W        W21094   0.500  12.084   3.547  0.1544 -0.0214 -0.5585
 4248W        W21095   2.414  15.645  14.007 -0.1303  0.0727 -0.0972
 4249W        W21096   0.345   0.802   3.120  0.1804  0.1571  0.0126
 4250W        W21097  12.565  10.710  11.865 -0.3039 -0.1004 -0.0745
 4251W        W21098  13.912  17.074   3.886  0.0215 -0.0588 -0.1234
 4252W        W21099  15.823  17.482  12.573 -0.1024 -0.0147  0.0135
 4253W        W21100   8.739  17.332   0.275  0.3267 -0.0659  0.1942
 4254W        W21101  16.421  10.996   9.928 -0.1011 -0.0639  0.1089
 4255W        W21102   4.977   3.261   2.570 -0.0522 -0.0566 -0.0542
 4256W        W21103  15.451  18.156  11.815  0.1157 -0.1649 -0.2857
 4257W        W21104  13.359  14.437  13.242 -0.0001  0.1781 -0.0806
 4258W        W21105   3.871  13.576  12.495 -0.3160  0.2556 -0.0434
 4259W        W21106  13.417   3.539   1.628 -0.4744 -0.1073  0.1240
 4260W        W21107  17.466  18.670  13.381 -0.1057  0.2341  0.1256
 4261W        W21108  10.433   4.649  12.788  0.0248  0.0328  0.0129
 4262W        W21109  19.026   8.960   0.064 -0.0169  0.0978 -0.0045
 4263W        W21110   7.762   0.155   0.410 -0.0962  0.2051  0.0075
 4264W        W21111   3.258   6.937   2.316  0.0890 -0.3744  0.0130
 4265W        W21112   5.797  18.760   3.066  0.0432 -0.0386 -0.2670
 4266W        W21113  13.986  11.383   4.383  0.0549  0.0512 -0.1911
 4267W        W21114   7.573  12.365  12.728 -0.0106  0.0955  0.0286
 4268W        W21115  15.995  13.669  10.413  0.0126 -0.0489  0.2604
 4269W        W21116  15.565   6.123   3.993 -0.1630 -0.2522 -0.0039
 4270W        W21117   8.808   4.910   0.247 -0.4231  0.1779 -0.1042
 4271W        W21118  10.325   6.806  14.101  0.3019 -0.1513 -0.2207
 4272W        W21119  12.481   7.752  13.634  0.0327  0.1061 -0.0368
 4273W        W21120   9.154   5.231   0.458 -0.1791 -0.2809  0.2898
 4274W        W21121  12.164   1.720   3.259 -0.0885  0.0491  0.1861
 4275W        W21122  10.802  11.207   1.989  0.1278  0.0532  0.1806
 4276W        W21123   8.392  15.119   2.256 -0.0790 -0.2229  0.0504
 4277W        W21124   5.286  10.085   4.338  0.2911 -0.1312 -0.1016
 4278W        W21125  19.617   3.300   0.676  0.0028 -0.0520 -0.4396
 4279W        W21126   6.759   1.069   3.958 -0.1276  0.0642 -0.1987
 4280W        W21127   9.658  12.657   4.425  0.4952 -0.2235 -0.1637
 4281W        W21128   2.478   1.153  13.480 -0.0398 -0.2752 -0.3129
 4282W        W21129  14.360   7.207  13.523 -0.0258 -0.0783  0.1090
 4283W        W21130   5.350   8.532  13.068 -0.1031  0.2576 -0.2378
 4284W        W21131   2.581  15.892   2.532 -0.2213 -0.2333 -0.0123
 4285W        W21132   0.663  15.204   2.684 -0.4524  0.1203  0.1981
 4286W        W21133   1.938   0.505   4.114  0.0238 -0.1395 -0.0334
 4287W        W21134   5.760   8.279  10.220  0.2964 -0.2020  0.0563
 4288W        W21135   2.599  18.119   2.646  0.1664  0.0024  0.2691
 4289W        W21136   6.667  19.585  13.822 -0.1652  0.1756  0.2181
 4290W        W21137  19.351   5.507   0.846 -0.3081  0.1789 -0.1753
 4291W        W21138  14.783   6.371  11.846  0.3682  0.1879 -0.1111
 4292W        W21139   4.994  11.330   0.114  0.1510 -0.2757  0.0793
 4293W        W21140  12.151   5.168  11.427  0.0076  0.2991  0.2063
 4294W        W21141  13.563   6.175   1.300  0.0228  0.0625  0.0774
 4295W        W21142  14.604  11.022   4.901 -0.0934 -0.3992  0.0242
 4296W        W21143  16.035   9.986  10.184  0.0070 -0.0469  0.1356
 4297W        W21144  14.026  13.559   3.706  0.1513  0.0944 -0.5580
 4298W        W21145  13.483   2.716  12.552 -0.0145 -0.3432  0.2006
 4299W        W21146   0.259   4.892   3.413  0.0112 -0.3387 -0.1654
 4300W        W21147  19.653   1.860   0.585 -0.3848  0.2710 -0.6074
 4301W        W21148  17.944  12.532   4.007  0.0830 -0.3833  0.0975
 4302W        W21149  13.443   2.299   4.494  0.1484 -0.0355 -0.3098
 4303W        W21150   4.758   3.239   3.066 -0.1313 -0.1394  0.2175
 4304W        W21151  17.967   1.679   4.888  0.1852  0.6720 -0.1690
 4305W        W21152   2.778   0.706   1.567 -0.1303 -0.2941 -0.0239
 4306W        W21153  16.756  14.605  12.971 -0.1897 -0.1671  0.0648
 4307W        W21154   9.844  17.063   5.040  0.2209 -0.1448  0.0085
 4308W        W21155  16.627   2.379   3.732  0.1145 -0.1232  0.0032
 4309W        W21156   5.213  17.413   9.744  0.0716  0.3189  0.2747
 4310W        W21157  12.731   8.005   1.141 -0.1456 -0.1706 -0.0111
 4311W        W21158   6.411   0.713   0.946  0.6414 -0.1500 -0.2044
 4312W        W21159  10.136   1.051  14.299  0.0541 -0.0426 -0.2891
 4313W        W21160   3.387  16.324  11.808 -0.1044 -0.1959  0.0673
 4314W        W21161  18.807   6.773  10.985 -0.3090 -0.0777  0.1596
 4315W        W21162  18.767   5.181  10.866 -0.2848 -0.1832 -0.1385
 4316W        W21163  10.450  10.990   1.456  0.0808 -0.1683 -0.0471
 4317W        W21164  18.141  13.301   0.770 -0.2503 -0.2846 -0.1693
 4318W        W21165   3.870   0.073   1.287  0.1384 -0.0336 -0.3245
 4319W        W21166   4.651  11.096   3.968  0.4895  0.2078  0.0390
 4320W        W21167  19.463   6.116  10.098 -0.0611 -0.5021 -0.1951
 4321W        W21168  15.977   2.670   2.365 -0.0834  0.1744  0.1598
 4322W        W21169  17.845   1.456  12.317 -0.1015  0.3267 -0.1524
 4323W        W21170  13.056   8.979   2.883  0.0702 -0.2244  0.1945
 4324W        W21171  16.217   0.804  13.787 -0.2423  0.3765  0.3916
 4325W        W21172  16.032   6.739  11.450 -0.1567 -0.1026 -0.1545
 4326W        W21173  14.147   0.330   5.364  0.0694  0.1018  0.0247
 4327W        W21174  11.312   7.437   0.024 -0.0717 -0.0083  0.0557
 4328W        W21175   9.652   8.267   2.952  0.1192  0.1798  0.1227
 4329W        W21176  10.034   3.241  13.685 -0.2547  0.1949  0.0646
 4330W        W21177  13.570   8.224  12.093 -0.2349 -0.1680  0.1701
 4331W        W21178   9.359   6.547  12.802  0.0227  0.2603  0.2019
 4332W        W21179   7.545  11.843   3.909  0.2699  0.1256  0.0653
 4333W        W21180  14.730  18.169   0.403  0.0556  0.0271  0.0376
 4334W        W21181   1.751  19.640  13.869  0.2106  0.1673  0.1882
 4335W        W21182   4.979   4.724   1.961 -0.2147 -0.1976  0.0146
 4336W        W21183  16.668  12.442   3.009  0.0269  0.0178  0.0573
 4337W        W21184   3.601   4.684  10.438 -0.0158 -0.1504  0.3654
 4338W        W21185   2.050   6.407  13.824 -0.0446  0.0198 -0.1611
 4339W        W21186   5.207   6.307   3.917 -0.0430  0.1671 -0.0185
 4340W        W21187  12.866   4.857  10.186 -0.1697  0.2336 -0.1446
 4341W        W21188   8.642   3.267  12.447 -0.1161  0.2514  0.0856
 4342W        W21189  13.052  10.535  12.826  0.4925  0.0381  0.2398
 4343W        W21190  11.192   8.770  13.877  0.1574 -0.1424 -0.0459
 4344W        W21191   4.097   9.332   0.428  0.1575  0.0239 -0.0841
 4345W        W21192  13.759  11.834  14.018 -0.2912  0.2202  0.2379
 4346W        W21193   3.877   9.443   2.637 -0.4196 -0.1416 -0.2321
 4347W        W21194  15.980  17.228   4.530 -0.0109 -0.2055 -0.3598
 4348W        W21195   7.882  12.260  11.377 -0.0143  0.2301  0.0277
 4349W        W21196  19.226   7.909   1.804 -0.3489  0.2085  0.0675
 4350W        W21197  10.746  17.352   1.505 -0.1156  0.2816 -0.1167
 4351W        W21198   6.305  19.490   3.065  0.2428 -0.4022  0.2975
 4352W        W21199   4.232  13.890   1.150  0.1876  0.1537 -0.3074
 4353W        W21200   9.298   5.883  12.066  0.1796 -0.0130 -0.0334
 4354W        W21201  15.287   3.844  14.008 -0.1108  0.0096 -0.0279
 4355W        W21202  11.359  15.796  12.868  0.1145  0.2779  0.0518
 4356W        W21203   3.216  13.758   2.784  0.1384 -0.0952 -0.1232
 4357W        W21204  19.113  14.290  10.482  0.2453  0.0860 -0.2808
 4358W        W21205   7.300   8.805   0.466 -0.3905 -0.2279 -0.0579
 4359W        W21206  15.125   4.049  11.321  0.0523  0.2128 -0.1777
 4360W        W21207  13.776  13.218  14.267  0.0549 -0.0349 -0.1651
 4361W        W21208  17.367  10.947   3.375 -0.1731 -0.2377 -0.0110
 4362W        W21209  10.460   5.141   0.749  0.1161 -0.1806 -0.2655
 4363W        W21210  13.982  14.602   2.244  0.1189 -0.2862  0.0581
 4364W        W21211   7.455  13.086  12.273 -0.1147  0.1015  0.2046
 4365W        W21212   1.480  17.105  13.836 -0.1541  0.2305 -0.1361
 4366W        W21213   9.575  15.059   1.703 -0.1905 -0.1013 -0.0184
 4367W        W21214  13.458  19.244   1.771 -0.0970  0.0579 -0.0982
 4368W        W21215  14.787   2.330  11.817 -0.1398 -0.2218  0.0893
 4369W        W21216   1.358   5.886   3.167 -0.1590  0.0250  0.1182
 4370W        W21217  15.273  14.363   0.310 -0.2658  0.1052  0.1265
 4371W        W21218  18.738   5.902  10.848  0.1167 -0.3167 -0.2542
 4372W        W21219   4.961   3.586   9.566 -0.0823 -0.2242 -0.0118
 4373W        W21220   5.645   1.811   4.139  0.0644 -0.1362  0.2185
 4374W        W21221  18.030   0.305   0.638 -0.3422  0.0787 -0.2602
 4375W        W21222   1.470   5.462   0.240  0.1404 -0.0608  0.1548
 4376W        W21223  14.235  15.507   5.417  0.1492 -0.2490 -0.3020
 4377W        W21224   6.942   5.041  10.763 -0.0866 -0.2321 -0.2192
 4378W        W21225  14.480  15.065  12.390  0.1627 -0.1852 -0.0946
 4379W        W21226  14.857  19.456  13.004  0.3924 -0.0551  0.1108
 4380W        W21227  15.579   1.119  13.165 -0.0676  0.0832  0.0910
 4381W        W21228   2.835  14.241   3.786 -0.2765  0.1518  0.1211
 4382W        W21229   8.636  13.182  10.896 -0.1393  0.0015  0.1482
 4383W        W21230  17.824  14.757   1.201  0.3819 -0.0475  0.2391
 4384W        W21231   5.682  12.152   0.151  0.1233  0.0156 -0.0904
 4385W        W21232  18.168   2.598  11.007 -0.0176  0.0175 -0.0001
 4386W        W21233  15.519   0.815  12.795  0.0389 -0.1541  0.3521
 4387W        W21234  11.907  13.051   0.177  0.0753  0.1107  0.2005
 4388W        W21235   9.590   1.191   2.670 -0.3644 -0.1217 -0.1828
 4389W        W21236  17.473  12.726   2.351  0.2384 -0.1071 -0.2271
 4390W        W21237   3.080   8.224  12.879 -0.0597  0.3538 -0.0988
 4391W        W21238   7.168  18.046  13.180 -0.3142 -0.0136 -0.2573
 4392W        W21239  11.203  17.092  12.424  0.3296  0.2105 -0.1979
 4393W        W21240   8.629  13.278   1.148  0.1117  0.2152 -0.3044
 4394W        W21241  15.379   1.160   2.955  0.1178 -0.0549 -0.1511
 4395W        W21242   5.385  15.966   4.055  0.1210 -0.0537  0.2662
 4396W        W21243  12.776  14.135  13.475  0.2317 -0.0383  0.4904
 4397W        W21244  19.431   3.553   4.333 -0.0456 -0.1256  0.0723
 4398W        W21245   3.665  16.311   1.195 -0.2897  0.2104  0.2626
 4399W        W21246   4.455   7.895   0.446  0.3524 -0.1815  0.0090
 4400W        W21247  15.539  13.383  13.983  0.1895  0.0173  0.1415
 4401W        W21248   5.467  17.625   0.804 -0.1472 -0.2984  0.3298
 4402W        W21249   6.501   6.927  14.045  0.1524 -0.0963  0.4017
 4403W        W21250  10.033   3.419  12.753  0.2202 -0.0641 -0.1498
 4404W        W21251  16.938  13.041   3.267 -0.1171 -0.0877  0.0515
 4405W        W21252   6.733  10.413  14.121  0.0166 -0.2615 -0.0564
 4406W        W21253   1.326   8.848  11.446  0.0393 -0.1158 -0.1402
 4407W        W21254   5.579  10.218  12.536 -0.0329  0.1680 -0.0653
 4408W        W21255  19.909  18.947   1.809  0.0287  0.1514 -0.0981
 4409W        W21256  14.744  16.281   0.766  0.0356  0.1465 -0.1410
 4410W        W21257   0.753   6.787  13.833  0.0979 -0.0563 -0.1666
 4411W        W21258   3.787   6.132  12.028  0.0405 -0.1920 -0.0417
 4412W        W21259   4.702  15.128  14.039 -0.1045  0.0033  0.1421
 4413W        W21260  13.386   7.904   3.441  0.3369  0.0849  0.0582
 4414W        W21261   0.505   5.231   0.979  0.2843 -0.1170  0.2037
 4415W        W21262   5.910   7.450  12.933  0.0407  0.3643  0.3273
 4416W        W21263  13.152   2.315   1.143  0.0855  0.0823 -0.2804
 4417W        W21264   7.534  17.376   2.980  0.0985  0.0216 -0.1193
 4418W        W21265  12.883  12.123   0.169  0.0725  0.1850 -0.3316
 4419W        W21266   9.539  14.410  13.653  0.1042  0.0907  0.1306
 4420W        W21267   5.073  18.066   3.533  0.2542 -0.2359  0.2166
 4421W        W21268  13.074  11.160   4.010 -0.1292  0.0506 -0.0626
 4422W        W21269   3.653   7.045  12.799  0.1792 -0.1274 -0.0896
 4423W        W21270  11.403  14.688   9.207  0.0508  0.0134 -0.1450
 4424W        W21271  15.053  16.253   9.678  0.1824  0.1224  0.0284
 4425W        W21272  19.625  10.713  11.661  0.0002 -0.0642 -0.0688
 4426W        W21273  19.336  10.795  13.627  0.0956  0.3308 -0.0073
 4427W        W21274   6.223   7.074   3.789  0.1138  0.0948 -0.0842
 4428W        W21275  15.983   5.257  13.926  0.0242  0.1893 -0.0045
 4429W        W21276   5.603  10.595  11.102 -0.0163  0.0370  0.1010
 4430W        W21277   2.895  13.332  14.021 -0.3179  0.1251 -0.1251
 4431W        W21278   5.747  15.754   0.099  0.3331  0.0413 -0.1477
 4432W        W21279  19.879  16.339  12.503 -0.1065 -0.1249  0.0244
 4433W        W21280   2.345  16.434   3.747  0.3291  0.1354 -0.1755
 4434W        W21281   4.887   9.770  13.166 -0.0144 -0.0606 -0.1931
 4435W        W21282  11.864  18.965   4.333 -0.0046 -0.0229  0.0123
 4436W        W21283   7.997  11.977   0.778  0.0287 -0.6119  0.0075
 4437W        W21284  11.406   6.669   0.664 -0.0138  0.3430  0.0539
 4438W        W21285  14.017   8.704  11.320  0.0184 -0.3250 -0.1659
 4439W        W21286   0.188   0.118  11.638  0.1383 -0.0460  0.0827
 4440W        W21287   0.201  15.961   2.499 -0.0375  0.0282  0.0865
 4441W        W21288   2.935   9.403  10.918  0.0574 -0.1486  0.4485
 4442W        W21289   3.169  16.424   4.032  0.1407 -0.3627  0.1612
 4443W        W21290  18.027  18.744  12.681 -0.0362  0.0955  0.0767
 4444W        W21291   4.862   7.653   2.688  0.0536 -0.1175  0.1178
 4445W        W21292   2.997   3.121  11.427  0.3222 -0.1635 -0.1249
 4446W        W21293   1.705   7.443  11.169 -0.3216 -0.2838 -0.0981
 4447W        W21294  17.535  17.024  13.099  0.1148 -0.0879 -0.0173
 4448W        W21295   2.336  11.109  12.515 -0.0793 -0.3590  0.0568
 4449W        W21296   5.942  15.670   0.952  0.1963  0.0921 -0.1097
 4450W        W21297   4.707   4.670   9.600 -0.2365 -0.1303  0.1871
 4451W        W21298   2.851   2.778   1.540  0.0352  0.2633  0.2245
 4452W        W21299  16.388   1.904   3.673  0.1208 -0.1379  0.0433
 4453W        W21300   2.901  13.257  13.442  0.2274  0.0080  0.5619
 4454W        W21301  11.497  14.316  13.225  0.0650 -0.0936  0.2410
 4455W        W21302  15.572   7.670  14.290  0.0307 -0.0089 -0.1646
 4456W        W21303   9.221   5.385   8.840 -0.1423 -0.1604  0.0658
 4457W        W21304   4.751   7.943  14.262  0.0867 -0.2536  0.0443
 4458W        W21305   1.101   6.623  10.366  0.0752 -0.1317 -0.1913
 4459W        W21306   4.544   0.738   5.152 -0.3090 -0.1233  0.0552
 4460W        W21307   0.044  10.335  13.895 -0.1085  0.0708  0.0618
 4461W        W21308   5.080  18.247  10.213  0.0182 -0.1124 -0.0585
 4462W        W21309   7.454  11.963   0.505 -0.2897 -0.0093  0.3450
 4463W        W21310   7.252  17.195  13.358  0.1587 -0.0026 -0.3042
 4464W        W21311   4.143   5.541   0.517  0.0699  0.1378  0.2623
 4465W        W21312   0.928  18.689  13.387 -0.2987 -0.0729  0.1323
 4466W        W21313   2.028  15.354   3.666 -0.3158 -0.2579  0.0446
 4467W        W21314  10.178   7.818   0.642  0.1690  0.2945 -0.0038
 4468W        W21315   3.250   2.360   0.183 -0.0733 -0.1509  0.0154
 4469W        W21316   4.734  12.884  12.870  0.1833 -0.0294  0.1594
 4470W        W21317   4.362   9.552   0.823  0.1869  0.1312  0.3183
 4471W        W21318  14.542  18.016  12.525  0.0021  0.0163  0.0452
 4472W        W21319   3.424  14.899  13.878  0.0559  0.2028  0.2387
 4473W        W21320   1.905   0.557   2.500 -0.2282  0.0731 -0.0710
 4474W        W21321  16.991   1.575   2.670  0.1928  0.2219  0.1024
 4475W        W21322  18.443   9.490   2.164  0.2808 -0.0272  0.1313
 4476W        W21323   2.007  13.173  11.637 -0.1652  0.1572  0.3616
 4477W        W21324   0.814   2.341   0.583  0.0956 -0.2350 -0.0249
 4478W        W21325  12.889  16.257   2.672  0.3746 -0.1724  0.0578
 4479W        W21326  15.617   5.180   5.041  0.0317 -0.0236  0.0261
 4480W        W21327  18.713   9.726   0.561 -0.3106 -0.0097  0.0273
 4481W        W21328   1.838   0.189  14.236 -0.0571  0.0053 -0.1803
 4482W        W21329   3.690   7.532  11.255 -0.3565 -0.0496  0.2600
 4483W        W21330   9.695   2.967   2.881 -0.2162 -0.3046 -0.2509
 4484W        W21331   7.699  14.579   0.648  0.1714 -0.1361  0.0603
 4485W        W21332  19.138  10.242  12.226  0.0683 -0.4393 -0.2232
 4486W        W21333  18.197   5.923  11.065  0.1870  0.0782  0.0788
 4487W        W21334   9.876  19.453  10.023 -0.2403  0.0547 -0.3151
 4488W        W21335   6.137  15.159   1.021 -0.1056 -0.0195  0.1809
 4489W        W21336   9.695   8.755   1.086 -0.1002 -0.0589  0.1553
 4490W        W21337   4.851  17.455  13.508 -0.3097 -0.1623  0.2631
 4491W        W21338  12.705   9.610   0.732 -0.0484 -0.0915 -0.3072
 4492W        W21339   1.186   3.356   4.732 -0.1318 -0.0556  0.4965
 4493W        W21340  14.674   7.581  13.768 -0.0158 -0.0152  0.1853
 4494W        W21341  14.289   0.609  11.848 -0.1524 -0.2617 -0.2456
 4495W        W21342  17.737  16.442   3.495  0.0442 -0.1692 -0.2162
 4496W        W21343   9.901   9.212   0.228  0.4018 -0.0849 -0.3276
 4497W        W21344  19.694   8.164   1.764 -0.2322  0.1472 -0.0703
 4498W        W21345   1.474  14.030  10.088  0.1310  0.2192  0.0404
 4499W        W21346   3.495   1.403   0.259  0.0495  0.2961  0.0004
 4500W        W21347  10.437   6.119   4.348  0.0120  0.0421  0.2528
 4501W        W21348  18.410  14.691   3.769  0.3371 -0.2484 -0.3325
 4502W        W21349   8.984  16.724   4.355  0.0955  0.0332 -0.0042
 4503W        W21350  10.377  11.154  12.684 -0.1377 -0.1067  0.0594
 4504W        W21351   5.020   2.669   5.128  0.2004 -0.0821  0.3658
 4505W        W21352  10.890  12.677  11.814 -0.0933 -0.2346 -0.0357
 4506W        W21353   1.438  10.898   0.878 -0.0429  0.1242  0.1496
 4507W        W21354  19.234  13.981   2.892  0.1267  0.1128  0.1119
 4508W        W21355   6.414   2.343   1.041 -0.0450 -0.2168  0.0566
 4509W        W21356   0.905  10.452  12.727  0.1914 -0.0136  0.3128
 4510W        W21357  17.451  17.928   5.390 -0.0911 -0.0383  0.0318
 4511W        W21358   7.644  12.094  11.836  0.1138 -0.1161  0.1856
 4512W        W21359  12.400  17.244   1.920 -0.1001  0.0965 -0.2753
 4513W        W21360   6.372   2.641  11.034  0.0726 -0.1581  0.1738
 4514W        W21361  11.333   8.207   0.078 -0.0613 -0.0984 -0.0879
 4515W        W21362   1.179  13.841   1.436  0.0422  0.0374  0.1733
 4516W        W21363   1.596   0.186   2.795  0.2340 -0.0410 -0.1975
 4517W        W21364   1.979  10.866  10.167 -0.1487  0.0321 -0.0639
 4518W        W21365  15.235  17.283   0.809 -0.0875  0.1840  0.1883
 4519W        W21366   6.890   4.115   1.834  0.0163  0.3153 -0.1779
 4520W        W21367   3.322  17.425   4.736  0.1638  0.0709 -0.1374
 4521W        W21368  14.786   5.834   3.281 -0.0162 -0.2114  0.2351
 4522W        W21369   5.937  14.422  13.696 -0.1870  0.1722  0.2930
 4523W        W21370   6.156   6.581  12.637  0.2639 -0.1194  0.0615
 4524W        W21371   9.851  16.915  10.645 -0.2471  0.2341  0.2998
 4525W        W21372  10.679  14.288  11.882  0.3566 -0.1611 -0.0520
 4526W        W21373  14.882   0.497   2.913  0.1437  0.1962 -0.0150
 4527W        W21374  12.779   5.217  14.110 -0.2034  0.0474  0.1734
 4528W        W21375   4.265  13.099  11.278  0.0325 -0.0070 -0.1486
 4529W        W21376   9.311  13.051  13.656 -0.0560 -0.0046  0.0625
 4530W        W21377   8.223   1.046   1.285 -0.0256  0.2184 -0.0143
 4531W        W21378   4.219  12.095   3.091  0.1095 -0.0889 -0.3226
 4532W        W21379   4.012   4.550   9.607 -0.0792 -0.1765 -0.0782
 4533W        W21380  12.324  10.446   2.473 -0.0602  0.2001 -0.0042
 4534W        W21381  13.808   7.310   0.934 -0.1595  0.0323  0.1356
 4535W        W21382   7.259  11.659  13.754 -0.0319  0.0247 -0.2211
 4536W        W21383  15.783  10.975  11.041 -0.0385 -0.0085 -0.0028
 4537W        W21384   9.447   9.494   5.241 -0.2161  0.5380  0.2624
 4538W        W21385  10.390  10.920   3.723 -0.1209 -0.0853 -0.0123
 4539W        W21386   5.522  13.078   3.961 -0.1700  0.1532 -0.0297
 4540W        W21387   4.285  15.286  11.523  0.2913 -0.2836  0.0612
 4541W        W21388   2.444   3.088   9.664 -0.0789  0.0525  0.1905
 4542W        W21389   1.128   9.492   2.789  0.1329  0.1044 -0.1076
 4543W        W21390  13.858   2.642  14.191 -0.2659  0.1430 -0.1513
 4544W        W21391  17.626  13.520  14.235 -0.2597 -0.2718  0.1425
 4545W        W21392  14.064   2.723  13.752  0.1320  0.2370  0.3115
 4546W        W21393   3.262  16.723   0.003  0.1017 -0.3083  0.1330
 4547W        W21394   1.440   9.765   2.136 -0.3395  0.1971 -0.2535
 4548W        W21395   4.383  19.438   3.312  0.0421  0.0626 -0.1891
 4549W        W21396   0.044   4.252   1.265  0.4246 -0.2176  0.2334
 4550W        W21397   8.442  16.962  10.507  0.1284 -0.1085 -0.0882
 4551W        W21398  16.447  13.948  12.503  0.1138  0.1141 -0.0274
 4552W        W21399   2.869   2.970   1.031  0.1194 -0.2511 -0.0722
 4553W        W21400   7.504  13.802   3.116 -0.2887  0.3508  0.0914
 4554W        W21401   7.700   2.701   3.442  0.4120  0.0958 -0.0797
 4555W        W21402   2.088   6.871  13.903 -0.0729  0.0172 -0.1309
 4556W        W21403  13.056   4.335  13.392  0.0729 -0.2117  0.1907
 4557W        W21404   6.210   1.751  10.558  0.0326 -0.1503 -0.0217
 4558W        W21405   7.176   5.192  11.242 -0.1120  0.1241 -0.0714
 4559W        W21406   7.818  18.517   0.979  0.3299 -0.1501  0.1982
 4560W        W21407   8.886  11.078   2.951 -0.2133  0.1370  0.1685
 4561W        W21408   4.675   2.513  11.170  0.2486  0.0028 -0.0964
 4562W        W21409   0.706  14.629  12.198 -0.0537  0.2223 -0.2053
 4563W        W21410  10.294  11.589  12.852  0.3226  0.0118 -0.0496
 4564W        W21411  11.753  10.506   3.349 -0.1867 -0.1997  0.1801
 4565W        W21412   1.389  15.255   3.268  0.2775 -0.1625 -0.0558
 4566W        W21413  10.475   1.645   2.656  0.4985  0.3730  0.0131
 4567W        W21414  19.734   2.874   1.415 -0.2461  0.1692  0.0825
 4568W        W21415  12.298  17.610   3.960 -0.1859  0.1851  0.2763
 4569W        W21416  19.776   1.317   1.832 -0.0016  0.1766  0.1691
 4570W        W21417   8.106   9.359  12.097  0.0046  0.0734  0.0433
 4571W        W21418   3.440  18.578   0.395  0.0615  0.3379 -0.5519
 4572W        W21419  18.603   6.568  13.520 -0.2542 -0.3197 -0.0212
 4573W        W21420  10.060   9.415  12.185 -0.0046 -0.2181 -0.2065
 4574W        W21421   7.195  10.370  10.894  0.2657 -0.1837  0.0482
 4575W        W21422  14.456   2.581  14.021  0.0408 -0.1433  0.3435
 4576W        W21423  18.983  15.603  11.665 -0.1695 -0.1065  0.0477
 4577W        W21424  18.851   2.515  10.190  0.0813 -0.0830  0.0181
 4578W        W21425  14.047   0.818   3.284 -0.0372 -0.0100  0.2330
 4579W        W21426   0.043  18.562   4.013  0.5369  0.1058  0.3050
 4580W        W21427  19.271   3.341   9.870 -0.1960 -0.0160  0.1083
 4581W        W21428  16.160  18.634  12.297 -0.1700 -0.1281 -0.2288
 4582W        W21429  13.325   1.095  13.952 -0.2069 -0.1612  0.0251
 4583W        W21430  18.112   5.132   3.307  0.5398  0.1635 -0.2558
 4584W        W21431  17.517   9.715   3.606  0.1107  0.0719 -0.0984
 4585W        W21432  14.650   0.896  13.396  0.1562  0.0159 -0.1169
 4586W        W21433  10.791   9.574   3.555  0.3042  0.2402 -0.1706
 4587W        W21434  14.534  17.141   3.084 -0.3898 -0.0354  0.0398
 4588W        W21435   0.915  15.863  13.533  0.2421 -0.3464  0.1821
 4589W        W21436   7.860   4.910  13.509  0.0171 -0.2935  0.2691
 4590W        W21437   2.329   7.957  12.985  0.4663  0.1381 -0.3731
 4591W        W21438  18.682  11.896  10.514 -0.0020  0.0516  0.0242
 4592W        W21439  13.296  11.263  12.624  0.1343 -0.2338 -0.1385
 4593W        W21440   7.938   3.731   1.012 -0.0452  0.3586  0.1802
 4594W        W21441  13.257  12.996   3.224 -0.1743 -0.2870 -0.0784
 4595W        W21442  11.815   0.296  12.737  0.3079  0.0693 -0.2445
 4596W        W21443  10.415   7.819  11.841 -0.0991 -0.0570 -0.0605
 4597W        W21444  19.815  10.396   2.712 -0.2967 -0.4427  0.1758
 4598W        W21445   9.728   9.287   0.854 -0.0043  0.2020 -0.0096
 4599W        W21446  12.837  11.781  14.125  0.0844 -0.0661 -0.3226
 4600W        W21447   3.582   4.819  13.924  0.3310 -0.1197  0.1424
 4601W        W21448  19.683  17.908   0.488  0.0014  0.0206  0.4007
 4602W        W21449  16.613  17.054   2.189 -0.2353 -0.0275  0.0680
 4603W        W21450   6.545   4.116   4.734 -0.1198  0.0512 -0.0556
 4604W        W21451  10.471  14.305   2.016 -0.0074 -0.1956  0.0273
 4605W        W21452   4.346  11.010   1.765  0.2682  0.0465 -0.2759
 4606W        W21453  18.329   6.491  12.241  0.0204  0.2219 -0.1503
 4607W        W21454  12.768   9.657  10.395 -0.1561 -0.2881 -0.1538
 4608W        W21455  12.097  19.816   2.120 -0.0662 -0.2173  0.0399
 4609W        W21456  14.040  13.328   9.360 -0.3222  0.1060 -0.0548
 4610W        W21457   9.091  10.797   2.070 -0.2667 -0.3249 -0.1393
 4611W        W21458   0.107   5.240   2.033 -0.0142 -0.1294  0.2533
 4612W        W21459  18.100   8.268  10.393 -0.1730 -0.2236 -0.2432
 4613W        W21460  19.210   0.964  12.130  0.0129 -0.0413  0.4564
 4614W        W21461  13.923   8.443   2.535  0.0628  0.3903  0.1279
 4615W        W21462   4.780   0.179   9.726  0.0089  0.0342  0.0185
 4616W        W21463  14.586   0.687   5.374 -0.1088 -0.0456 -0.0649
 4617W        W21464   2.823  15.541   0.821  0.0601  0.4771  0.2909
 4618W        W21465  19.802   9.751  11.589 -0.0048 -0.1409 -0.1208
 4619W        W21466  10.345   2.801   4.800  0.0348  0.0180  0.1163
 4620W        W21467  14.357   3.412   1.722  0.1169 -0.0930  0.0206
 4621W        W21468  17.015   4.674  12.859 -0.3333 -0.2008 -0.2908
 4622W        W21469   6.095  14.120  14.115 -0.1518  0.0378  0.2951
 4623W        W21470   0.199  14.829  10.576  0.1705 -0.1942  0.0603
 4624W        W21471   3.412  10.948   9.900 -0.1183  0.2394  0.0949
 4625W        W21472  12.974  16.190   4.289 -0.1200 -0.1216 -0.3904
 4626W        W21473  11.191  17.286  13.249  0.2414  0.4769  0.0504
 4627W        W21474   0.603   3.620  11.728  0.1246 -0.1214 -0.0554
 4628W        W21475  16.247  19.248  13.367 -0.1229  0.0928  0.0767
 4629W        W21476  12.220  12.826  11.889  0.1048 -0.0685 -0.2070
 4630W        W21477   3.913  19.642   4.125 -0.1162 -0.0149 -0.1602
 4631W        W21478   6.544  16.189   0.535 -0.0530 -0.0957 -0.1046
 4632W        W21479  10.961   0.015   0.345 -0.0650 -0.0880 -0.0001
 4633W        W21480   4.502  11.086  12.881 -0.1375 -0.1935  0.1773
 4634W        W21481  11.397   6.816   3.849 -0.0781  0.0848 -0.2488
 4635W        W21482  15.880   9.640   3.620 -0.1954 -0.0971  0.2158
 4636W        W21483  12.552  11.070   3.714 -0.1962  0.1711 -0.2601
 4637W        W21484  17.759   0.213  12.747 -0.0173  0.0430  0.2378
 4638W        W21485  15.220   5.473   2.441 -0.0368  0.0804  0.0294
 4639W        W21486  13.002   5.047  12.080 -0.0586 -0.0966  0.0598
 4640W        W21487  10.272  13.094   4.990 -0.0483 -0.0389 -0.0955
 4641W        W21488   8.832  18.074  12.910  0.1046 -0.1608 -0.0780
 4642W        W21489   0.388  19.832   2.057 -0.1271 -0.0269  0.2547
 4643W        W21490   0.371   9.384   2.140 -0.0454 -0.2390 -0.0623
 4644W        W21491  19.399   1.735   2.201  0.1204  0.0309  0.2377
 4645W        W21492  14.079  16.145   2.131 -0.0220 -0.1356  0.0377
 4646W        W21493   7.796   5.404  13.182 -0.0087  0.1857  0.3712
 4647W        W21494   0.105   9.678  12.692 -0.0269  0.0315  0.2664
 4648W        W21495   2.751   5.512  13.134  0.0828 -0.5455  0.0313
 4649W        W21496   3.457   9.429   2.226 -0.3036 -0.1469  0.2777
 4650W        W21497   8.992   0.897   3.425 -0.1726 -0.1269 -0.0051
 4651W        W21498   1.209   2.211   0.011  0.1971  0.0756 -0.2666
 4652W        W21499  17.807  10.846   3.078 -0.0383  0.0407 -0.0265
 4653W        W21500  10.682   4.126   0.412  0.3016 -0.0150 -0.1852
 4654W        W21501  18.971  15.738   1.456  0.0679 -0.1228  0.0738
 4655W        W21502  11.041  17.559   2.208  0.1890  0.0107 -0.3702
 4656W        W21503   5.392   1.006   2.004 -0.3251 -0.3167  0.0540
 4657W        W21504   1.873   6.076   0.497 -0.3975 -0.0408  0.1951
 4658W        W21505   4.647  19.863   4.070 -0.0696  0.4361  0.0704
 4659W        W21506   4.212   2.536  12.066  0.0742  0.1105 -0.0036
 4660W        W21507  17.117  14.043  13.562  0.1131 -0.1539 -0.4366
 4661W        W21508   3.709   3.178  13.373  0.1903  0.1087  0.1136
 4662W        W21509  12.673   5.794   0.520 -0.0363 -0.1421 -0.1279
 4663W        W21510  16.502   0.056   2.192  0.3283 -0.1859  0.0145
 4664W        W21511   6.042  12.586   1.325 -0.1950 -0.0756  0.0492
 4665W        W21512  16.914   2.788  14.099  0.1671 -0.1108  0.2706
 4666W        W21513  13.052   7.061   0.430  0.4693  0.3622  0.0258
 4667W        W21514   6.339   0.532   1.689 -0.1108  0.1877  0.1262
 4668W        W21515  18.707  18.945   0.212 -0.4488  0.1339  0.4052
 4669W        W21516  14.166  17.388  14.194 -0.0036  0.0340  0.0855
 4670W        W21517   3.750   9.689   1.582 -0.0592  0.5153  0.1248
 4671W        W21518   5.151   2.917   1.488  0.3589 -0.1837 -0.1146
 4672W        W21519  19.269  19.772  12.917  0.2853 -0.0705 -0.0392
 4673W        W21520  15.077   9.005  12.931  0.4311 -0.0755 -0.3862
 4674W        W21521   1.902   3.010   2.595  0.2226  0.0265 -0.2715
 4675W        W21522   0.250  10.321   8.860  0.4554  0.4575  0.2655
 4676W        W21523  19.176  14.184  12.119 -0.2591  0.0060  0.2331
 4677W        W21524   5.944   8.128   9.167  0.0166  0.1185 -0.2835
 4678W        W21525  13.004  16.965  11.693 -0.1736 -0.2289 -0.3448
 4679W        W21526   6.631  10.986   1.702  0.0319 -0.4211  0.1357
 4680W        W21527  11.302  10.024   2.929  0.0392 -0.0080  0.1958
 4681W        W21528   4.759  15.569  11.237  0.0008 -0.1019 -0.1162
 4682W        W21529   0.877  16.111   3.769  0.0700  0.2896 -0.0526
 4683W        W21530  14.827  13.756  10.055  0.2131  0.1172  0.0820
 4684W        W21531   0.098   4.772   1.137  0.2464 -0.0924  0.1710
 4685W        W21532  12.752  18.266  13.678  0.1850  0.2540 -0.4208
 4686W        W21533  14.018   3.990  12.093  0.2386 -0.1725  0.2167
 4687W        W21534   4.082   5.030   3.497  0.0593  0.2033 -0.3607
 4688W        W21535   0.170   3.586  12.274  0.2971  0.0634 -0.1821
 4689W        W21536  13.578   3.064   5.691  0.1271  0.0492  0.5180
 4690W        W21537   6.184   0.517   3.181  0.0120  0.1047  0.1573
 4691W        W21538  10.279   1.161   1.681 -0.0601  0.0120 -0.1789
 4692W        W21539  12.861   6.160   2.679 -0.0287  0.0631 -0.0857
 4693W        W21540  18.903   5.923   5.115  0.1658 -0.1166 -0.1925
 4694W        W21541   4.828  13.430  14.210  0.1970 -0.2362  0.1476
 4695W        W21542   8.282   5.211   2.261  0.2259 -0.2537 -0.1269
 4696W        W21543  13.873  11.021  12.491 -0.0277  0.3184  0.1338
 4697W        W21544   7.572  15.326   2.279  0.0616 -0.4694  0.1810
 4698W        W21545  19.582  12.361   0.950 -0.1459 -0.0396  0.0322
 4699W        W21546   9.987  13.615  13.962 -0.1134  0.1263 -0.1760
 4700W        W21547  11.038   4.035  12.994 -0.2308 -0.0700  0.0169
 4701W        W21548   5.011   3.772   1.097  0.0209 -0.0388  0.0079
 4702W        W21549   2.399  15.690   0.544 -0.1382 -0.1571 -0.0959
 4703W        W21550   6.389   5.759   4.118  0.0281 -0.0213 -0.1664
 4704W        W21551  14.679   4.672  14.191  0.2081  0.0598 -0.1041
 4705W        W21552  17.872  10.608  12.729  0.3679 -0.0326  0.1719
 4706W        W21553  17.214   3.656  11.112  0.2663  0.1140  0.0760
 4707W        W21554  13.973   0.603  10.944  0.1790 -0.3800  0.2835
 4708W        W21555   2.767  16.602   5.225 -0.0249  0.0919  0.1184
 4709W        W21556   7.049  18.592   1.638  0.0169 -0.5210  0.1527
 4710W        W21557   3.245  15.605   0.237 -0.0869  0.2631  0.0120
 4711W        W21558  18.089   3.915  12.161 -0.1111 -0.2534 -0.0567
 4712W        W21559   2.668  10.978  10.120 -0.3106  0.0422  0.0347
 4713W        W21560  18.262   5.225  11.955  0.1763 -0.0471 -0.1402
 4714W        W21561   0.123  19.433   2.719 -0.0676  0.2345  0.1447
 4715W        W21562   0.288   8.121   0.074  0.0428 -0.0606 -0.2323
 4716W        W21563   5.432  15.526   2.147  0.0658 -0.0555 -0.1684
 4717W        W21564   6.547   7.323  11.428  0.1944 -0.0093  0.1320
 4718W        W21565  10.325   5.701   1.656  0.2900  0.1644  0.1450
 4719W        W21566  18.515  15.725   1.718  0.1832  0.1732 -0.2105
 4720W        W21567   5.875   4.463   2.125 -0.1027 -0.1478 -0.1626
 4721W        W21568   8.958  13.325   3.278 -0.1602  0.1842  0.1054
 4722W        W21569   5.599  19.146   1.402  0.3785 -0.1190  0.2638
 4723W        W21570  15.025  13.989   0.424 -0.1387  0.2462  0.1543
 4724W        W21571  18.869  12.530   1.070  0.0474 -0.0944 -0.3993
 4725W        W21572  17.933  16.205  12.069 -0.1684 -0.0008  0.1146
 4726W        W21573   7.076  12.824  12.013 -0.2196  0.0238 -0.0697
 4727W        W21574  10.456  15.858  14.033  0.1168  0.3809  0.0042
 4728W        W21575   7.643  16.992  10.796 -0.1929  0.2310 -0.0037
 4729W        W21576  15.721  12.617   2.088  0.2635  0.0559  0.0560
 4730W        W21577  13.984  17.741   9.677 -0.0853 -0.1442 -0.1722
 4731W        W21578  14.554   2.883  10.764 -0.0913 -0.2165  0.2252
 4732W        W21579   1.029   9.490   3.290 -0.0273  0.0149 -0.1871
 4733W        W21580   2.550  13.973   0.402 -0.0628 -0.0903 -0.1538
 4734W        W21581  19.847  10.842  13.780 -0.0148  0.0857  0.0946
 4735W        W21582  13.691  19.261  12.624  0.1081  0.2223 -0.1016
 4736W        W21583  10.085  16.746  12.085  0.0311 -0.3062  0.2738
 4737W        W21584   2.585   9.003  12.990  0.1829 -0.1685  0.2581
 4738W        W21585  14.776  18.959  13.331  0.2279  0.1881  0.0452
 4739W        W21586   6.915   2.163  11.628 -0.0595 -0.1539 -0.0026
 4740W        W21587  13.913  13.335  11.273  0.1259  0.1256  0.0784
 4741W        W21588  17.799  13.407   2.428  0.0397  0.0859  0.3637
 4742W        W21589   8.503   9.673   3.467  0.2609 -0.0771  0.0883
 4743W        W21590   5.517   1.005   1.498 -0.2791  0.1128  0.1678
 4744W        W21591  14.304   4.635   2.088  0.0287  0.0396  0.0050
 4745W        W21592  11.379  14.933  10.592 -0.0482  0.1298  0.3618
 4746W        W21593   1.524  16.684  12.468  0.0193  0.2052  0.0717
 4747W        W21594  12.125  19.709  11.988  0.0720  0.2381 -0.0515
 4748W        W21595   7.864  14.136  10.704  0.0563  0.1472 -0.3641
 4749W        W21596   9.185   8.250   1.113  0.1309  0.0416 -0.0352
 4750W        W21597   6.155   7.751   2.584  0.4339 -0.0705  0.2770
 4751W        W21598  11.984  17.421   1.580 -0.0850  0.0851 -0.2420
 4752W        W21599   1.019  18.612   9.872  0.2437 -0.0147 -0.0406
 4753W        W21600  19.342   4.192  11.479  0.2258 -0.1037 -0.2016
 4754W        W21601   1.374  15.878   1.567 -0.3278 -0.0521 -0.0374
 4755W        W21602   6.494  14.099   4.121  0.1128 -0.1688  0.0708
 4756W        W21603   4.341   7.794   2.761  0.0777 -0.0818 -0.0640
 4757W        W21604  19.223   6.145   2.931 -0.2373 -0.0105  0.0949
 4758W        W21605   4.082  18.946   9.811  0.1638  0.4387 -0.3603
 4759W        W21606  19.190   3.318  13.395  0.0495  0.1902  0.0715
 4760W        W21607  18.254   5.661  13.409  0.0412 -0.6525 -0.2601
 4761W        W21608   8.885   7.788   4.513  0.0352 -0.1450 -0.1554
 4762W        W21609   7.471   2.693   0.968  0.2367 -0.3904 -0.1601
 4763W        W21610   2.049   7.389  13.891 -0.3061  0.4090 -0.2541
 4764W        W21611  19.334  15.711   1.779  0.0302 -0.0628  0.0888
 4765W        W21612  14.247   5.987  11.197  0.0442  0.1068  0.1692
 4766W        W21613  18.558  19.332   1.420 -0.1426  0.0126  0.2313
 4767W        W21614   1.245   8.391   3.516  0.1374 -0.1750 -0.3311
 4768W        W21615  18.303  15.421   3.585  0.0839  0.3021 -0.3657
 4769W        W21616  19.684  13.260  13.671 -0.1457 -0.0033  0.0397
 4770W        W21617  12.535   4.511   4.808 -0.1304 -0.0147 -0.0701
 4771W        W21618  13.898  10.350  13.809  0.0192 -0.0183  0.1933
 4772W        W21619  17.236   5.467   4.292  0.1066  0.3069 -0.0505
 4773W        W21620  19.140   5.033   3.594  0.0319 -0.0463  0.2272
 4774W        W21621  17.356   4.266  11.417 -0.2786 -0.0149 -0.0267
 4775W        W21622   4.828   7.054   2.341  0.1178 -0.1561  0.2510
 4776W        W21623   0.293   3.123  12.130  0.1699 -0.3012  0.2534
 4777W        W21624   9.199  19.884   4.720  0.0559  0.0820 -0.2443
 4778W        W21625   2.779   3.162  14.059 -0.0943  0.0768 -0.0163
 4779W        W21626  15.599   5.558  14.153  0.0304 -0.0054 -0.1038
 4780W        W21627  15.769  17.512  10.922 -0.1042 -0.1542 -0.0562
 4781W        W21628   2.081  16.684   4.108 -0.0289 -0.0424  0.3053
 4782W        W21629   3.911  11.092   1.356 -0.1598  0.2472  0.0096
 4783W        W21630   7.191   9.942  10.577  0.0667 -0.1522 -0.0963
 4784W        W21631  13.894  13.789  14.219  0.0938  0.1130 -0.0651
 4785W        W21632   2.587   1.632  11.704 -0.1092  0.1402  0.1920
 4786W        W21633   5.019   6.290  13.749 -0.0797  0.4104  0.1289
 4787W        W21634  14.912  19.532   3.922  0.0392  0.2589 -0.4894
 4788W        W21635  10.271   2.283  13.829 -0.2649 -0.1239  0.2130
 4789W        W21636   5.985  17.901  12.044  0.0973 -0.2362  0.2387
 4790W        W21637  16.032   4.482  11.400  0.0315 -0.0823 -0.0081
 4791W        W21638  18.759  14.624   3.457  0.1113  0.3426  0.0943
 4792W        W21639  11.479   4.774   0.982 -0.1350  0.0172 -0.0375
 4793W        W21640  18.940   6.453  10.634 -0.1617  0.0721 -0.0052
 4794W        W21641  19.168   2.585   4.753 -0.2010 -0.1703 -0.3193
 4795W        W21642   2.249   5.574   2.008 -0.2223  0.4172 -0.1786
 4796W        W21643   4.384   9.982  10.630  0.0136 -0.0911  0.0466
 4797W        W21644   3.301  13.564  13.489 -0.0633  0.0624 -0.0219
 4798W        W21645  18.873   3.035  14.049 -0.0498 -0.2144 -0.0360
 4799W        W21646   3.042  16.221  10.055  0.1107  0.1643 -0.1031
 4800W        W21647   5.066   8.713  12.296  0.2173  0.2559  0.2331
 4801W        W21648  11.154  14.610   2.206 -0.1818 -0.0298  0.1687
 4802W        W21649  15.759  18.232  14.234 -0.1292 -0.1683 -0.0259
 4803W        W21650   9.260  14.897   0.187 -0.0241 -0.2352 -0.2613
 4804W        W21651  18.905   3.112   1.141 -0.0876 -0.1934  0.0941
 4805W        W21652   1.358  11.602  11.726 -0.1872 -0.2550 -0.2221
 4806W        W21653  17.912   9.481  13.089 -0.1345  0.0881 -0.3979
 4807W        W21654  16.900  18.437  11.287 -0.0399  0.0038 -0.2664
 4808W        W21655  12.142  11.409   3.968 -0.1242  0.0014  0.0634
 4809W        W21656   8.607  19.201   2.091  0.1501 -0.1705  0.1474
 4810W        W21657   7.814   7.768  11.777  0.0618  0.0849  0.2085
 4811W        W21658   0.679   2.534   2.819 -0.1229  0.1115 -0.0779
 4812W        W21659   1.298  11.445   0.247 -0.1344 -0.0667  0.0243
 4813W        W21660  11.197   4.067   1.753 -0.0061  0.0051  0.1990
 4814W        W21661  15.149   0.735   3.234 -0.2816  0.0093  0.1966
 4815W        W21662   3.954   0.701  11.117  0.2227  0.0615  0.0711
 4816W        W21663  18.309   1.676   0.548  0.0794  0.0855  0.3207
 4817W        W21664   8.524  18.138  10.343  0.0332  0.0375  0.1460
 4818W        W21665  10.573   5.679   2.557 -0.1974  0.0029 -0.1976
 4819W        W21666  18.607   7.786   2.742 -0.2211  0.3628 -0.2323
 4820W        W21667   4.352   1.254   5.007 -0.2511  0.0385 -0.1450
 4821W        W21668  12.002   0.146  13.848 -0.1258 -0.0274 -0.2540
 4822W        W21669   5.669  13.152   1.720  0.1100  0.0741 -0.1540
 4823W        W21670  18.305  19.468   9.313 -0.1234 -0.1526 -0.0819
 4824W        W21671   7.573  11.595   3.445 -0.0634  0.2660 -0.1158
 4825W        W21672   3.919   5.020  12.191  0.3049 -0.2218 -0.0418
 4826W        W21673   7.829  14.164   4.357  0.1409  0.0518  0.1217
 4827W        W21674   2.460  14.280   1.236  0.1090  0.0081  0.3870
 4828W        W21675  17.308  17.770  11.460  0.0636 -0.0981 -0.1753
 4829W        W21676  12.034  14.871  11.813  0.2309 -0.0536  0.1607
 4830W        W21677   4.243   9.709   9.733 -0.0978  0.0283 -0.1354
 4831W        W21678  10.352  16.344   2.201 -0.0478 -0.3011  0.2637
 4832W        W21679   3.046  12.812  14.216 -0.2908  0.0260  0.2490
 4833W        W21680   7.779   3.609  11.174 -0.4058 -0.3724 -0.0806
 4834W        W21681   1.528   7.266  13.839 -0.0267 -0.0044  0.1714
 4835W        W21682   3.680  19.280   9.907  0.3699  0.1557 -0.6457
 4836W        W21683   0.592  13.875   4.248  0.0746  0.0262  0.1021
 4837W        W21684  12.252   1.875  10.053  0.2755 -0.6501  0.1909
 4838W        W21685   3.958  12.100   0.838  0.2286  0.2625  0.2745
 4839W        W21686  16.292  14.277  12.865  0.2738 -0.1253 -0.1169
 4840W        W21687   4.920   9.562   1.564  0.1304  0.2664  0.2591
 4841W        W21688   4.034  11.109   0.034  0.0092 -0.3526 -0.1055
 4842W        W21689  13.003   2.230   5.392  0.2773  0.0727 -0.2648
 4843W        W21690  16.027   5.047  12.563 -0.0254 -0.0831 -0.2584
 4844W        W21691  13.344  15.206  10.805  0.0849 -0.3632  0.0938
 4845W        W21692   8.062   5.576   3.740 -0.1976  0.1567 -0.4150
 4846W        W21693  18.469  13.851   2.778 -0.2022  0.0114 -0.0732
 4847W        W21694   0.298   7.252  10.363  0.3087  0.0858 -0.5448
 4848W        W21695  13.395  13.121  13.955  0.3346  0.0467 -0.2843
 4849W        W21696   9.655  16.694   1.144  0.0967 -0.0690 -0.1005
 4850W        W21697  18.847  10.121  13.223 -0.0429  0.0124  0.0125
 4851W        W21698  19.536  14.777  14.139  0.4803 -0.1955 -0.1592
 4852W        W21699   7.974   0.390  10.620 -0.1506  0.2104  0.0350
 4853W        W21700   7.441   2.172   2.274 -0.2588 -0.1480  0.1755
 4854W        W21701   6.330  11.353  12.847 -0.2571  0.0048  0.3913
 4855W        W21702   8.827   6.119  12.165  0.0265 -0.1996 -0.1497
 4856W        W21703  15.735  12.824   0.447 -0.1145  0.1955  0.1442
 4857W        W21704   3.905  10.011   3.408  0.0967 -0.1441  0.1943
 4858W        W21705   7.977   4.756  12.969  0.4094 -0.0161 -0.0028
 4859W        W21706   2.061   4.271  13.307  0.0236 -0.0898  0.0033
 4860W        W21707   1.008   7.757  12.140  0.3613 -0.0977 -0.1400
 4861W        W21708  12.227   1.540   9.643 -0.1557 -0.1259  0.0727
 4862W        W21709  16.048   2.883   5.572 -0.1856  0.1283 -0.1166
 4863W        W21710   2.543  16.176   0.775  0.0049  0.0306  0.0951
 4864W        W21711   3.411   3.275   0.280  0.1766 -0.1483  0.3681
 4865W        W21712   4.518   4.728  11.448 -0.0485  0.1964  0.5193
 4866W        W21713  13.440  16.154   1.864  0.4264  0.1377 -0.3859
 4867W        W21714   0.470  14.943   2.262 -0.1827  0.0547  0.3182
 4868W        W21715  11.623  11.481  13.966  0.0284  0.1317  0.0232
 4869W        W21716   6.287  19.669  14.079 -0.4717 -0.1790 -0.0748
 4870W        W21717   9.053   9.200   0.436  0.2352  0.0653 -0.3032
 4871W        W21718  16.984   2.002   3.996  0.0697  0.3044  0.2288
 4872W        W21719  18.539  15.007  11.246  0.1342  0.0573  0.0258
 4873W        W21720   9.445   5.218  13.863 -0.2605 -0.0090  0.1441
 4874W        W21721   2.760   0.992   3.628  0.0753 -0.0486 -0.0429
 4875W        W21722   1.584  18.978   1.859 -0.1965 -0.1416 -0.0798
 4876W        W21723   1.927   4.389   1.943 -0.0761 -0.0462  0.1464
 4877W        W21724   0.303  15.393  11.355 -0.2977  0.0672  0.0519
 4878W        W21725   7.729  19.493   1.619  0.0359  0.2802  0.1534
 4879W        W21726  14.718   3.722   3.594 -0.0076  0.0686 -0.2972
 4880W        W21727   0.540   1.483  12.910  0.4232  0.3599  0.0064
 4881W        W21728   2.252  10.059  11.011  0.3485 -0.1217  0.2056
 4882W        W21729   4.362   6.967  11.975 -0.2166  0.0511  0.0768
 4883W        W21730  14.329  17.032   0.533 -0.0477 -0.0847 -0.0650
 4884W        W21731   4.831   8.501  13.097 -0.0504  0.0785  0.3132
 4885W        W21732  14.489  11.517  10.563  0.1886  0.0311  0.0392
 4886W        W21733   5.813  13.469   2.616  0.1016 -0.1349  0.2638
 4887W        W21734  10.281  18.649  12.382  0.1540 -0.1258  0.0974
 4888W        W21735   9.762   5.739  12.019  0.1312  0.3273 -0.0272
 4889W        W21736   3.544   0.880  12.013 -0.0414 -0.4433 -0.1867
 4890W        W21737   7.528  18.245  11.206  0.3967 -0.0912  0.1017
 4891W        W21738  13.795   7.686  11.941 -0.1965  0.0890 -0.3228
 4892W        W21739  15.136  16.475   0.098  0.3941  0.0687  0.1837
 4893W        W21740   8.495  13.481   9.979  0.0047  0.0196  0.0456
 4894W        W21741  15.803  16.894   4.232  0.0751  0.1444  0.0366
 4895W        W21742  13.451   7.304   4.179  0.2320 -0.0140  0.1538
 4896W        W21743   2.843  10.130   4.063 -0.1733  0.3172 -0.0663
 4897W        W21744  14.843   6.357  11.281 -0.2362 -0.2137 -0.0092
 4898W        W21745  19.731   9.732  12.217 -0.0694 -0.1116 -0.2648
 4899W        W21746   5.978  16.886   3.715 -0.0767 -0.1835 -0.2398
 4900W        W21747  14.068  12.595   5.378 -0.2449  0.0409 -0.0619
 4901W        W21748  14.351   0.503   2.827  0.1570 -0.0093 -0.2212
 4902W        W21749  10.547  18.029   1.383  0.0869  0.1308 -0.1372
 4903W        W21750   0.367  10.377   0.817  0.3853 -0.1325 -0.2595
 4904W        W21751  16.782   1.518   2.138  0.3548  0.3332 -0.5133
 4905W        W21752   8.575  17.286   4.739  0.2916  0.0233 -0.0697
 4906W        W21753  15.739   7.441  13.556  0.2477 -0.2368 -0.3283
 4907W        W21754   2.100   6.504   1.510 -0.3606 -0.0213 -0.1082
 4908W        W21755  18.626   5.996   3.349 -0.2552  0.2771  0.3605
 4909W        W21756  10.418   0.489   1.538 -0.0636 -0.1767  0.1795
 4910W        W21757  12.084   2.055   4.271 -0.0561  0.0989 -0.3514
 4911W        W21758  16.603   7.195  13.282  0.0127 -0.0599 -0.0208
 4912W        W21759   6.878   3.217  13.007  0.0885  0.0531 -0.4242
 4913W        W21760  14.152   4.818   0.305 -0.0630 -0.1848 -0.2637
 4914W        W21761  18.270  17.363   0.820 -0.0487  0.0020  0.0858
 4915W        W21762   6.277  16.539   3.900 -0.2475  0.0161  0.1891
 4916W        W21763  10.031  16.151  12.797 -0.0490  0.3328 -0.1322
 4917W        W21764   8.313  11.534  12.497  0.1527  0.2221  0.0981
 4918W        W21765  17.959   8.538   4.292 -0.0508  0.3116 -0.4066
 4919W        W21766  13.127  11.483   3.180  0.1324  0.0649 -0.0100
 4920W        W21767  19.266  13.205   0.325 -0.0952 -0.1549 -0.0685
 4921W        W21768  11.149  19.803  14.185  0.2487  0.0226  0.0588
 4922W        W21769   1.419   2.247   1.066 -0.1881  0.1949 -0.0622
 4923W        W21770  19.579  18.350   5.348 -0.3675 -0.2754  0.1634
 4924W        W21771  15.436  13.033   2.374  0.3515 -0.2834 -0.0364
 4925W        W21772   2.587   6.379  12.143 -0.0936  0.0718 -0.0645
 4926W        W21773  18.261  10.947   1.133  0.0268 -0.0218 -0.0838
 4927W        W21774  17.514  11.769   4.283  0.1140 -0.1142 -0.1949
 4928W        W21775   2.881   9.460   0.573  0.2777 -0.0470 -0.1148
 4929W        W21776   4.505  19.358  12.647 -0.0279 -0.0756  0.0902
 4930W        W21777  13.469  19.039   1.272 -0.1455 -0.0487 -0.2246
 4931W        W21778  12.987  18.354  11.466  0.0939 -0.1544  0.2026
 4932W        W21779  13.974   4.273  11.542  0.2305 -0.1301 -0.2700
 4933W        W21780  15.182  11.984   0.207  0.1893  0.3272  0.0734
 4934W        W21781  11.281   6.189   1.005 -0.1984 -0.2243 -0.0377
 4935W        W21782  10.952  10.224  10.446  0.4041  0.1846 -0.3360
 4936W        W21783   8.452   3.374   3.353  0.1108  0.2999 -0.1042
 4937W        W21784   6.441  14.995   2.045  0.0091  0.2478 -0.0966
 4938W        W21785  15.569   3.877  11.562 -0.0084  0.0098  0.2314
 4939W        W21786   6.848   4.790  12.157 -0.1477  0.0960  0.2700
 4940W        W21787   2.371  12.224   0.201 -0.2680  0.2752  0.1825
 4941W        W21788  10.186   6.559   4.232  0.1552 -0.1197 -0.0203
 4942W        W21789   6.239  13.299  12.777 -0.2981 -0.0610 -0.3429
 4943W        W21790   8.159   9.930  10.894 -0.1069  0.1720 -0.2150
 4944W        W21791  12.390  14.770   4.414  0.0898 -0.0131  0.2136
 4945W        W21792  17.231  11.863  13.876  0.2113 -0.0468  0.3941
 4946W        W21793   4.381   0.271  12.199 -0.1375  0.0239  0.0915
 4947W        W21794  13.218   1.403  13.449  0.1629  0.1230 -0.1133
 4948W        W21795   4.830   2.580  10.687  0.1153 -0.0561 -0.3513
 4949W        W21796  19.078  14.171  11.034  0.2979  0.2645 -0.3444
 4950W        W21797   1.518  15.344  10.219  0.1325 -0.2124  0.2102
 4951W        W21798   6.010   0.533   0.663  0.2458  0.0375 -0.0525
 4952W        W21799  14.002  10.609  14.290 -0.0311  0.0621  0.1183
 4953W        W21800   9.127   1.510  10.883  0.0318 -0.0611  0.1513
 4954W        W21801   5.772  16.860   0.848 -0.0730  0.1392 -0.1406
 4955W        W21802  15.786   4.599  11.826  0.1268 -0.1911  0.1079
 4956W        W21803   0.704   6.128   3.373 -0.0192  0.1556  0.2412
 4957W        W21804   9.585  15.168  13.240  0.0549 -0.3167  0.0778
 4958W        W21805   5.780  10.248   1.288  0.2599 -0.0917  0.2816
 4959W        W21806   7.684   9.954  13.783 -0.3506 -0.3732  0.3200
 4960W        W21807   7.453  10.676  13.458 -0.0743  0.3633 -0.1005
 4961W        W21808   6.825   7.893  11.727 -0.0754  0.3371  0.0684
 4962W        W21809   7.315  16.397   2.143 -0.1301  0.0681  0.1351
 4963W        W21810   6.348   1.504   9.250 -0.1515  0.1595  0.1101
 4964W        W21811   3.604   5.185   5.156 -0.0516 -0.1390 -0.0397
 4965W        W21812  15.253  12.473  12.879  0.3409  0.2682 -0.2963
 4966W        W21813  19.215  13.208   1.400 -0.2386 -0.0234 -0.1362
 4967W        W21814  10.590  13.070   0.305 -0.0606  0.0701 -0.0395
 4968W        W21815  14.963   1.437  14.151 -0.0410 -0.1265 -0.1756
 4969W        W21816  17.651   9.675  12.567  0.1005 -0.0127  0.1517
 4970W        W21817   4.623  10.539   5.143 -0.1463 -0.1458 -0.2804
 4971W        W21818   4.143   7.773   4.482 -0.2062  0.0827 -0.1672
 4972W        W21819  19.445   2.665   3.212 -0.4258 -0.0449 -0.0341
 4973W        W21820   2.690   4.767  13.034 -0.1622  0.1721  0.3492
 4974W        W21821  17.047  15.697   1.550 -0.1085  0.0659  0.0242
 4975W        W21822  17.582   8.183   3.981 -0.1248  0.3153 -0.1670
 4976W        W21823  13.325  16.800  12.370  0.1301  0.0425  0.0767
 4977W        W21824   5.829  13.028   2.920  0.0893 -0.3062  0.1302
 4978W        W21825   1.588   5.002   4.124  0.0801 -0.2264 -0.3355
 4979W        W21826   5.717  17.475   8.643  0.0185 -0.1977  0.1633
 4980W        W21827   8.893   5.154   3.427  0.4512 -0.0918  0.2314
 4981W        W21828  19.247  12.348   1.924  0.0751  0.1182 -0.1516
 4982W        W21829  17.804  19.464   9.467 -0.2336 -0.0299 -0.0397
 4983W        W21830   2.836   0.422   4.085  0.2559 -0.2819  0.0855
 4984W        W21831   4.824  14.545  12.771  0.0064 -0.0587  0.0110
 4985W        W21832  18.100  12.326   1.749  0.1141  0.2338  0.4367
 4986W        W21833   5.217   1.062   2.540 -0.2788  0.3923  0.2089
 4987W        W21834   5.171   5.112   4.301  0.1186  0.1722 -0.2187
 4988W        W21835  19.673   8.476   0.741  0.3717  0.1362  0.1252
 4989W        W21836   9.315  17.169   2.879 -0.1676  0.4699 -0.1790
 4990W        W21837   8.747   3.939   4.137 -0.2469  0.1435  0.0069
 4991W        W21838   5.704  14.991  12.555  0.3165 -0.0137 -0.1935
 4992W        W21839  19.184   7.709  11.091 -0.0805 -0.1106  0.1941
 4993W        W21840  13.725  12.755   4.010  0.0823  0.7080 -0.3098
 4994W        W21841   0.223   2.036  11.911 -0.3195  0.3813  0.0909
 4995W        W21842   7.381  18.642  10.026 -0.1291 -0.0968 -0.1312
 4996W        W21843  19.192  17.547  10.326  0.0714 -0.1938 -0.0480
 4997W        W21844  13.862  12.284   2.194 -0.1499  0.2975 -0.3282
 4998W        W21845  10.015   8.308   0.038  0.2689  0.1654  0.1724
 4999W        W21846   4.966   6.010   3.122 -0.3543  0.1194  0.2709
 5000W        W21847  16.594   3.810   0.386 -0.1722  0.1743  0.2707
 5001W        W21848   6.220  15.062  12.456  0.2095  0.1331 -0.1832
 5002W        W21849   7.050   6.128   4.381  0.2760 -0.0436 -0.1535
 5003W        W21850   7.772   3.740  14.110  0.1897  0.1411 -0.1850
 5004W        W21851  12.005   0.479  12.280  0.0244 -0.2935 -0.1100
 5005W        W21852  16.362  19.499  12.918  0.3324 -0.0710  0.0517
 5006W        W21853   2.279   2.346  14.136 -0.1032  0.0803  0.0377
 5007W        W21854   4.881  11.476   4.249  0.1088  0.1331 -0.1181
 5008W        W21855   1.803   2.077   3.912  0.0154  0.1602  0.1696
 5009W        W21856  10.795   3.036  14.142  0.0037 -0.0581  0.4814
 5010W        W21857   8.156  14.671   2.114  0.1850  0.1636  0.0784
 5011W        W21858  16.895  10.368   1.955  0.2005  0.0266  0.1952
 5012W        W21859   5.639   6.271  13.780  0.2259  0.2704  0.0119
 5013W        W21860   0.210   4.076   0.289  0.1363  0.1003 -0.0866
 5014W        W21861  14.487  17.212  12.457  0.0004  0.2444 -0.0647
 5015W        W21862  14.594  10.425  11.907  0.2284  0.1065  0.3233
 5016W        W21863  12.965  18.721   2.602 -0.2043 -0.0865 -0.0453
 5017W        W21864   7.500  16.958  12.245  0.1059 -0.0554 -0.3739
 5018W        W21865  16.013   7.058  13.285 -0.0906 -0.0173 -0.1335
 5019W        W21866  19.699   7.067  13.604  0.1910  0.2844  0.4389
 5020W        W21867   4.472   4.621   3.216 -0.0967 -0.2428 -0.0958
 5021W        W21868   0.517   2.032   9.815 -0.0765  0.2758  0.2210
 5022W        W21869  18.994  16.902   0.825  0.1707  0.0034 -0.2337
 5023W        W21870  17.286  12.118  12.470  0.1213  0.0269 -0.4021
 5024W        W21871   8.709   3.470  11.093  0.3893 -0.1821 -0.5213
 5025W        W21872  11.952  17.708  13.615 -0.1555 -0.0041  0.2386
 5026W        W21873   6.024   6.251   1.816  0.0324  0.1659 -0.0694
 5027W        W21874  14.471   6.093  12.813 -0.1767  0.1249 -0.2667
 5028W        W21875  18.936  15.138  11.523  0.1773  0.6476 -0.0270
 5029W        W21876   2.199  10.467  10.415 -0.0069  0.1362  0.1407
 5030W        W21877   7.161   8.058  11.130  0.1569 -0.0845  0.2209
 5031W        W21878  19.607  19.582   3.976 -0.0875 -0.0949 -0.2060
 5032W        W21879  15.442   8.326  12.133  0.0163  0.0517 -0.3616
 5033W        W21880  19.449  10.333   2.413  0.2483 -0.3006 -0.0946
 5034W        W21881  19.226  11.621  13.688 -0.2035 -0.0865  0.1471
 5035W        W21882   2.623   3.576  13.726 -0.2948 -0.0322  0.2914
 5036W        W21883   0.015  12.279   3.404 -0.0590 -0.1402 -0.5269
 5037W        W21884  13.564  15.828   5.845  0.1657  0.3371 -0.2219
 5038W        W21885  14.557   5.200  13.924  0.0409 -0.1683  0.0432
 5039W        W21886  16.988  16.394   0.786  0.2371  0.0300 -0.0819
 5040W        W21887  11.963   9.411   8.950  0.0292 -0.0199  0.3252
 5041W        W21888  14.965  15.546  14.235 -0.2104 -0.2317  0.1155
 5042W        W21889  14.136   1.426   1.112 -0.1320 -0.2396  0.0163
 5043W        W21890   7.592   6.228  11.311  0.0345 -0.0741 -0.2186
 5044W        W21891  12.673  13.174  13.701 -0.4319 -0.0130 -0.1672
 5045W        W21892  17.521   9.494  12.099 -0.6676  0.0228  0.4613
 5046W        W21893   1.532   3.860  12.482 -0.0389 -0.0461  0.0518
 5047W        W21894   5.037  15.674   0.546  0.0147  0.0466 -0.1568
 5048W        W21895  10.521  10.978  13.582 -0.1077 -0.1155  0.0846
 5049W        W21896   7.296   6.514   1.906  0.0853  0.4049 -0.0909
 5050W        W21897  15.622   4.957   4.196 -0.1443 -0.0248  0.1960
 5051W        W21898   7.379   5.964   5.150  0.1730  0.3219  0.1000
 5052W        W21899   5.400  19.877  13.994 -0.1654  0.2148 -0.0237
 5053W        W21900  10.927   8.107  11.807  0.3106 -0.1038  0.2945
 5054W        W21901  16.085   1.186   9.926  0.0847 -0.0146  0.3093
 5055W        W21902  19.892   2.008  10.637 -0.2897  0.0194  0.3898
 5056W        W21903  18.566   1.649   1.644  0.0627 -0.1105  0.3117
 5057W        W21904  17.422   7.457  13.215  0.2546 -0.0509 -0.0875
 5058W        W21905  13.986   7.095   0.069 -0.1394 -0.2025  0.1683
 5059W        W21906   4.216   5.078  13.145 -0.4686 -0.1920  0.3130
 5060W        W21907  10.194  15.225  12.399  0.2379 -0.2200 -0.1415
 5061W        W21908  15.336  15.358  10.980 -0.5810 -0.1195 -0.0745
 5062W        W21909  18.108   4.860  12.432  0.1024 -0.0920  0.0655
 5063W        W21910  16.055   3.293  14.176  0.1102  0.1528 -0.0154
 5064W        W21911   2.261  14.965   1.675  0.1191  0.2858 -0.1335
 5065W        W21912  15.092  17.019   0.306  0.3377  0.0799 -0.1262
 5066W        W21913  13.698  14.908   3.710 -0.0356  0.1712 -0.0983
 5067W        W21914  14.001   8.375  13.994 -0.2191  0.0613  0.1601
 5068W        W21915  19.008  16.980  13.339 -0.1174 -0.1133  0.2381
 5069W        W21916  14.369   0.690  10.402 -0.4468 -0.1319 -0.1452
 5070W        W21917  13.277   9.674  10.116  0.0491  0.2095 -0.4477
 5071W        W21918  12.479  17.557  12.422  0.1441  0.1129 -0.3781
 5072W        W21919   6.176   9.705   5.164  0.2075  0.0320  0.1916
 5073W        W21920  17.637   2.296  13.801  0.2511  0.0934 -0.1489
 5074W        W21921   3.121  19.551   0.051  0.1838 -0.0177 -0.2017
 5075W        W21922  13.166   2.577   0.134  0.0428 -0.3945  0.1369
 5076W        W21923   7.132   3.960   1.408 -0.2467  0.3157 -0.2638
 5077W        W21924   6.435   2.152  11.298  0.0187 -0.1539 -0.1459
 5078W        W21925   6.959   3.618   2.373 -0.0306 -0.0686 -0.0680
 5079W        W21926  14.679   5.287  11.157 -0.0726 -0.2484  0.1290
 5080W        W21927   5.397  14.079   1.855 -0.1941  0.0166  0.2357
 5081W        W21928  17.243  17.401  10.736 -0.1175 -0.0983  0.0564
 5082W        W21929   7.098   6.910   2.178 -0.1416 -0.0580 -0.0159
 5083W        W21930  17.980   1.789  12.692  0.0595  0.1811  0.0029
 5084W        W21931  10.468   6.371  13.148 -0.1114  0.0561 -0.1033
 5085W        W21932   4.957   8.331  10.490  0.1610 -0.0861 -0.4921
 5086W        W21933  15.006  12.918  13.765 -0.0737 -0.0903 -0.1379
 5087W        W21934  13.940  17.880   2.099 -0.0324 -0.2821  0.3294
 5088W        W21935  18.584   2.507   4.063 -0.0860  0.0924 -0.4537
 5089W        W21936  19.495  13.685   0.100  0.2130  0.1971 -0.2671
 5090W        W21937   6.344  17.921   3.204 -0.0685  0.2530 -0.1920
 5091W        W21938   8.801   5.807  14.278 -0.3710 -0.0625  0.1798
 5092W        W21939   3.158   5.360   0.914 -0.2194 -0.1607 -0.3585
 5093W        W21940  18.479   3.119   2.109  0.1118 -0.3954  0.2009
 5094W        W21941  18.186   2.916  13.299 -0.1869 -0.0018  0.2152
 5095W        W21942   4.682   1.310   2.527  0.0521 -0.0281 -0.1146
 5096W        W21943  16.115  16.219  12.226  0.2435  0.2144  0.2837
 5097W        W21944   9.620  11.526  10.953 -0.0362 -0.1561 -0.1717
 5098W        W21945  13.663  12.673   2.884  0.3496 -0.0506  0.0068
 5099W        W21946   6.374   3.536  12.927  0.2064 -0.0965 -0.1270
 5100W        W21947  11.828   7.988  11.979  0.3375 -0.1517  0.1723
 5101W        W21948   8.402   3.587   1.057 -0.3652  0.0478  0.0404
 5102W        W21949   8.399   0.787  12.885 -0.1944  0.1903 -0.0348
 5103W        W21950   2.614  19.240   2.510  0.1103  0.0333  0.0390
 5104W        W21951   2.972   4.992  12.519  0.2005 -0.1415  0.1343
 5105W        W21952  12.373  19.206   0.506 -0.0209 -0.0948 -0.1634
 5106W        W21953   9.944  19.850   9.581 -0.2419 -0.1679 -0.0593
 5107W        W21954  18.852   2.814   4.490  0.0491  0.2126  0.1537
 5108W        W21955   3.679   8.877  10.547  0.2296  0.0085  0.1668
 5109W        W21956  19.522  12.860   1.620 -0.0266 -0.0067 -0.0039
 5110W        W21957   3.503  16.993   4.280 -0.3209 -0.0073  0.0217
 5111W        W21958   9.622   3.630  12.486  0.1852  0.1142  0.0082
 5112W        W21959  14.395  13.892   5.571  0.1719  0.0343 -0.0834
 5113W        W21960  17.277  19.116   9.218  0.1611  0.2193 -0.0048
 5114W        W21961   0.981   7.664   0.030 -0.1570  0.1532 -0.0367
 5115W        W21962  15.102   0.316   1.001  0.0236  0.2167 -0.0810
 5116W        W21963   0.682   1.848  11.927 -0.1370  0.1610 -0.0357
 5117W        W21964   3.724  15.827   3.094  0.1154 -0.0342  0.3872
 5118W        W21965  10.084   4.580  10.407 -0.1476  0.1544 -0.1416
 5119W        W21966   1.762   3.028  10.450  0.1918 -0.1838 -0.0235
 5120W        W21967   5.698   0.829  13.530  0.3242 -0.2352 -0.0691
 5121W        W21968  14.482  12.232   2.424 -0.2132  0.1557 -0.2301
 5122W        W21969  17.415  13.044  11.991 -0.0456  0.2172 -0.0639
 5123W        W21970   3.844  13.731   3.963  0.2578  0.0442  0.2903
 5124W        W21971   1.813  11.218  11.816  0.0812  0.2360  0.2534
 5125W        W21972   6.951  16.047   1.843  0.0822 -0.2704 -0.3011
 5126W        W21973   1.484  11.332  12.166 -0.3360 -0.4161  0.3946
 5127W        W21974  11.668  15.408  12.875  0.1003 -0.3122 -0.1715
 5128W        W21975   4.052   3.431   4.854 -0.3252 -0.0142 -0.1904
 5129W        W21976  10.904  15.850  10.350  0.2178 -0.0270  0.1476
 5130W        W21977  11.074  15.878   2.320  0.0711  0.0651 -0.0843
 5131W        W21978   9.557  16.180   0.750 -0.2520  0.1042  0.1157
 5132W        W21979   6.316   4.424   3.091  0.2153  0.0271  0.3362
 5133W        W21980   2.639   8.182   4.639  0.0902  0.1237  0.2084
 5134W        W21981  18.656   6.022  12.659 -0.2818 -0.0809 -0.0049
 5135W        W21982  10.754  19.370   2.783 -0.1447  0.2270  0.1701
 5136W        W21983  11.011   7.730  12.432 -0.2309  0.0514 -0.2035
 5137W        W21984  17.970   2.623  12.660 -0.2136 -0.2846 -0.0018
 5138W        W21985   6.859  11.259   3.657 -0.0693 -0.1006  0.0304
 5139W        W21986  17.457   4.544  11.965  0.0609  0.1846 -0.0737
 5140W        W21987  15.125   5.470   0.398 -0.0672 -0.0431 -0.4355
 5141W        W21988  18.538   4.654   8.810 -0.0330  0.4138 -0.0440
 5142W        W21989   8.353  12.809   0.180 -0.0458 -0.0612 -0.1703
 5143W        W21990   3.972   1.225  11.075  0.3002  0.1116 -0.0754
 5144W        W21991  10.884   2.642  12.539 -0.0418 -0.1142  0.1373
 5145W        W21992  11.044   6.200   2.781 -0.2746 -0.1293  0.0872
 5146W        W21993   2.818   1.392   3.289 -0.0252 -0.1340  0.0712
 5147W        W21994   4.516  16.125   3.618  0.2613 -0.1165  0.1878
 5148W        W21995  15.805   9.850  11.981 -0.4011 -0.1748 -0.3242
 5149W        W21996   9.124  13.973  11.023  0.2406 -0.4173  0.1589
 5150W        W21997  12.503  10.623   0.839 -0.0037 -0.0551 -0.0190
 5151W        W21998   8.453  11.764   4.465 -0.0859 -0.2143 -0.1135
 5152W        W21999   8.605   9.219  12.073  0.0147  0.3577 -0.2401
 5153W        W22000   9.746  15.585   3.399 -0.1964 -0.0477  0.1922
 5154W        W22001   6.823   2.054  10.834 -0.1025 -0.0385 -0.1257
 5155W        W22002  14.074   9.738   0.341  0.1475  0.6343  0.2676
 5156W        W22003   7.137   9.399  13.360  0.1262  0.0264 -0.0347
 5157W        W22004   6.577   3.092   3.708  0.2596 -0.4516 -0.4608
 5158W        W22005  19.500   8.118  10.893 -0.0761  0.0643  0.1502
 5159W        W22006  19.384   3.741   0.874  0.1415 -0.0394 -0.0569
 5160W        W22007  14.863   0.611   3.644 -0.0998  0.0699  0.2779
 5161W        W22008   9.536  16.217  12.597  0.1635  0.1651 -0.0046
 5162W        W22009  19.040  13.452   4.128 -0.2352  0.4586  0.2816
 5163W        W22010   4.292   8.458  11.891 -0.0783 -0.0662  0.3404
 5164W        W22011   5.653  17.491  11.393 -0.1607 -0.1899  0.0909
 5165W        W22012  14.671   9.705   2.298 -0.0738  0.1588 -0.2719
 5166W        W22013  18.128   3.017  11.319 -0.0981 -0.3222 -0.0397
 5167W        W22014  14.472  13.404   3.793  0.2017  0.1141  0.0374
 5168W        W22015   1.613   5.388   2.246 -0.0868  0.0953  0.2344
 5169W        W22016   9.441   9.220  11.491  0.0602  0.0281  0.0015
 5170W        W22017  18.053   5.983   0.805 -0.1313  0.2366  0.3289
 5171W        W22018  15.986  18.579   0.541 -0.1632  0.2100  0.2176
 5172W        W22019   5.931   8.564   8.876 -0.2371 -0.0545 -0.1184
 5173W        W22020  15.623  12.381   9.255 -0.2905  0.0052  0.4699
 5174W        W22021   2.274  19.535   3.776 -0.0413 -0.2652 -0.1560
 5175W        W22022   9.550  12.706   5.328  0.2218  0.0041  0.0563
 5176W        W22023  18.399  14.467   1.520 -0.0054  0.5246 -0.1054
 5177W        W22024   1.629   3.073   1.974  0.6115  0.1166  0.1987
 5178W        W22025  10.278   9.409   3.500 -0.0795  0.1739  0.2010
 5179W        W22026  16.359  16.265   0.135  0.2348 -0.4914 -0.0370
 5180W        W22027   9.022   2.646  11.855 -0.0756  0.0511  0.1650
 5181W        W22028  14.126   8.976   1.761 -0.1090 -0.1593  0.4674
 5182W        W22029  17.772  17.647   2.370 -0.0462  0.0918 -0.0610
 5183W        W22030   4.338  18.833  12.798 -0.2274 -0.1235  0.0418
 5184W        W22031  12.962  18.105   3.311  0.2002  0.1795 -0.1241
 5185W        W22032   4.447   7.058   9.692  0.0623  0.0100  0.2696
 5186W        W22033  15.569   9.467  11.221 -0.0893 -0.1704 -0.1259
 5187W        W22034  18.285  14.499  12.033 -0.0329 -0.0438  0.1435
 5188W        W22035   0.626  17.687   3.709  0.0049  0.0065 -0.1325
 5189W        W22036   1.108   7.121  10.576 -0.2813 -0.2075  0.2728
 5190W        W22037   7.594  11.865   2.990  0.0681  0.0067  0.2052
 5191W        W22038   5.401   2.699   1.049 -0.0672  0.3547  0.1849
 5192W        W22039   3.912  14.183  13.123  0.1543  0.1897 -0.1435
 5193W        W22040  14.109   3.607   1.325 -0.0553  0.1179 -0.1496
 5194W        W22041   5.918  15.687   2.344  0.0452  0.0073 -0.0737
 5195W        W22042  16.807   1.101   2.502  0.0845 -0.0017 -0.2910
 5196W        W22043   9.842  11.100   0.447  0.1979 -0.0848 -0.1200
 5197W        W22044   1.409  17.206   4.534  0.1226 -0.0991 -0.0118
 5198W        W22045   0.896   9.053   3.044 -0.1601  0.2155 -0.0131
 5199W        W22046  11.208   8.447   3.660  0.3333 -0.1267 -0.3872
 5200W        W22047   8.531  18.283   3.366 -0.3145  0.4394  0.2718
 5201W        W22048   0.383   6.009   2.369 -0.0486 -0.1947  0.2032
 5202W        W22049  16.755   8.433  11.362 -0.0756  0.1984 -0.2440
 5203W        W22050   5.697   9.890   8.954  0.1914 -0.2403  0.1040
 5204W        W22051  19.915   9.030   3.485 -0.0387 -0.0443  0.1107
 5205W        W22052   0.328   2.474  11.502  0.1667  0.0550  0.0636
 5206W        W22053   5.295   2.303   0.002 -0.0453 -0.0852  0.1109
 5207W        W22054   9.526   7.582  10.939 -0.1729 -0.0190  0.0377
 5208W        W22055   7.667  19.816   3.464  0.1460 -0.0321  0.1089
 5209W        W22056  14.656  16.660  13.130 -0.1986 -0.2787 -0.2536
 5210W        W22057   3.723   2.720   3.026  0.4088  0.0409  0.0154
 5211W        W22058  10.867   3.351   0.205  0.0307 -0.2040 -0.1839
 5212W        W22059   0.542  19.717   4.232 -0.0847 -0.1025  0.2730
 5213W        W22060  19.330   5.568  10.227  0.0306  0.0801  0.0721
 5214W        W22061  11.376   8.458  13.354  0.0877 -0.0317 -0.2338
 5215W        W22062  13.516  14.748  11.037  0.2647 -0.5784 -0.1779
 5216W        W22063  14.943  12.850  13.275 -0.0362  0.0275  0.2005
 5217W        W22064  16.754  10.091  12.688 -0.2150  0.1195 -0.2854
 5218W        W22065  12.281   5.582   2.605 -0.0130  0.2104  0.1422
 5219W        W22066   2.682  12.683   0.987  0.1354  0.0474 -0.0022
 5220W        W22067   2.406   8.679   9.854 -0.0423  0.1553 -0.2198
 5221W        W22068   6.658   6.950   1.210  0.0858 -0.0503 -0.1595
 5222W        W22069  11.738   6.107   1.386 -0.0344 -0.2188 -0.1439
 5223W        W22070   0.555   2.584   9.743 -0.1427 -0.2326 -0.3558
 5224W        W22071  17.606   5.359   3.991 -0.1989 -0.2841 -0.2306
 5225W        W22072  16.029  19.013   1.956  0.3508 -0.0565  0.2051
 5226W        W22073  19.365   4.002   4.003 -0.2191  0.3357 -0.0040
 5227W        W22074  17.519   3.717   0.785  0.1775  0.1739  0.3451
 5228W        W22075   3.256   5.774   9.186  0.0640 -0.1389 -0.1358
 5229W        W22076  18.448   3.220  10.566 -0.1673 -0.4259  0.0899
 5230W        W22077   6.839   8.128   1.626  0.2052  0.1883  0.2749
 5231W        W22078   5.291  15.558   0.073  0.1991  0.2322 -0.0849
 5232W        W22079   0.268   0.875   3.829 -0.0594  0.2021  0.1326
 5233W        W22080   6.848   1.891  10.140  0.0431  0.1055  0.0837
 5234W        W22081  15.016  18.481   2.388  0.3043 -0.1363 -0.1987
 5235W        W22082  15.000   8.178   1.476 -0.0265 -0.2393 -0.3802
 5236W        W22083   6.646   2.118   3.542 -0.1432 -0.6472  0.2675
 5237W        W22084   9.815  15.408   4.830 -0.1581  0.1442 -0.0459
 5238W        W22085  12.019  16.185   2.133 -0.1391 -0.2449 -0.1720
 5239W        W22086  18.116  16.436   1.854  0.3829 -0.1211 -0.1060
 5240W        W22087  15.945  15.892   2.764 -0.0757  0.5277  0.0583
 5241W        W22088   7.682  17.513   4.792  0.1473 -0.1173 -0.0003
 5242W        W22089  13.156  14.117   0.427  0.1026 -0.0623 -0.0176
 5243W        W22090   5.047  12.303   2.999  0.0911 -0.0607  0.2496
 5244W        W22091  15.053   9.837   2.562 -0.0502 -0.0415 -0.0506
 5245W        W22092  16.216   6.063  14.004  0.3257 -0.2804  0.1620
 5246W        W22093  12.887  13.557  13.114 -0.1269 -0.0613  0.0019
 5247W        W22094   8.306   9.091   1.253  0.0186  0.2065  0.3137
 5248W        W22095  17.845   3.346   3.757  0.0972  0.1447 -0.0596
 5249W        W22096  18.922   1.345  10.557  0.1200 -0.4253 -0.2147
 5250W        W22097  10.731  19.087  14.164 -0.1368 -0.0101 -0.2051
 5251W        W22098  16.474   3.578   4.695 -0.1040 -0.2463 -0.1160
 5252W        W22099   8.252   3.666  10.433  0.2645 -0.0226  0.1334
 5253W        W22100  12.175   5.074   1.689  0.2042 -0.1552  0.2317
 5254W        W22101   4.998   3.233  10.434  0.0958  0.0675  0.2029
 5255W        W22102   6.875  14.891   1.713  0.2240  0.1241 -0.0591
 5256W        W22103   9.842  10.888   2.849  0.0192 -0.0688  0.2358
 5257W        W22104   8.138   9.400   4.158 -0.0436  0.0257 -0.0111
 5258W        W22105   1.968   1.304   3.180  0.0332 -0.1109  0.2055
 5259W        W22106  19.600   8.437  10.439 -0.1956  0.2426  0.3538
 5260W        W22107  15.437   0.368  10.028  0.2673 -0.1472  0.1105
 5261W        W22108   1.237  12.194   4.125  0.1009  0.1251 -0.3297
 5262W        W22109   0.767   6.544   3.033 -0.0448 -0.1638  0.2146
 5263W        W22110  17.176  17.800  12.032  0.0591 -0.1682 -0.0380
 5264W        W22111   7.576  13.194   0.101  0.0857 -0.0277 -0.1380
 5265W        W22112   6.494  10.024   0.611  0.0292 -0.0860  0.0618
 5266W        W22113   4.176  12.225  11.224  0.0667  0.1252  0.1594
 5267W        W22114   0.174   2.312   2.151  0.0374 -0.2477  0.6608
 5268W        W22115  19.698   9.354  11.270 -0.1551 -0.1631  0.4596
 5269W        W22116  14.232  15.844   4.144  0.3264  0.0323  0.0461
 5270W        W22117   3.541  19.146   1.979 -0.1321  0.1248 -0.2265
 5271W        W22118  13.274   6.538   0.358  0.1986  0.1155  0.1183
 5272W        W22119  11.458   9.861   5.132  0.1263 -0.3744 -0.1228
 5273W        W22120   4.578  19.502   2.802  0.0017 -0.1227  0.0791
 5274W        W22121   9.396  17.797   3.464  0.3955  0.0859  0.0332
 5275W        W22122   6.682  13.254  13.812  0.1075 -0.3163 -0.1517
 5276W        W22123   5.160   8.680   3.820  0.0299  0.1280  0.1735
 5277W        W22124  16.059   9.005   1.228  0.0540  0.0935 -0.3190
 5278W        W22125  12.867  18.922  13.019 -0.0488 -0.0522 -0.1758
 5279W        W22126  14.766  13.106   1.454  0.4690 -0.1136 -0.0701
 5280W        W22127   9.495   8.418   2.113  0.2652  0.1201  0.1111
 5281W        W22128  19.616   9.932  13.849  0.0053  0.1714 -0.1104
 5282W        W22129   3.396   6.535   0.044 -0.1060  0.0477 -0.2130
 5283W        W22130   2.386  12.534   2.422 -0.1274  0.1543 -0.0146
 5284W        W22131  15.755  18.718  14.056  0.2441 -0.2490  0.2572
 5285W        W22132   4.345  16.957   3.755 -0.0859  0.0546  0.0853
 5286W        W22133   5.151  18.836  11.023  0.4232 -0.3805 -0.0286
 5287W        W22134  13.061   2.150  11.790  0.1337  0.2213  0.0246
 5288W        W22135  17.116   3.832   2.555 -0.0787  0.1298  0.1197
 5289W        W22136   3.486  14.587  13.069 -0.3853 -0.2582 -0.1846
 5290W        W22137  16.837   7.911   0.310 -0.0806 -0.3348  0.2633
 5291W        W22138  11.593  11.712   1.237  0.1740 -0.0268 -0.1385
 5292W        W22139   6.930   8.835  14.011 -0.1682  0.2299 -0.3572
 5293W        W22140  15.929  19.762   1.424 -0.0107  0.0504  0.1485
 5294W        W22141  12.431   5.485  12.407  0.0527 -0.2717  0.0267
 5295W        W22142   0.264  10.693   3.022 -0.2073  0.0637 -0.0792
 5296W        W22143  10.606   7.139  10.112  0.1043  0.1269 -0.0480
 5297W        W22144  11.036  13.741   4.499  0.1103  0.0617  0.0538
 5298W        W22145   6.717  17.901   2.250  0.0481  0.2263  0.1675
 5299W        W22146   5.669   6.459   2.773  0.0103 -0.3407  0.1675
 5300W        W22147   3.102  19.859   2.366 -0.0347  0.3237 -0.4925
 5301W        W22148  13.508   0.611  12.052  0.2268 -0.0252 -0.0160
 5302W        W22149   4.007  10.485  13.970  0.0999  0.0245  0.0014
 5303W        W22150  16.181  17.105  12.718  0.0843 -0.1789 -0.1701
 5304W        W22151  15.284   3.047   4.112  0.1139 -0.0391 -0.2272
 5305W        W22152  16.847   9.266   3.639 -0.1738  0.3813 -0.0682
 5306W        W22153  13.153  16.066  13.294  0.4953 -0.1405  0.1754
 5307W        W22154  17.133  14.946  11.838  0.0061  0.1388 -0.0742
 5308W        W22155  10.079   7.729   9.964 -0.0977  0.2134 -0.0649
 5309W        W22156   8.421  17.081   1.882 -0.2865 -0.1176  0.0773
 5310W        W22157  14.539   9.336  11.859  0.1561  0.2931  0.2401
 5311W        W22158   1.010   3.124  13.492  0.1971 -0.3062 -0.1028
 5312W        W22159   4.060   5.152   1.965 -0.1565  0.1845 -0.0284
 5313W        W22160  16.589  16.804  13.095 -0.1166 -0.2576  0.2261
 5314W        W22161  10.149  18.725   3.866 -0.2167  0.1078  0.5389
 5315W        W22162   5.682   4.939   0.845 -0.0780  0.1856  0.2619
 5316W        W22163  18.571   6.670  11.414 -0.2490  0.1895 -0.1568
 5317W        W22164   3.829  16.720   2.149 -0.1466  0.5779  0.3009
 5318W        W22165  10.021  15.672  14.140  0.2127  0.1841 -0.0897
 5319W        W22166   0.105  14.634  13.785 -0.0749 -0.3352  0.0531
 5320W        W22167  13.874  19.000   3.379  0.1144  0.0701  0.1190
 5321W        W22168  12.991   8.424  11.292 -0.0734 -0.1659 -0.1951
 5322W        W22169   8.584   6.266   0.887 -0.1057 -0.1266 -0.0479
 5323W        W22170  10.783  13.606   3.056 -0.0618 -0.1251  0.0966
 5324W        W22171  19.549   2.242   2.089  0.3005 -0.3385  0.1656
 5325W        W22172  18.158   7.742   0.233  0.0890  0.2237 -0.0845
 5326W        W22173   3.739   9.062  13.005  0.0957 -0.1566  0.0680
 5327W        W22174   5.376   8.257   2.764  0.0008 -0.0615 -0.3553
 5328W        W22175  12.689   3.009   0.690 -0.2944  0.2301 -0.1537
 5329W        W22176   7.966  15.810  11.268 -0.0281 -0.2499 -0.1661
 5330W        W22177  15.685  10.680  10.684  0.2347 -0.3625 -0.0921
 5331W        W22178  10.247  18.790   2.550 -0.0103 -0.1620 -0.2681
 5332W        W22179   8.061  13.223   3.226  0.3135 -0.0662 -0.3505
 5333W        W22180   4.461   9.658   3.518  0.0012  0.1542  0.0965
 5334W        W22181   5.283  12.132  11.161 -0.0868 -0.3228 -0.0637
 5335W        W22182   3.209  18.887  11.180  0.0800  0.0733 -0.1894
 5336W        W22183   4.256  16.093   4.910  0.0051 -0.2188  0.2189
 5337W        W22184   9.503  12.411  13.505  0.1322  0.1753  0.3335
 5338W        W22185  17.269   2.801  13.588  0.0288 -0.0303  0.2731
 5339W        W22186  11.764   7.074   1.898  0.0827  0.2206 -0.1765
 5340W        W22187   9.376  13.093   1.058 -0.0989  0.1703 -0.2217
 5341W        W22188  15.921   7.169   5.621 -0.1936 -0.1238 -0.0108
 5342W        W22189  14.460   9.970   2.629 -0.0809  0.0642 -0.0899
 5343W        W22190   1.755  14.628  11.649 -0.2847  0.3029  0.1133
 5344W        W22191   7.072   6.794  13.976 -0.2120 -0.1700  0.0161
 5345W        W22192   9.392   6.980   3.308 -0.0827  0.0983  0.1128
 5346W        W22193   8.537  12.650   3.673 -0.1755 -0.1964 -0.1137
 5347W        W22194  15.254   2.185   0.163 -0.1163  0.0207  0.2846
 5348W        W22195   0.488  18.429  12.473  0.1159 -0.0067  0.0785
 5349W        W22196   9.687  16.627  14.254 -0.0178  0.3332  0.0718
 5350W        W22197   6.680   8.545  12.454  0.2007 -0.1999  0.0759
 5351W        W22198   4.950  19.276  10.699 -0.1026  0.1286 -0.2923
 5352W        W22199  16.649   8.777   4.830 -0.1149  0.0721 -0.0087
 5353W        W22200   8.694  16.755  12.236  0.0301  0.3125  0.0682
 5354W        W22201   6.085  19.157   9.864 -0.1290  0.2015 -0.0977
 5355W        W22202   5.615   1.287   2.725 -0.2498  0.0900  0.0590
 5356W        W22203   6.172  19.634  11.748 -0.1691  0.2376 -0.2737
 5357W        W22204  13.380  14.359  11.745  0.1018  0.0030  0.0456
 5358W        W22205   7.663   8.514   1.224 -0.1942  0.2956  0.0505
 5359W        W22206   2.436  11.593   0.845  0.1431 -0.2089  0.3484
 5360W        W22207  18.835  13.322   0.610  0.1839  0.0486 -0.0963
 5361W        W22208   4.412  19.376  10.432  0.1975 -0.3806 -0.0340
 5362W        W22209   6.712   3.433   2.009  0.0085  0.1105 -0.1965
 5363W        W22210   2.335  14.083  12.932 -0.1209 -0.0223  0.2431
 5364W        W22211  17.801  15.391  14.080  0.1710 -0.1424 -0.1047
 5365W        W22212   6.606  10.445  13.166 -0.3706 -0.6533 -0.2669
 5366W        W22213   7.418  17.293   0.406 -0.0803  0.0031 -0.1556
 5367W        W22214   7.685  15.910  12.159 -0.2745 -0.0275  0.2238
 5368W        W22215  17.926   8.268   1.916 -0.0612 -0.0148 -0.6167
 5369W        W22216   5.776   9.857  13.352  0.1819  0.0600  0.0032
 5370W        W22217  11.998   4.181   4.070  0.0331  0.1811  0.3066
 5371W        W22218   0.914  11.487  11.639 -0.0468  0.1061 -0.1960
 5372W        W22219   9.805  11.455   1.870 -0.0702 -0.2536 -0.0256
 5373W        W22220   9.373  10.104  13.541 -0.1809 -0.1745 -0.1920
 5374W        W22221  15.751  19.583  12.959  0.2380 -0.3851  0.4178
 5375W        W22222  18.265  15.162  14.145 -0.0419  0.1636 -0.1184
 5376W        W22223   8.213   6.595  12.532 -0.0020  0.0159  0.1629
 5377W        W22224  15.885   8.442  12.707  0.0090 -0.0258  0.3583
 5378W        W22225   5.846  13.709   1.682  0.2194  0.1505  0.3785
 5379W        W22226   6.377  16.788  11.003  0.5362 -0.0319 -0.2819
 5380W        W22227  17.084   5.272   2.290 -0.0310  0.0089 -0.1236
 5381W        W22228   0.673  19.662  11.765  0.0317 -0.2547  0.3103
 5382W        W22229   2.876  10.174   9.832 -0.0296 -0.1202 -0.0288
 5383W        W22230   4.703  15.296  13.501  0.0605  0.1507 -0.1298
 5384W        W22231  14.275  14.413   0.063  0.1216 -0.1404  0.2838
 5385W        W22232  14.174  15.002   0.773  0.0437  0.0659  0.2435
 5386W        W22233  10.415   0.636   2.842 -0.1332  0.0125 -0.0187
 5387W        W22234  13.870   9.036   0.901  0.0690  0.1075 -0.0619
 5388W        W22235   4.349  13.584  10.722 -0.1869 -0.0410  0.1239
 5389W        W22236   0.181   1.371   3.976 -0.0359 -0.1349 -0.1331
 5390W        W22237  18.065  11.103  12.788 -0.0676 -0.1808  0.1158
 5391W        W22238   4.516  18.000   0.430  0.0751  0.3515  0.0245
 5392W        W22239   4.074   0.918  10.707 -0.1477 -0.1231 -0.1274
 5393W        W22240   0.690   9.303   2.679 -0.1649  0.0427 -0.0425
 5394W        W22241  12.539  19.801  12.868 -0.0769 -0.3377 -0.2852
 5395W        W22242   0.652   3.828   0.172  0.2648  0.0002  0.2155
 5396W        W22243  12.471  15.917   0.979  0.1282 -0.1870 -0.1331
 5397W        W22244   4.562  12.752  12.431  0.2704 -0.1294 -0.1798
 5398W        W22245  18.126  16.120   3.045  0.2363  0.0349  0.0630
 5399W        W22246   0.784  12.059   4.155  0.0467 -0.0302  0.1721
 5400W        W22247   7.355   8.509   2.783  0.1098  0.4846  0.0017
 5401W        W22248  16.552   9.574   9.776 -0.1842 -0.3998 -0.2087
 5402W        W22249   8.018   2.984   2.471  0.0037  0.2207  0.1687
 5403W        W22250   9.861   7.674  11.928 -0.1789  0.2558 -0.1798
 5404W        W22251   2.833  16.617   3.658 -0.0968  0.1669 -0.0249
 5405W        W22252   9.034  15.863   3.015 -0.0532  0.0453 -0.0368
 5406W        W22253  19.171   4.556   1.975  0.0763 -0.0984  0.0543
 5407W        W22254  19.451   4.993  10.218  0.2752 -0.1871  0.1636
 5408W        W22255  11.554   8.842  12.479  0.1733  0.2133  0.0632
 5409W        W22256   1.181  18.914  12.891  0.1215 -0.1793  0.0137
 5410W        W22257   9.733  13.827  13.218 -0.0307  0.0386 -0.1932
 5411W        W22258  14.576  17.434   4.258  0.1045  0.5568  0.4322
 5412W        W22259  14.384   2.123   0.238 -0.0918  0.3341 -0.0127
 5413W        W22260  10.170   4.463   1.395  0.4170  0.0618 -0.1455
 5414W        W22261   0.877   6.640  13.356 -0.3113 -0.1562 -0.1347
 5415W        W22262  19.810  16.487   0.440 -0.0847  0.4352 -0.1542
 5416W        W22263  16.548  10.218  10.062 -0.0901  0.1227  0.4096
 5417W        W22264   5.923   8.019   3.466  0.3002 -0.1199 -0.0371
 5418W        W22265  18.182   0.626   5.486 -0.1769  0.1204 -0.0956
 5419W        W22266   7.231   8.957   3.119  0.0260 -0.1072  0.3235
 5420W        W22267   9.232   3.633   1.256 -0.1335  0.0194  0.3068
 5421W        W22268  11.005   1.243   8.968  0.2814  0.1500  0.1839
 5422W        W22269   4.117   5.521  11.444 -0.1394  0.2203  0.1431
 5423W        W22270  18.236   5.714  10.430 -0.1718 -0.0044  0.1637
 5424W        W22271  19.860   5.306  10.117 -0.1988 -0.0912 -0.0680
 5425W        W22272  19.690  11.980  12.379 -0.2111  0.2518 -0.0943
 5426W        W22273   5.634   6.974   4.571  0.4960  0.0503 -0.1077
 5427W        W22274   8.772   2.596  10.088 -0.0692 -0.1245 -0.1365
 5428W        W22275  18.459   3.918  12.709  0.1829  0.0949  0.4660
 5429W        W22276  10.070  10.246  13.032  0.0551 -0.5309 -0.1225
 5430W        W22277  13.154   8.540  13.578  0.2744 -0.0622 -0.1465
 5431W        W22278  19.659   2.267   9.912  0.0196 -0.1135  0.3974
 5432W        W22279  13.625   9.436  12.119  0.1463  0.0469  0.1110
 5433W        W22280  15.389  13.310   2.839 -0.0243  0.2378  0.0842
 5434W        W22281  15.578   6.208   0.637  0.0368 -0.0783  0.0782
 5435W        W22282  17.286   5.477  13.464  0.0545  0.2740  0.2901
 5436W        W22283   5.498   4.081  13.580  0.0527 -0.0777 -0.0056
 5437W        W22284   1.327  11.496  14.023 -0.1012  0.0879 -0.0571
 5438W        W22285   7.429   1.404   8.727  0.2050 -0.3008  0.1924
 5439W        W22286  10.155   2.868  14.020 -0.2029  0.0790 -0.1799
 5440W        W22287   5.059  18.225  12.957  0.4894 -0.2205  0.3117
 5441W        W22288   3.507  17.237  10.184 -0.2959 -0.0085  0.2179
 5442W        W22289   0.166   5.696   1.738  0.3224  0.1912 -0.0022
 5443W        W22290  15.530  17.859  11.399 -0.1429 -0.2805 -0.2035
 5444W        W22291  12.624   3.327   1.869  0.2948 -0.2372 -0.0098
 5445W        W22292   5.683  14.809  10.916  0.0066 -0.0408 -0.2039
 5446W        W22293  18.942   1.587  11.745  0.1608  0.1384  0.3961
 5447W        W22294  12.190  10.137  12.627  0.1441  0.0349 -0.2189
 5448W        W22295  15.767  17.697   4.420 -0.1444 -0.2338 -0.0037
 5449W        W22296   7.721  10.040   9.902 -0.0170  0.2686 -0.1527
 5450W        W22297   2.623  18.412   9.768 -0.2162  0.2562 -0.0852
 5451W        W22298   1.055   7.811   9.879 -0.1303  0.1241 -0.3630
 5452W        W22299  10.863   4.119  12.299 -0.0203 -0.2565  0.2234
 5453W        W22300   2.649  19.522  11.275 -0.4064 -0.1677 -0.0278
 5454W        W22301   3.692   1.690  10.274 -0.0384 -0.1613  0.1850
 5455W        W22302   5.802  18.543   9.715 -0.1193  0.2415  0.2690
 5456W        W22303   7.310   0.216   0.667  0.0391 -0.1307 -0.0436
 5457W        W22304   7.136   0.623  10.254  0.0859  0.0319  0.1401
 5458W        W22305   4.646   9.295  11.779 -0.1445  0.3043  0.0206
 5459W        W22306  11.035   3.144  11.585  0.0262 -0.0152  0.1552
 5460W        W22307   4.634   1.244   1.317  0.0714  0.0767  0.1717
 5461W        W22308  14.022  17.767   2.903  0.0072  0.2305  0.0142
 5462W        W22309   5.803  12.345  11.347  0.0352  0.1817 -0.1146
 5463W        W22310  14.070   8.497   9.956  0.1315 -0.1169  0.0578
 5464W        W22311  11.072  11.179   3.334 -0.1973  0.2693  0.1490
 5465W        W22312  19.730   5.887   3.538  0.1914  0.1991 -0.2445
 5466W        W22313  14.149   8.878  13.524 -0.0937 -0.1231 -0.0081
 5467W        W22314  11.398  14.092  10.239 -0.1931 -0.1720 -0.0971
 5468W        W22315  18.782   2.118   1.665  0.0414 -0.0070  0.0253
 5469W        W22316  19.305   5.596  13.412 -0.2253 -0.1786 -0.0007
 5470W        W22317  16.702  11.034   0.044 -0.0257  0.2986 -0.0537
 5471W        W22318  16.715   2.964   3.012 -0.3983 -0.3225  0.1797
 5472W        W22319   6.039  13.377   0.275  0.4589  0.2828 -0.3157
 5473W        W22320  19.465  16.029   0.431 -0.0296 -0.0258  0.0031
 5474W        W22321  19.570  14.199  10.802 -0.0239  0.0468 -0.0948
 5475W        W22322   7.555   9.034  10.861  0.0323  0.0704  0.2284
 5476W        W22323  15.071   3.872   1.253  0.1775  0.0559 -0.1415
 5477W        W22324  18.015  14.819   0.685 -0.0768 -0.1735  0.1497
 5478W        W22325  19.506  17.615  12.761  0.0731 -0.0594 -0.0728
 5479W        W22326  18.245  12.473   2.684  0.1010 -0.1187  0.1556
 5480W        W22327   5.342  18.660   0.612  0.1214 -0.0643  0.1217
 5481W        W22328  19.009   6.669   1.754 -0.3777  0.0423  0.1547
 5482W        W22329   3.092   0.811   1.978  0.2644  0.2658  0.1379
 5483W        W22330   2.217   6.060   1.925  0.0579 -0.2601  0.0404
 5484W        W22331  16.469  11.945   0.191  0.1486 -0.4605 -0.0855
 5485W        W22332  16.468   8.879  12.946 -0.0556 -0.2471  0.1636
 5486W        W22333   3.210  14.568  14.288 -0.2141  0.0524  0.1062
 5487W        W22334  11.478  15.769   2.653 -0.1386 -0.0445  0.0076
 5488W        W22335  10.910  17.966   4.817  0.3040 -0.0582  0.1679
 5489W        W22336  18.574  19.604   3.083 -0.0334 -0.3195  0.1449
 5490W        W22337  17.151  13.515   3.575  0.0209 -0.2776 -0.0509
 5491W        W22338  16.064   1.703   4.619 -0.3989  0.1952 -0.0167
 5492W        W22339  15.581   3.731  13.228  0.2589  0.0267 -0.1131
 5493W        W22340  16.577  17.933   2.805 -0.1322  0.0658  0.0878
 5494W        W22341  15.718   7.818  10.382 -0.3062 -0.3224 -0.1769
 5495W        W22342  11.570  10.340   3.909  0.0262 -0.1996  0.0472
 5496W        W22343   9.390  12.712   1.533 -0.0963 -0.0272  0.1758
 5497W        W22344   7.115  15.110   3.585  0.0643 -0.0627 -0.2567
 5498W        W22345  12.580   3.858  14.304 -0.0823  0.1003  0.3244
 5499W        W22346  16.453  17.466  14.159  0.0876  0.1655 -0.2039
 5500W        W22347   3.890   6.847   3.834 -0.2757  0.1116  0.0056
 5501W        W22348  17.054  12.819  11.592 -0.4025  0.2222  0.1692
 5502W        W22349   6.025   1.403   2.388  0.1975  0.2034 -0.0256
 5503W        W22350   9.580  14.355  13.094 -0.3519 -0.0429 -0.2506
 5504W        W22351  13.614   2.813   3.814 -0.0954 -0.3472 -0.0345
 5505W        W22352   7.723  14.417   1.988 -0.1672 -0.0500  0.1350
 5506W        W22353  17.215  15.178   3.133  0.0074  0.0795 -0.0106
 5507W        W22354   5.407  11.063  12.720  0.0088  0.1844  0.0090
 5508W        W22355   9.583   1.700  11.591 -0.1697  0.0540  0.1922
 5509W        W22356   5.843  17.261   0.588  0.0807 -0.2178 -0.2066
 5510W        W22357   4.254  17.511   1.639  0.0398 -0.1430  0.0900
 5511W        W22358   4.090  12.027   3.594  0.2306 -0.3363 -0.0569
 5512W        W22359   5.777   1.776   0.470  0.2425 -0.1707  0.2408
 5513W        W22360  13.697  17.417   1.854 -0.2698  0.0780 -0.2790
 5514W        W22361  12.034  11.516  13.151 -0.2271 -0.1120 -0.1674
 5515W        W22362  17.861  19.501   4.267  0.0250  0.0572 -0.3923
 5516W        W22363   3.066   9.624   1.843 -0.1353 -0.0108 -0.1978
 5517W        W22364   5.118  18.982   0.993 -0.0502 -0.0447 -0.0069
 5518W        W22365  14.710  13.369  10.637 -0.0181 -0.0473 -0.1516
 5519W        W22366   4.551  18.954  11.418  0.0978  0.1841 -0.2298
 5520W        W22367   0.983  13.764  13.880  0.2529  0.2164  0.1282
 5521W        W22368   2.730   8.265  13.238  0.0502  0.3753 -0.5339
 5522W        W22369   2.426  18.324  11.546 -0.0831 -0.2287 -0.1141
 5523W        W22370   1.043  12.910   9.987  0.0744  0.4780  0.2076
 5524W        W22371   6.780  17.767  13.274 -0.0722  0.1467 -0.2052
 5525W        W22372   0.676  18.839  10.842  0.0960  0.1176 -0.0059
 5526W        W22373   7.515   8.923   2.001 -0.0480 -0.3188 -0.0719
 5527W        W22374   5.418  11.002   0.431 -0.1282  0.4233  0.0368
 5528W        W22375   7.332   6.918   1.558  0.1289  0.0974 -0.0911
 5529W        W22376   8.541  12.296  13.747  0.3752  0.2434 -0.0265
 5530W        W22377   2.122  14.059  12.128 -0.2654 -0.1378  0.1197
 5531W        W22378   1.965  15.157   2.731 -0.0640 -0.0795 -0.1323
 5532W        W22379  11.265  18.192   3.027 -0.1146 -0.0431 -0.0700
 5533W        W22380  13.841   0.322  11.775 -0.2812  0.1150  0.1919
 5534W        W22381  11.877   1.056  10.367 -0.3093  0.0413  0.2845
 5535W        W22382  19.236  10.100   3.881  0.1863 -0.3903  0.2409
 5536W        W22383   7.537  18.806   0.033 -0.0908  0.0677  0.1025
 5537W        W22384  13.882   1.790  10.670  0.0104  0.2290 -0.0438
 5538W        W22385   6.082  17.644   0.350 -0.0227  0.1123  0.0781
 5539W        W22386  10.049  12.973   4.530 -0.3038  0.2533 -0.0104
 5540W        W22387   0.657  13.804  11.605 -0.0635 -0.1330 -0.0415
 5541W        W22388   6.337  14.750   2.444 -0.1750 -0.0029 -0.0176
 5542W        W22389   8.679   2.367  10.589  0.1081 -0.4323  0.1023
 5543W        W22390  10.946  14.496   4.028 -0.2680  0.0526 -0.1125
 5544W        W22391   7.400  11.668   2.624 -0.1340  0.2254 -0.1874
 5545W        W22392   7.510  11.330   4.774  0.0550 -0.2092  0.0347
 5546W        W22393   0.948   5.727  10.096 -0.2044 -0.0710 -0.1777
 5547W        W22394  16.483   3.959   5.167  0.1425  0.1213  0.1324
 5548W        W22395  19.572  15.366  14.012  0.0745 -0.2758 -0.0713
 5549W        W22396   1.700  18.448   1.816 -0.0698 -0.1214  0.3803
 5550W        W22397  12.194   0.115  10.787  0.3018  0.1095  0.1053
 5551W        W22398   3.045  19.281   0.525 -0.0807 -0.2613 -0.1104
 5552W        W22399   7.361   7.489   1.362 -0.0548  0.1352  0.1307
 5553W        W22400  18.476  12.919   0.653 -0.0241 -0.0629  0.0330
 5554W        W22401   8.928  19.329   1.683  0.0561  0.0288 -0.0876
 5555W        W22402   2.756   7.152   0.539 -0.1895  0.1734 -0.4025
 5556W        W22403  18.449   0.623   5.084  0.2355 -0.0816  0.2402
 5557W        W22404   4.942   7.816   1.374 -0.0787 -0.2433  0.0211
 5558W        W22405  11.112  19.723   1.306  0.1481  0.2221 -0.1621
 5559W        W22406   7.251   1.588  12.353 -0.0289  0.2171  0.0616
 5560W        W22407   3.849   2.331   3.441  0.0019 -0.1920 -0.0824
 5561W        W22408   3.359   0.931   0.397  0.1318 -0.3488  0.2464
 5562W        W22409  11.269   6.493  14.232 -0.0014 -0.1519 -0.2735
 5563W        W22410  13.426   5.098   3.541 -0.1731 -0.5070 -0.2744
 5564W        W22411  16.477  18.990  14.263 -0.1640 -0.1420 -0.0564
 5565W        W22412  16.316   7.106  10.772 -0.1336 -0.3223  0.0996
 5566W        W22413  15.578   2.592   4.819 -0.0364  0.0167  0.2469
 5567W        W22414   7.399  17.252   9.216 -0.0581  0.1312  0.0298
 5568W        W22415   1.932  17.224   0.965  0.2675  0.0361  0.1023
 5569W        W22416  16.957   0.531  11.081  0.1228 -0.0077 -0.1835
 5570W        W22417  14.173  19.679   1.805  0.2697 -0.0113 -0.1605
 5571W        W22418  13.526  13.650  10.214 -0.0969 -0.1588 -0.2076
 5572W        W22419  15.694  14.158  11.775  0.0650  0.0291 -0.1125
 5573W        W22420   1.310  16.998   1.693 -0.1105  0.0973 -0.2810
 5574W        W22421   7.151  17.112   3.241  0.1269  0.0590  0.0097
 5575W        W22422   1.233  17.520   2.772  0.0444 -0.0420  0.3204
 5576W        W22423   8.179   1.388  10.565 -0.2218 -0.0358 -0.0306
 5577W        W22424  15.227  11.925  11.832 -0.1518 -0.1262  0.2710
 5578W        W22425   5.614   0.015   1.238 -0.0256  0.0162 -0.0363
 5579W        W22426  14.162   2.065  12.528  0.0781  0.1583  0.1083
 5580W        W22427   8.767   4.530  10.928  0.0268 -0.1194  0.1593
 5581W        W22428  10.347  17.024   1.689 -0.1680 -0.2236  0.3357
 5582W        W22429   9.384   0.217  13.039  0.0810  0.2235  0.2134
 5583W        W22430   3.580  10.760  12.060 -0.3745  0.0864  0.0174
 5584W        W22431   1.539   8.784  10.945  0.1954 -0.1929  0.0215
 5585W        W22432   2.600   9.271   1.649 -0.5385  0.0738  0.0040
 5586W        W22433   5.722   4.458  11.548  0.3174 -0.1402 -0.4064
 5587W        W22434   2.032  18.028  14.135 -0.2266  0.1343  0.3101
 5588W        W22435  17.215   1.600   0.685 -0.0592  0.1434 -0.1565
 5589W        W22436  10.021   5.268   0.928  0.1403 -0.0848  0.0255
 5590W        W22437  19.734   2.287   0.250 -0.4365 -0.1641  0.1990
 5591W        W22438  17.582   5.125  11.281 -0.1604  0.1618 -0.0206
 5592W        W22439   0.932  10.796   0.724 -0.0059  0.2117 -0.6000
 5593W        W22440   2.369   9.421  11.544  0.3194  0.6080 -0.0585
 5594W        W22441   6.820  17.248   3.752 -0.1134 -0.0509  0.0148
 5595W        W22442   4.152   4.983   4.550 -0.1190 -0.1482  0.1401
 5596W        W22443  13.932   6.363   4.835  0.0428 -0.2496 -0.2779
 5597W        W22444  11.830  10.580  14.146 -0.2803 -0.1731 -0.2535
 5598W        W22445   7.586   4.332  14.107  0.1973  0.1684 -0.2548
 5599W        W22446   0.344  15.255  13.728  0.0956  0.0064  0.2183
 5600W        W22447   5.770   4.643   0.436 -0.3275  0.2514 -0.0740
 5601W        W22448  10.321  12.250  11.120  0.3265  0.1602 -0.1533
 5602W        W22449   4.243   6.084   0.087 -0.0629  0.1867 -0.1119
 5603W        W22450  19.138  10.150   2.074  0.1643  0.1097 -0.2325
 5604W        W22451   1.214   6.121   0.874  0.1522  0.0077  0.1046
 5605W        W22452   9.646   5.781   2.819  0.0497  0.3131 -0.0241
 5606W        W22453   3.010  11.699  10.549  0.1620  0.1001 -0.0938
 5607W        W22454   8.013   6.591   4.275  0.0180  0.1909 -0.0729
 5608W        W22455  10.240   3.455   2.897  0.0244 -0.1088 -0.0406
 5609W        W22456   4.130  13.182   2.399 -0.2191  0.1078  0.2290
 5610W        W22457   5.536   1.412  11.960 -0.2421 -0.2509 -0.0511
 5611W        W22458   2.562  10.617  13.325 -0.2522  0.2678 -0.0863
 5612W        W22459  19.009  17.767  12.711  0.0960 -0.1203 -0.2906
 5613W        W22460   4.089  16.610   1.445  0.0142  0.0391 -0.0981
 5614W        W22461  12.233   0.363   2.147 -0.2159  0.0494  0.0441
 5615W        W22462  10.914  14.387  10.159  0.3499 -0.0419  0.0183
 5616W        W22463   7.709   5.288   3.955 -0.2858 -0.2792 -0.0364
 5617W        W22464  10.751  11.354  12.955  0.1456  0.0692  0.0999
 5618W        W22465   9.968   5.278   1.522  0.0512  0.1440 -0.2510
 5619W        W22466   6.433   4.884   4.051  0.0314  0.1145  0.2984
 5620W        W22467   5.591  16.700  11.560  0.1309 -0.3672  0.0968
 5621W        W22468  10.686  17.452   0.942  0.1231  0.1175  0.1291
 5622W        W22469   2.601   0.712   0.039 -0.2351 -0.0561 -0.2217
 5623W        W22470   9.007  16.508  11.630  0.2252  0.1084  0.0506
 5624W        W22471  11.650   1.856   0.058 -0.0183 -0.0754 -0.0113
 5625W        W22472   7.984  14.429   5.190  0.0293  0.1710 -0.2347
 5626W        W22473   0.011   6.341  10.101  0.0996 -0.0079  0.2074
 5627W        W22474  18.279  10.281  12.512  0.2358 -0.1686 -0.0927
 5628W        W22475   3.820  12.526   3.666  0.1930  0.4115  0.0941
 5629W        W22476   7.695   8.539   0.678  0.1505  0.0440 -0.0022
 5630W        W22477  14.328  14.273  12.016 -0.1521 -0.1055 -0.2413
 5631W        W22478  11.284  17.050   2.067  0.1781  0.0509 -0.1146
 5632W        W22479  12.564  18.431   3.923  0.1430 -0.0309  0.2475
 5633W        W22480  14.935   4.253  12.775 -0.1787  0.0461 -0.1518
 5634W        W22481   0.753  13.458  12.992  0.0661  0.0434 -0.4166
 5635W        W22482   6.464  10.924  13.217  0.1690  0.0359 -0.1718
 5636W        W22483   1.600  14.491  13.333  0.1074  0.3060  0.4784
 5637W        W22484   7.434   6.706   1.042  0.0000  0.0107 -0.1038
 5638W        W22485   3.985  19.201  12.728 -0.2358 -0.0115 -0.1415
 5639W        W22486  10.625  14.911   0.793 -0.0021 -0.2367  0.0509
 5640W        W22487   9.146  10.844   1.127 -0.3488 -0.0377 -0.0892
 5641W        W22488  15.211   2.310  10.889  0.1737 -0.1440  0.0597
 5642W        W22489   1.643  11.286  12.689 -0.0767  0.0100 -0.0395
 5643W        W22490  18.342  13.699   1.782  0.2129 -0.0913  0.0041
 5644W        W22491  11.658   3.360  13.937 -0.1866  0.0146 -0.0505
 5645W        W22492  17.153  19.658  14.066 -0.1663  0.0359  0.0304
 5646W        W22493   2.469  13.827  10.874 -0.0270 -0.1895  0.2184
 5647W        W22494   7.863  13.260  12.161 -0.0640 -0.4377 -0.0155
 5648W        W22495   9.624   1.269  10.758  0.1662  0.1621 -0.1833
 5649W        W22496   5.609   3.462   9.883 -0.4159  0.3436 -0.1356
 5650W        W22497  11.715  19.705  13.020 -0.1435 -0.4484  0.2226
 5651W        W22498   7.119   5.505   3.089 -0.1035  0.0699  0.2121
 5652W        W22499  17.783   3.221   5.075  0.0271 -0.0331  0.1700
 5653W        W22500  18.272   9.166   3.570 -0.1954 -0.3407 -0.1338
 5654W        W22501   4.785  11.817   0.983  0.0520 -0.2477 -0.0459
 5655W        W22502   1.486  11.260  13.176 -0.0978 -0.0730 -0.3610
 5656W        W22503   4.655   7.398  13.401 -0.1934 -0.1620 -0.3243
 5657W        W22504  12.588   6.755  13.907  0.0425  0.0666 -0.0241
 5658W        W22505  17.497  14.743   0.552  0.3706  0.0275  0.2995
 5659W        W22506   4.374  12.143   0.029  0.3413 -0.3526 -0.2855
 5660W        W22507   2.350   2.659  12.391 -0.1437 -0.2698  0.1239
 5661W        W22508   9.692  16.137  14.126  0.0321 -0.1066 -0.1865
 5662W        W22509   8.778   6.066  10.964 -0.1607 -0.0356 -0.2815
 5663W        W22510  17.649   6.592   4.884  0.2124  0.0516 -0.2268
 5664W        W22511  16.827   5.364  12.761 -0.1259  0.1444  0.2268
 5665W        W22512  13.079  14.037   1.329 -0.0425  0.0162 -0.2858
 5666W        W22513   1.998   5.455   2.516 -0.1717 -0.1654 -0.0906
 5667W        W22514   6.658  19.145  12.404  0.1303 -0.1380 -0.1976
 5668W        W22515  12.867  10.360   9.119 -0.1922 -0.1169 -0.3683
 5669W        W22516  14.715   1.380  13.721  0.0367  0.0105  0.1272
 5670W        W22517  17.658  13.665  11.260 -0.1106 -0.1798  0.0579
 5671W        W22518   3.597   9.069  11.993  0.2220 -0.2036  0.0783
 5672W        W22519  14.941   5.925   1.327 -0.1709 -0.3137  0.0428
 5673W        W22520  12.406  13.142  11.478  0.0880  0.2627  0.1576
 5674W        W22521  11.031   2.325   0.315  0.0385 -0.0534  0.1917
 5675W        W22522   2.208   6.272  13.163 -0.2427 -0.1261 -0.0226
 5676W        W22523   6.748   7.124  10.971  0.3270 -0.3712 -0.3308
 5677W        W22524   1.638   7.884   4.390 -0.2541 -0.2727  0.2887
 5678W        W22525  10.858   7.001  13.620  0.1664 -0.1684 -0.5188
 5679W        W22526   5.117   8.433  12.681 -0.0127  0.0880  0.4334
 5680W        W22527  15.589   9.948   3.887  0.2941 -0.0247 -0.0406
 5681W        W22528   3.540  11.455  13.803 -0.0076  0.0479 -0.3321
 5682W        W22529   0.597   3.271  13.114  0.0422  0.1264  0.2822
 5683W        W22530  15.720  15.967  12.089  0.1031  0.1205  0.1860
 5684W        W22531   4.852  11.594   0.539  0.0450  0.1238  0.2917
 5685W        W22532   5.884   4.439  10.074 -0.1424 -0.2507 -0.2073
 5686W        W22533   5.753   1.325  13.295 -0.1047 -0.1255  0.3858
 5687W        W22534  14.792  13.274   9.768 -0.1647  0.2759  0.3142
 5688W        W22535  19.181   4.448   3.786  0.2340 -0.0007  0.1264
 5689W        W22536   4.932  18.182   4.277  0.1719  0.1707  0.0877
 5690W        W22537   5.408  17.745  11.006  0.0484  0.5253 -0.2048
 5691W        W22538   5.431  14.641  11.749 -0.3089 -0.0835 -0.3381
 5692W        W22539   2.199  15.712  12.385 -0.3950  0.0946 -0.5473
 5693W        W22540   4.299   1.447   3.025 -0.0311  0.1354  0.2505
 5694W        W22541  17.715   1.041   2.897  0.1297 -0.0927 -0.1255
 5695W        W22542  18.715  17.847  11.700 -0.1002  0.3098  0.1719
 5696W        W22543   5.776   0.948   2.337 -0.0449 -0.1615 -0.1017
 5697W        W22544  11.395   8.537  11.314  0.0915  0.3148  0.1566
 5698W        W22545  14.386  10.459   1.017 -0.2953 -0.0317 -0.0347
 5699W        W22546  13.356  11.634  12.970  0.2078 -0.2317 -0.3819
 5700W        W22547  15.031  14.830  14.281 -0.3277  0.3081 -0.0189
 5701W        W22548   9.395  17.822  13.936 -0.1314  0.1443  0.3410
 5702W        W22549  12.742  14.863   4.027  0.0160 -0.1953 -0.2064
 5703W        W22550   7.766   6.530   0.138  0.2034 -0.0533  0.2971
 5704W        W22551   0.486   3.616  10.723 -0.1370  0.0416  0.1679
 5705W        W22552  15.579   4.286  11.209  0.0395 -0.1007 -0.0446
 5706W        W22553  19.470   8.748   3.357  0.1190 -0.0191 -0.2197
 5707W        W22554   3.685   4.232   2.915 -0.0921  0.4438 -0.2073
 5708W        W22555   9.934   8.905  10.564 -0.1243  0.3376  0.0091
 5709W        W22556  11.093   6.253  11.514  0.1858 -0.0953 -0.0585
 5710W        W22557  18.580  12.363  11.942 -0.0658 -0.0168 -0.1497
 5711W        W22558  17.717  17.758   2.920  0.1133 -0.1137 -0.1730
 5712W        W22559  18.422   9.953   1.858  0.1003  0.1890  0.1721
 5713W        W22560  15.749   4.106  12.193 -0.1829  0.0440 -0.0246
 5714W        W22561  15.368  10.307  10.727 -0.2795  0.1081  0.4794
 5715W        W22562   1.984  15.119  10.127  0.0327  0.2128 -0.1084
 5716W        W22563   0.540  17.560  12.464 -0.0364  0.0387 -0.0329
 5717W        W22564   3.027  13.471   1.540 -0.0460 -0.3111  0.0976
 5718W        W22565  11.349  11.324  13.097 -0.0954 -0.2266  0.0122
 5719W        W22566   4.433  18.343  13.481 -0.0729 -0.2401  0.2383
 5720W        W22567  13.968   5.672  10.226  0.1945 -0.2066  0.2941
 5721W        W22568   4.718  13.488   9.779  0.2532 -0.1568  0.1680
 5722W        W22569  15.500  15.098  10.225 -0.2664  0.0281  0.1535
 5723W        W22570   9.485   2.638   4.751 -0.0197  0.1622 -0.3437
 5724W        W22571   4.471  18.790  13.281 -0.0047 -0.0704 -0.0498
 5725W        W22572   4.897  16.110  14.004  0.0451  0.1922  0.2745
 5726W        W22573   4.999  13.012  12.465  0.2350  0.1457  0.0218
 5727W        W22574  16.418   9.578   2.979  0.0751 -0.1971  0.0109
 5728W        W22575  18.045   6.608   4.473  0.0800  0.2403 -0.1799
 5729W        W22576   8.805   7.186   1.327  0.2586 -0.1099  0.0066
 5730W        W22577  11.254   2.086  12.413  0.1061 -0.1981 -0.0802
 5731W        W22578  10.133   9.625   0.794 -0.1587  0.1749  0.1553
 5732W        W22579  18.016   2.835   1.827  0.1178  0.1876  0.0939
 5733W        W22580  18.874  16.985   5.183 -0.0887  0.1002 -0.1171
 5734W        W22581  15.288   2.944   2.658  0.2027 -0.0061  0.0808
 5735W        W22582   7.101   9.001  10.140  0.1453  0.2767  0.2147
 5736W        W22583  10.788   1.817   3.658  0.1298  0.0116 -0.6090
 5737W        W22584   0.942  13.957  10.851  0.1073  0.2427  0.2061
 5738W        W22585  16.263   0.761  12.345  0.2930 -0.1134 -0.0413
 5739W        W22586   2.564   4.819   9.839  0.0771 -0.0907 -0.2120
 5740W        W22587   4.507  14.226   1.620 -0.0113  0.1463  0.1953
 5741W        W22588  17.877  14.832   4.452 -0.3440  0.0097  0.1250
 5742W        W22589   6.340   5.579   3.685 -0.0064  0.0251  0.1345
 5743W        W22590  13.637  13.708   3.941 -0.3834 -0.1276 -0.1559
 5744W        W22591   8.471   8.575   1.854 -0.0501  0.0659 -0.1674
 5745W        W22592   6.692  11.448  10.296  0.0106 -0.0013 -0.0940
 5746W        W22593  19.627  17.460   0.016 -0.2307  0.2955 -0.2950
 5747W        W22594  15.869  16.235  13.201  0.2025  0.0358  0.1553
 5748W        W22595  11.424  14.943  14.037 -0.0791 -0.0941  0.0363
 5749W        W22596  11.426   1.555  11.548 -0.0537  0.2317 -0.1970
 5750W        W22597   9.926  19.285   3.028 -0.0533  0.1115 -0.1047
 5751W        W22598   8.991   8.723  10.129  0.1982  0.0055  0.1532
 5752W        W22599  18.815  14.937  12.458  0.1529 -0.0527  0.2654
 5753W        W22600  12.868   4.440   0.765 -0.0475 -0.1837  0.1942
 5754W        W22601  13.917   8.093   1.921 -0.2578  0.2695  0.5162
 5755W        W22602   7.480  16.481  13.241 -0.1100 -0.3257  0.1188
 5756W        W22603  13.282   7.785  14.099  0.4211  0.3047  0.2023
 5757W        W22604  13.768  19.920   3.445  0.0466 -0.3085  0.0357
 5758W        W22605  19.251  15.349   2.233 -0.2382  0.0524 -0.3639
 5759W        W22606   2.987   9.991  13.327  0.0704 -0.1314  0.0219
 5760W        W22607   5.057   5.839  11.853 -0.0102  0.1895  0.1715
 5761W        W22608  16.827  16.784  11.684  0.2593  0.2317 -0.0365
 5762W        W22609   7.889   0.503   1.395  0.0894 -0.0934  0.3079
 5763W        W22610  10.302  19.543   2.652  0.0328 -0.0023 -0.2172
 5764W        W22611   7.561   1.186  12.415 -0.5016 -0.1830 -0.3334
 5765W        W22612   3.645  19.753  12.822 -0.2468  0.0137 -0.1845
 5766W        W22613  12.706   4.653   3.949 -0.0143  0.1496 -0.1719
 5767W        W22614   2.037  14.082  10.872 -0.1785  0.0695  0.0468
 5768W        W22615  11.563   5.999   0.037  0.4290 -0.0478 -0.3226
 5769W        W22616  17.764   5.712  12.556  0.0363 -0.0139 -0.0680
 5770W        W22617  18.688   0.936  13.292  0.1175 -0.2650 -0.0494
 5771W        W22618  19.081   0.040  14.190  0.2989 -0.0019 -0.0691
 5772W        W22619  12.539  10.038  13.411 -0.1556 -0.0018  0.0629
 5773W        W22620  11.696   4.457   5.458 -0.1725  0.0783 -0.0241
 5774W        W22621  10.752   7.232   1.239  0.0708  0.1434 -0.1868
 5775W        W22622   9.362   1.961   3.708 -0.0933 -0.4906 -0.2400
 5776W        W22623  15.501  16.985   1.123  0.3215 -0.0989  0.1522
 5777W        W22624   2.172   7.673  11.203  0.1850 -0.1959 -0.0005
 5778W        W22625   7.938   4.074  11.324 -0.2483 -0.1128  0.3205
 5779W        W22626   3.785   2.531  12.375 -0.2000  0.0607 -0.1379
 5780W        W22627  12.197  10.690  12.216 -0.1596  0.4313 -0.0234
 5781W        W22628  15.862   8.714  12.279  0.1139  0.2541 -0.1141
 5782W        W22629  12.060   9.247  13.212 -0.3353 -0.0462 -0.0146
 5783W        W22630   2.215  15.629  13.348  0.2456 -0.3729  0.3273
 5784W        W22631   3.931  13.611   5.037 -0.1112 -0.0058 -0.3805
 5785W        W22632  15.865  11.780  14.183 -0.0943  0.1988 -0.0519
 5786W        W22633   0.132  16.848   4.792  0.4399 -0.4090  0.1778
 5787W        W22634  18.698   2.278   2.658 -0.1262  0.1093  0.0945
 5788W        W22635   5.176   8.196   1.061  0.0267 -0.1126  0.2330
 5789W        W22636  19.375   8.909   1.957  0.0189  0.2765 -0.2025
 5790W        W22637  19.504  18.570   3.483 -0.0433  0.1062 -0.0989
 5791W        W22638  14.511  15.209  11.854 -0.0847 -0.2192  0.0980
 5792W        W22639   9.737   5.635   1.793 -0.1438  0.2191  0.1855
 5793W        W22640  18.499  17.215   2.003  0.1829  0.0200 -0.1450
 5794W        W22641   9.524   2.384   0.450 -0.2904 -0.0754 -0.0433
 5795W        W22642   5.133   1.300   1.219 -0.0828 -0.2155 -0.1083
 5796W        W22643  14.872   1.091   3.476 -0.1890  0.0270 -0.1768
 5797W        W22644   5.236  11.050   1.443  0.0580 -0.2051  0.2426
 5798W        W22645   1.269  13.400  12.957  0.2147 -0.0431  0.0328
 5799W        W22646  13.130  10.034  10.422 -0.1030  0.0909 -0.6731
 5800W        W22647  15.756   1.864   2.029  0.2439  0.1565  0.2746
 5801W        W22648  13.865  13.164   4.616 -0.1083 -0.3012  0.0959
 5802W        W22649  15.703   4.343   0.726 -0.0271  0.4275 -0.0343
 5803W        W22650  17.299   3.227   3.095  0.0879 -0.1172  0.1280
 5804W        W22651   6.563  11.486   4.348 -0.3702  0.1619 -0.0227
 5805W        W22652  13.845   1.155   4.104  0.0336  0.0954  0.1267
 5806W        W22653  13.777   8.681  11.740  0.2652 -0.3150 -0.1822
 5807W        W22654   7.085  15.481   0.535 -0.0355  0.1365 -0.1717
 5808W        W22655  12.755  16.654   2.059  0.3792  0.3976 -0.2787
 5809W        W22656  10.357  17.693  10.381 -0.5467 -0.1777  0.1013
 5810W        W22657  14.447  19.324   3.626  0.2836 -0.2674 -0.0184
 5811W        W22658  14.586  11.859  13.615  0.0995 -0.0543  0.2655
 5812W        W22659   8.697   6.424   4.972 -0.1138 -0.1588  0.2819
 5813W        W22660  18.283  11.251   3.634 -0.1302 -0.1159  0.0209
 5814W        W22661   3.755  14.625  10.951 -0.2202 -0.1026 -0.2481
 5815W        W22662   3.894  10.638   0.287  0.0393 -0.0671  0.1508
 5816W        W22663  14.249  15.077   2.580  0.1541 -0.1104  0.2629
 5817W        W22664   1.342   5.135  11.198  0.0506 -0.2484  0.0546
 5818W        W22665  13.681   5.998   3.894  0.2240  0.1794 -0.0444
 5819W        W22666  19.180  16.089  11.548  0.0500 -0.0225 -0.3236
 5820W        W22667   4.582  11.838   2.064  0.2759 -0.2027 -0.2972
 5821W        W22668  10.370  17.311   2.758  0.2450 -0.2064 -0.3443
 5822W        W22669  15.881  16.085  11.154 -0.4633 -0.1970  0.0511
 5823W        W22670  12.259  14.417  12.814  0.6918  0.2430 -0.0383
 5824W        W22671  15.001   2.527   2.203  0.1718  0.2495 -0.3131
 5825W        W22672   4.261   6.404  10.760 -0.1602  0.1444  0.0855
 5826W        W22673   5.365   4.206  11.863  0.1042  0.3825 -0.1179
 5827W        W22674   0.863   1.851  13.130  0.1548 -0.5031  0.0955
 5828W        W22675   7.959  10.131   3.359  0.1702 -0.2026  0.1733
 5829W        W22676   1.498   0.161   0.935 -0.0648 -0.0798 -0.1679
 5830W        W22677   7.437   0.970   0.007 -0.1452 -0.1575  0.1715
 5831W        W22678  12.810   9.536  11.324  0.3111 -0.1800 -0.0756
 5832W        W22679   4.313   6.446  12.686 -0.3225 -0.0320 -0.2543
 5833W        W22680   1.220  17.242   9.790 -0.2653  0.0692  0.1133
 5834W        W22681   5.757   7.064  12.053 -0.0459  0.1920  0.1572
 5835W        W22682   5.276   8.637  11.646  0.3379 -0.0383 -0.0370
 5836W        W22683  16.398  11.864  11.256 -0.1090  0.3353  0.0646
 5837W        W22684  13.169  15.476  14.216 -0.2466 -0.0191  0.1019
 5838W        W22685   6.329   2.802  12.019 -0.1495 -0.2901  0.2437
 5839W        W22686   5.583  13.329  12.947 -0.0388 -0.0313 -0.3160
 5840W        W22687   1.194  19.252   4.123  0.1163  0.0130 -0.0162
 5841W        W22688   5.220  19.531   1.174 -0.2345 -0.0341 -0.1895
 5842W        W22689   2.730   1.875   2.886  0.0229  0.3094  0.0635
 5843W        W22690   4.591  14.911   0.196  0.0405  0.0874  0.2637
 5844W        W22691  14.753  14.327   1.255 -0.0787  0.0257  0.1936
 5845W        W22692   9.041  18.184  11.587 -0.0650 -0.1438 -0.2657
 5846W        W22693   9.600   5.586   0.839  0.0234  0.1627 -0.2228
 5847W        W22694   4.483   4.273   2.114  0.0952  0.0620  0.2176
 5848W        W22695  19.210  19.298   3.921 -0.1801 -0.2506 -0.0276
 5849W        W22696  12.231   9.809   0.909 -0.0567  0.2343 -0.3060
 5850W        W22697   6.679   8.761  10.035 -0.1423  0.3155  0.2460
 5851W        W22698  14.618  15.841   0.980  0.1204 -0.0429 -0.1395
 5852W        W22699   4.641  16.130   4.495 -0.2058  0.0500 -0.1643
 5853W        W22700  11.210   6.554  13.739 -0.0027  0.2716 -0.2723
 5854W        W22701   8.105  18.360   2.012  0.0169 -0.1381  0.3222
 5855W        W22702  15.882  11.679  12.905  0.2816 -0.1384  0.3241
 5856W        W22703   9.446  17.214   1.066 -0.0136  0.1315 -0.1034
 5857W        W22704   4.231  12.351  13.240  0.2052 -0.1857 -0.4524
 5858W        W22705   9.661  16.713  12.385  0.1993 -0.0532 -0.3265
 5859W        W22706  11.143  18.809   3.713 -0.0615 -0.2833 -0.0044
 5860W        W22707  18.699   9.342  14.078  0.3229 -0.0793 -0.0346
 5861W        W22708   1.996   5.514  10.190 -0.0612  0.1589  0.3589
 5862W        W22709   9.139   5.375  10.034  0.0680 -0.0572 -0.1598
 5863W        W22710  12.931  14.069  13.027  0.0813  0.1016  0.2323
 5864W        W22711   3.600  12.270   1.971 -0.1171  0.1624 -0.2117
 5865W        W22712  14.409   8.872  11.552 -0.0891  0.0067 -0.4924
 5866W        W22713   5.773  10.921  12.282 -0.0445  0.0504 -0.2074
 5867W        W22714  11.166   5.348  13.096  0.1974 -0.0629 -0.0811
 5868W        W22715  10.768  18.926  13.174  0.2172  0.0116 -0.4766
 5869W        W22716   0.023   0.350  12.978 -0.1084 -0.2154 -0.0458
 5870W        W22717  14.406   1.313   0.717  0.3523  0.1247 -0.5274
 5871W        W22718   5.479   7.111  13.050  0.4552 -0.1998 -0.3315
 5872W        W22719  19.824   0.559   0.758  0.1415  0.1212 -0.1287
 5873W        W22720  12.382   8.669   1.743 -0.0358  0.3047  0.3316
 5874W        W22721   4.308   4.076   1.717 -0.0336  0.1280  0.0456
 5875W        W22722  17.100  10.452   9.568  0.0156 -0.1346  0.1174
 5876W        W22723  18.835  12.858   0.308  0.0529 -0.0318  0.1037
 5877W        W22724   7.214   5.996   2.053  0.2976 -0.1059 -0.1292
 5878W        W22725   6.723   9.622  11.866  0.1116  0.1722 -0.0366
 5879W        W22726  16.381  13.044  10.824  0.1629  0.2745 -0.2781
 5880W        W22727   8.046   8.700   3.623  0.3650 -0.2192  0.2623
 5881W        W22728  17.953   9.792   2.061 -0.0253  0.1695  0.0678
 5882W        W22729   2.698  14.418  11.605  0.0958  0.2273 -0.0202
 5883W        W22730  12.735  15.524  11.978 -0.1127 -0.0630 -0.1608
 5884W        W22731  18.170  14.954  12.228  0.0008  0.2341 -0.2371
 5885W        W22732  16.713   1.572  12.715 -0.1498 -0.2209 -0.3397
 5886W        W22733  15.265   8.894  11.287  0.0620 -0.2037 -0.2016
 5887W        W22734   7.420  14.001   4.093  0.3621  0.1706 -0.2123
 5888W        W22735   0.829  15.683  12.091  0.1885  0.0716  0.1841
 5889W        W22736   1.568   1.811  11.629  0.2912 -0.0856 -0.2405
 5890W        W22737  13.611   5.965  13.874 -0.0406  0.1588 -0.3166
 5891W        W22738   5.013  11.096   2.337  0.1140  0.1774  0.0318
 5892W        W22739   1.592   0.630   0.735  0.2446  0.0701 -0.1585
 5893W        W22740  15.407   2.112  10.466  0.0116 -0.2470  0.2954
 5894W        W22741   0.469  13.881  13.899 -0.0771 -0.3249 -0.1094
 5895W        W22742   7.449  13.254   1.531  0.2441 -0.1211 -0.2910
 5896W        W22743  14.020  18.776   2.202 -0.0288 -0.2767 -0.1024
 5897W        W22744   5.936   9.176  12.174  0.0549 -0.3168  0.2896
 5898W        W22745   0.968  17.426   3.484 -0.2421  0.3126  0.1007
 5899W        W22746  11.184   9.261   4.977  0.2055  0.2182  0.2174
 5900W        W22747   6.863  13.352  11.370 -0.3410  0.0871 -0.1365
 5901W        W22748   7.720  16.105  13.431 -0.1370 -0.1609 -0.0773
 5902W        W22749  14.969  17.598  11.344  0.2633  0.2018 -0.1994
 5903W        W22750  16.147  15.944   1.803 -0.2713 -0.1213  0.1876
 5904W        W22751  10.692   8.464  11.032 -0.1963  0.3328 -0.0889
 5905W        W22752   7.755  15.204  11.702 -0.2294 -0.0401  0.0868
 5906W        W22753  17.326  12.653   4.541 -0.1987  0.1327 -0.0636
 5907W        W22754   7.946  19.387   3.403  0.0357  0.0780  0.1473
 5908W        W22755  11.803   6.874  11.409  0.2491 -0.1212  0.1158
 5909W        W22756   0.765   9.112  11.280 -0.2699 -0.0177  0.2494
 5910W        W22757   3.553  15.507   3.832  0.1313  0.1269  0.1822
 5911W        W22758  12.485  17.014  11.619 -0.3935 -0.2731 -0.1043
 5912W        W22759   0.710  17.107  12.397  0.5861  0.1294 -0.1524
 5913W        W22760  15.090   8.871  11.991 -0.2024 -0.0197 -0.1341
 5914W        W22761   3.919   1.729  12.357 -0.1426 -0.1195 -0.3228
 5915W        W22762   9.201  13.263  11.870 -0.1974  0.4105  0.0851
 5916W        W22763  18.378  15.753   0.725  0.1384  0.1864 -0.3669
 5917W        W22764   1.715   4.148   2.922  0.1024 -0.0584 -0.1397
 5918W        W22765  15.541   9.075   4.178 -0.2000 -0.2512  0.2120
 5919W        W22766   6.930   3.088   3.316  0.0776  0.2126  0.0248
 5920W        W22767   3.345   9.015   2.726  0.2101  0.1914 -0.1849
 5921W        W22768   4.562  12.633  10.778 -0.1992 -0.1004  0.3367
 5922W        W22769   7.324   3.559  10.757 -0.2633  0.0321  0.2630
 5923W        W22770  15.325   0.220   9.472 -0.0848 -0.1950 -0.1188
 5924W        W22771   9.329   2.376  12.198  0.1335 -0.3039  0.1739
 5925W        W22772  18.492  18.522  10.888  0.0017  0.0229  0.0066
 5926W        W22773   1.867  15.239  12.968  0.2340  0.0919 -0.3228
 5927W        W22774   1.090  19.531  12.069  0.4068  0.3012 -0.4651
 5928W        W22775  14.489  12.253  13.899  0.0609  0.1166 -0.0373
 5929W        W22776  14.636   4.753  11.029  0.1317  0.0326  0.1227
 5930W        W22777  19.173  12.528  13.467  0.2064  0.1444  0.1197
 5931W        W22778   2.262   4.936  11.908 -0.1428 -0.0247 -0.0643
 5932W        W22779  15.692  11.494   2.460  0.2188 -0.3051 -0.1568
 5933W        W22780  10.986  16.667   1.986 -0.1189  0.1240 -0.3336
 5934W        W22781  16.906  12.339  13.951 -0.2490 -0.1062  0.2633
 5935W        W22782   7.274   2.898  10.988 -0.2548  0.1434 -0.3936
 5936W        W22783  10.707  10.870  11.816 -0.2096 -0.1213  0.0081
 5937W        W22784  19.320  19.895   3.666  0.4465  0.1034  0.0014
 5938W        W22785  19.384   3.306   1.157  0.0091 -0.2805  0.4040
 5939W        W22786   3.346  18.199  11.834  0.3651 -0.3220  0.2138
 5940W        W22787  18.003  19.773  11.147  0.0903  0.2010  0.1968
 5941W        W22788  14.137  14.910   3.903 -0.0881 -0.2775  0.0662
 5942W        W22789   4.606   1.476   5.389  0.3584 -0.2766 -0.1081
 5943W        W22790   8.892   4.814  12.832  0.1822 -0.0627  0.0347
 5944W        W22791  10.570   1.375   1.281  0.0021  0.1878  0.3183
 5945W        W22792   5.801  16.190   3.890 -0.1144  0.0705  0.2860
 5946W        W22793   8.082   4.007  12.488  0.1748  0.0809 -0.0821
 5947W        W22794  12.935   4.529  13.964 -0.0744  0.0376 -0.1661
 5948W        W22795  17.743   7.545   1.025 -0.1693  0.0769  0.0110
 5949W        W22796   7.039  16.127  13.931 -0.0270  0.0037 -0.0962
 5950W        W22797  16.740   4.192  13.390 -0.1394 -0.1459  0.1744
 5951W        W22798   1.052  18.932   3.078  0.2793  0.0751  0.0999
 5952W        W22799  19.360  19.392   4.421 -0.1208  0.0471  0.1151
 5953W        W22800   3.652  13.264   2.164  0.0960 -0.0588 -0.0801
 5954W        W22801  18.203   0.952   3.762 -0.1781  0.0780 -0.1221
 5955W        W22802  11.835  14.898  13.590 -0.0994  0.1610 -0.1508
 5956W        W22803  18.710   1.652  12.177 -0.1047 -0.3279 -0.2099
 5957W        W22804  18.506   9.730   2.671 -0.4526 -0.0066 -0.2014
 5958W        W22805   0.573   6.645   4.952  0.1730 -0.0926 -0.0414
 5959W        W22806  18.366  17.258   4.150 -0.2218 -0.0011  0.3065
 5960W        W22807   4.388  19.470   4.334  0.0579  0.1736  0.3057
 5961W        W22808   4.112  19.114   0.957  0.2896 -0.0737  0.1058
 5962W        W22809   9.176  11.257  12.896  0.1584  0.0095 -0.0419
 5963W        W22810   5.922  13.732   5.566 -0.0868 -0.3165 -0.1228
 5964W        W22811  14.201   0.624  13.491 -0.2046 -0.0695  0.0787
 5965W        W22812  16.088  12.893  11.304 -0.2317  0.0718  0.3489
 5966W        W22813  14.625  18.187  12.007 -0.0005 -0.1107  0.0062
 5967W        W22814   2.629   7.273   1.841 -0.1419  0.2997  0.0048
 5968W        W22815   4.961   5.256  10.059  0.0923  0.1550  0.0788
 5969W        W22816  16.903   8.736   2.985  0.2710 -0.2762 -0.0374
 5970W        W22817   6.857   6.712   1.772 -0.3189 -0.0824  0.3412
 5971W        W22818  14.909  14.582   2.768  0.1538  0.1585 -0.3432
 5972W        W22819  10.477  18.077   3.465 -0.0083  0.1167  0.2850
 5973W        W22820   3.775   9.180   3.075 -0.1340 -0.2348 -0.0768
 5974W        W22821  13.928   8.952   4.441 -0.0887  0.1186 -0.3637
 5975W        W22822   8.504   5.070   4.326  0.0466 -0.0235  0.0639
 5976W        W22823   8.396   4.316  12.163  0.1883  0.0820  0.1999
 5977W        W22824   5.570   3.875   3.320 -0.2113  0.0642 -0.2110
 5978W        W22825  12.927   2.105   2.770 -0.2261  0.0433 -0.1067
 5979W        W22826  14.781  16.998  10.705 -0.3191  0.0273 -0.0902
 5980W        W22827   2.457   1.765  12.219  0.0727 -0.1039  0.1103
 5981W        W22828  14.805   7.556  11.665 -0.0706  0.0078 -0.0882
 5982W        W22829   6.186   6.283   8.778  0.2531  0.3275  0.1434
 5983W        W22830   7.848   2.269  12.878 -0.0886  0.3376 -0.2392
 5984W        W22831   8.925  19.791  13.725  0.1326 -0.3803  0.0425
 5985W        W22832   6.568   9.986   3.986  0.0073 -0.1512 -0.2837
 5986W        W22833   6.628  10.554   3.098 -0.1254 -0.0998 -0.1669
 5987W        W22834  17.751  19.119  13.503  0.1262  0.0299 -0.4483
 5988W        W22835   4.746   2.999  10.017  0.3931 -0.3090  0.2930
 5989W        W22836  11.841   9.764  10.653  0.1229 -0.1042 -0.0649
 5990W        W22837  17.221  11.580   3.111 -0.1474  0.0608  0.1306
 5991W        W22838   8.189  19.899   2.607 -0.0862  0.1350  0.1056
 5992W        W22839  14.730  19.714  13.817 -0.1877 -0.1215 -0.1629
 5993W        W22840   9.671   2.826   1.176 -0.0260 -0.0939 -0.1995
 5994W        W22841   3.326  13.700   3.830 -0.0488  0.0708  0.1495
 5995W        W22842   9.596   0.302  12.327 -0.0041  0.4337 -0.1702
 5996W        W22843  15.707   0.660   3.416  0.2122  0.2686 -0.1136
 5997W        W22844  19.891   9.059   2.990 -0.0084 -0.1537  0.1513
 5998W        W22845  15.820   4.313  13.255 -0.1731  0.0057  0.0099
 5999W        W22846  18.115   2.816   3.925  0.3648 -0.0235  0.0612
 6000W        W22847   6.921  16.285  11.796  0.0452  0.0975 -0.0058
 6001W        W22848  15.277   0.368  12.999  0.1460  0.4366  0.2867
 6002W        W22849   4.983  13.887   5.311  0.1287 -0.1194  0.1081
 6003W        W22850  12.802  14.614  13.577  0.3080  0.1099  0.0676
 6004W        W22851   8.752   1.279   3.780  0.2109  0.2306 -0.0085
 6005W        W22852   2.140  11.557   9.704 -0.0965 -0.0889 -0.1680
 6006W        W22853   9.660   8.175   4.356  0.0507  0.0693 -0.1241
 6007W        W22854   0.339   7.764   0.630 -0.0154 -0.0338 -0.2633
 6008W        W22855  15.384  13.972   1.355  0.3526  0.0008 -0.0580
 6009W        W22856   4.148   2.938   2.823  0.6295 -0.0555 -0.3854
 6010W        W22857  11.522  17.410  11.087  0.3620  0.0281  0.0261
 6011W        W22858  19.841  18.097  13.731  0.1064  0.1982 -0.0212
 6012W        W22859  14.606   0.252   3.355  0.0004 -0.1845 -0.0994
 6013W        W22860  19.697   4.047   9.967  0.0184 -0.0407  0.0541
 6014W        W22861  14.661   9.690   5.020 -0.1921 -0.2440  0.1579
 6015W        W22862   0.109  10.085   1.291  0.0670 -0.0353  0.0700
 6016W        W22863   4.545   6.480   0.959  0.2179  0.2533  0.1640
 6017W        W22864  16.567   0.659   2.214 -0.2682  0.0838  0.3687
 6018W        W22865  19.490   6.837   1.689 -0.2497  0.1535  0.3899
 6019W        W22866   6.950   7.219  11.824  0.0485 -0.1335  0.1146
 6020W        W22867   4.784   8.492  11.813 -0.0758 -0.0512  0.4374
 6021W        W22868   7.342  13.129  11.589 -0.2533 -0.3479 -0.2124
 6022W        W22869  16.638   7.236   4.920  0.0628  0.0622  0.2132
 6023W        W22870  10.567  17.511  11.132 -0.1888  0.2114 -0.1666
 6024W        W22871  12.692  11.189  10.052  0.2647 -0.1760 -0.0745
 6025W        W22872   2.619  17.229  10.503 -0.1469  0.2658  0.5439
 6026W        W22873  13.912  18.818   0.556  0.0610  0.1252 -0.0032
 6027W        W22874   7.012   7.047   4.291  0.2756  0.3498 -0.1763
 6028W        W22875  14.577  14.759  14.163  0.1460  0.2641  0.2122
 6029W        W22876  15.243   3.366  13.893 -0.0811 -0.0476 -0.0586
 6030W        W22877  17.879  18.485  13.095 -0.2331 -0.2739 -0.0277
 6031W        W22878  10.865   3.519  12.243  0.0733 -0.2933 -0.1489
 6032W        W22879   5.808  10.316  13.044  0.0648 -0.3481 -0.4814
 6033W        W22880  13.615   1.466  13.782  0.4805 -0.0719 -0.0142
 6034W        W22881   9.496  13.370   1.976  0.1600  0.0184  0.4372
 6035W        W22882  12.523   8.536   1.229  0.1484  0.1822  0.1108
 6036W        W22883   5.146   4.227   2.017 -0.0417  0.1044  0.0873
 6037W        W22884  18.188   8.717   0.384 -0.1529 -0.2593 -0.0792
 6038W        W22885  18.114  19.054  11.498 -0.3044 -0.2239 -0.3188
 6039W        W22886  11.023  12.085  13.413  0.1068 -0.0469  0.1573
 6040W        W22887   9.355   4.815   0.281 -0.0375 -0.0482  0.0022
 6041W        W22888  15.661  13.563   3.469 -0.0754  0.2622  0.1784
 6042W        W22889   7.485  17.624   3.777  0.1835 -0.2451  0.0911
 6043W        W22890  11.397   7.167   2.609  0.2319  0.3487 -0.2835
 6044W        W22891  13.170  19.679   0.829  0.3109  0.2626  0.2412
 6045W        W22892  14.885   2.019  13.802 -0.0459 -0.1290 -0.0276
 6046W        W22893  13.537  13.165   4.193  0.1002  0.2004  0.0596
 6047W        W22894  19.415   4.265   1.098  0.1082  0.0036 -0.3717
 6048W        W22895  10.683  19.052   1.912  0.0187  0.1164 -0.2170
 6049W        W22896   0.606   4.151  11.686 -0.0275 -0.1165  0.0986
 6050W        W22897   3.935  14.473   2.528 -0.0641  0.1623 -0.1403
 6051W        W22898   9.097   2.740  10.459  0.0397 -0.0228  0.0560
 6052W        W22899   1.062   1.605   5.224  0.0162 -0.1136  0.2792
 6053W        W22900  12.850   9.389  10.828 -0.4987 -0.2551  0.1767
 6054W        W22901   7.554  13.544  11.862  0.3250 -0.0084 -0.1191
 6055W        W22902   2.162   9.989  13.462 -0.1238 -0.3211  0.0747
 6056W        W22903  19.357  15.404  12.912 -0.0692 -0.3449 -0.0880
 6057W        W22904   0.965   5.794  13.664 -0.0116  0.1728 -0.1986
 6058W        W22905   8.496  18.065  13.238 -0.2626 -0.0135  0.0782
 6059W        W22906  12.196   6.415  12.342  0.0003 -0.0408  0.1590
 6060W        W22907  15.507  14.754   0.088  0.1142  0.0349  0.0296
 6061W        W22908   9.582   1.702   4.031  0.2438  0.0659 -0.0318
 6062W        W22909  18.626  15.093   3.176  0.2961  0.0165 -0.6455
 6063W        W22910   9.236  13.399  11.362 -0.1125  0.2540  0.1995
 6064W        W22911   0.538   4.900  13.491 -0.4204 -0.0895 -0.2331
 6065W        W22912  12.888  11.464  12.905  0.0376 -0.2938  0.0699
 6066W        W22913   0.722  15.393   3.209  0.1530 -0.0921  0.1442
 6067W        W22914   0.703  16.628  13.688 -0.2508 -0.2253  0.0845
 6068W        W22915  15.437  16.424  10.184  0.0295 -0.0023  0.1877
 6069W        W22916   6.807  14.772  13.276  0.0493  0.5715 -0.1633
 6070W        W22917  14.925   8.399  11.932  0.1609 -0.0039 -0.3896
 6071W        W22918  16.343  17.064   3.429 -0.0305 -0.1701 -0.2119
 6072W        W22919  12.853  13.557   2.712 -0.4079 -0.2046  0.0789
 6073W        W22920   4.477  14.855  13.201 -0.0384  0.2186 -0.0917
 6074W        W22921   7.966  11.197  12.599 -0.3187 -0.0541  0.0454
 6075W        W22922  13.236  18.547   3.325 -0.0439 -0.0862  0.2683
 6076W        W22923   8.348  11.925   1.538 -0.0514  0.1813  0.1723
 6077W        W22924   7.816  10.982   1.076  0.1566 -0.0722 -0.3717
 6078W        W22925   5.112   4.225   2.653 -0.2200  0.2216 -0.0310
 6079W        W22926   3.757  14.189   1.482 -0.3687 -0.0216 -0.0268
 6080W        W22927  16.948  18.853   1.405 -0.0117  0.1390  0.0617
 6081W        W22928  11.785  15.281   0.957  0.4728  0.0336 -0.2303
 6082W        W22929   7.967   6.109  11.672  0.0285 -0.1904 -0.0056
 6083W        W22930   0.549   0.283  14.249  0.2241  0.0843  0.2234
 6084W        W22931   7.163   8.925  13.529  0.1644 -0.0625 -0.0012
 6085W        W22932   8.444   6.898   4.419 -0.0929 -0.0374 -0.4166
 6086W        W22933  13.008   8.856   3.566 -0.1627  0.2480 -0.1229
 6087W        W22934  18.293  15.009  10.172  0.1298 -0.1796 -0.1921
 6088W        W22935   2.308  17.475   3.793 -0.0126  0.1551 -0.0273
 6089W        W22936  19.716  17.137  12.029  0.0162 -0.3749 -0.0932
 6090W        W22937   8.764   7.625   2.104  0.0023  0.0781 -0.0543
 6091W        W22938   4.655  18.390  10.805  0.0375  0.0102  0.2033
 6092W        W22939  13.805  19.270  12.145 -0.1162 -0.1715 -0.1419
 6093W        W22940  18.827  10.202  11.358  0.3325  0.1953 -0.1492
 6094W        W22941   3.215  10.045   1.532  0.0672  0.3907  0.0324
 6095W        W22942   8.875   1.226   4.795  0.1086 -0.1104  0.1620
 6096W        W22943   1.800  17.678  13.756  0.0686  0.1403  0.0343
 6097W        W22944   6.769   2.593  10.665 -0.0588 -0.0926 -0.0756
 6098W        W22945   2.713   4.560   8.938 -0.1992  0.0585  0.1584
 6099W        W22946  14.735   6.132   4.905  0.0457 -0.0121 -0.0923
 6100W        W22947  11.123  17.553  10.263  0.2273  0.0801  0.0532
 6101W        W22948  14.303   3.923  11.056 -0.0881  0.3040  0.1088
 6102W        W22949  18.703  18.631   2.189  0.4058  0.2265 -0.2173
 6103W        W22950   1.282  11.136   2.083 -0.1833 -0.0442 -0.3166
 6104W        W22951  17.977  18.549   0.534 -0.0965 -0.4121 -0.1779
 6105W        W22952  17.916  16.296   0.103  0.0271  0.1633  0.0736
 6106W        W22953  13.868  11.237   1.295 -0.1017 -0.3186  0.1670
 6107W        W22954   7.909   1.203  11.067 -0.1047  0.0118 -0.0623
 6108W        W22955   9.229  11.723  13.675  0.0239  0.2993  0.0127
 6109W        W22956  14.472  18.774  10.423 -0.1680  0.3372 -0.0393
 6110W        W22957  10.215   6.296  14.170  0.0539  0.3443  0.2945
 6111W        W22958  15.770  13.553   0.093  0.0932  0.3879  0.2372
 6112W        W22959  11.184  17.914  11.114 -0.0636 -0.0156 -0.0875
 6113W        W22960  13.668  17.963   1.052  0.0509 -0.0145 -0.0332
 6114W        W22961  16.030  15.640   0.367  0.1106  0.5417 -0.0864
 6115W        W22962   0.976  15.676   1.293 -0.1229 -0.0695 -0.1546
 6116W        W22963   4.747   8.756   1.220 -0.0190 -0.0380 -0.0568
 6117W        W22964  12.505   8.008   5.171 -0.1904 -0.1419  0.1951
 6118W        W22965  19.595  17.496   9.987  0.2623  0.0058  0.3657
 6119W        W22966  11.653   9.042   3.014 -0.0400  0.0453 -0.2483
 6120W        W22967  19.914  18.147   2.854 -0.2493  0.1341  0.1816
 6121W        W22968   4.152   7.389  12.165  0.0018 -0.3020  0.1703
 6122W        W22969  13.946  17.540   3.713 -0.0239 -0.2708  0.3737
 6123W        W22970  15.493  19.891  11.273  0.2380 -0.0905 -0.0605
 6124W        W22971  18.758   8.144   4.005 -0.0359 -0.0510 -0.0272
 6125W        W22972   3.826   6.353  10.502  0.0855 -0.0591  0.4119
 6126W        W22973   5.307   7.197   2.401 -0.1470 -0.1908  0.0202
 6127W        W22974   8.373  17.151   9.474 -0.0830 -0.0393 -0.4097
 6128W        W22975   2.313   0.277  12.716  0.1125 -0.3677  0.3149
 6129W        W22976   6.466  13.856  10.571 -0.1920 -0.0049 -0.1743
 6130W        W22977  14.292   1.194  12.640 -0.1210 -0.1036 -0.0553
 6131W        W22978  16.065   4.362   0.169 -0.0944  0.0046 -0.1367
 6132W        W22979   2.765  12.511   4.034  0.1889 -0.2566 -0.3339
 6133W        W22980   1.069   4.186   2.439  0.4383  0.0102  0.1925
 6134W        W22981  17.581  17.410   4.361  0.0953 -0.0894 -0.0005
 6135W        W22982   7.071  17.923  12.186 -0.1088  0.0078  0.2630
 6136W        W22983  13.306   4.863   3.030  0.1417  0.0554  0.0041
 6137W        W22984  13.059   5.732   4.579 -0.0331  0.3745  0.1155
 6138W        W22985  11.255  19.268   8.691 -0.3093  0.1708  0.0601
 6139W        W22986   5.635   2.372   2.093  0.0125  0.0605 -0.3959
 6140W        W22987  14.230  17.618  13.335 -0.1923 -0.0225  0.0362
 6141W        W22988  11.565   7.316  11.433  0.0301  0.2613  0.0359
 6142W        W22989   0.827  11.977  12.680 -0.1250  0.1548  0.2244
 6143W        W22990  12.934   0.669   5.063  0.0931  0.1275  0.1914
 6144W        W22991   2.513   0.596   3.300  0.0719 -0.1598 -0.1651
 6145W        W22992   4.911  15.817   1.114  0.0641  0.0266 -0.1751
 6146W        W22993   1.140   4.575  13.422  0.3089 -0.1320 -0.1813
 6147W        W22994   1.811  14.112   3.807  0.1284  0.2839  0.0367
 6148W        W22995   2.888   2.257   0.607 -0.1834 -0.0583 -0.0464
 6149W        W22996  15.806   0.179   3.842 -0.0352  0.1924  0.0539
 6150W        W22997   5.060   6.178   9.625 -0.1669  0.3969  0.1204
 6151W        W22998   5.114   5.195   2.013 -0.0696 -0.4329  0.1414
 6152W        W22999   1.509  16.591  11.910  0.0759 -0.0506 -0.1655
 6153W        W23000   0.959   6.020   2.879  0.0825  0.0944 -0.1013
 6154W        W23001  13.136  13.404  13.602  0.1685 -0.2141 -0.0122
 6155W        W23002  11.460  18.846   2.446 -0.3654 -0.1636  0.1452
 6156W        W23003  11.138  18.504   4.602 -0.0144 -0.1902  0.0389
 6157W        W23004  14.527  16.349  12.224  0.0559 -0.0973 -0.1340
 6158W        W23005   3.470  12.920   0.657  0.0615 -0.0313 -0.2860
 6159W        W23006  15.259  11.125  14.072 -0.2075 -0.0459 -0.2193
 6160W        W23007   4.740   5.770   2.227 -0.1120 -0.2006  0.1229
 6161W        W23008  17.085  14.688  13.917  0.1340  0.2839 -0.0812
 6162W        W23009  18.071   3.710   2.879  0.0710  0.1252  0.0285
 6163W        W23010   6.840   8.679  10.984  0.2010  0.1420 -0.1370
 6164W        W23011  18.456  14.427   9.115  0.1468 -0.0674  0.1348
 6165W        W23012   3.690  16.772  10.424 -0.0974 -0.3049 -0.0018
 6166W        W23013  11.980  19.514  10.125  0.2833  0.2306  0.1135
 6167W        W23014   5.792  12.232  12.867  0.1543 -0.2251  0.0378
 6168W        W23015   7.720  16.959   3.188  0.1881 -0.3739 -0.0033
 6169W        W23016  17.696  15.017   2.256 -0.1543 -0.2354 -0.0349
 6170W        W23017  10.885  11.477   3.866 -0.5672  0.4756  0.2821
 6171W        W23018   0.330   7.672  12.272 -0.0127  0.0009 -0.0059
 6172W        W23019   5.174  14.628  10.695 -0.0507  0.3420  0.1189
 6173W        W23020  11.615   3.118  11.416 -0.2051  0.0291  0.0010
 6174W        W23021   2.696  12.064  10.335 -0.0792  0.1184  0.0219
 6175W        W23022   7.546   5.762  11.561  0.0920  0.0701  0.0346
 6176W        W23023   6.415  13.615   4.176  0.1210 -0.0128  0.1189
 6177W        W23024   1.752  10.434  12.279 -0.0105  0.2076  0.0822
 6178W        W23025  16.427  13.564   1.573 -0.0078 -0.1525  0.4117
 6179W        W23026   1.845  12.573   1.981 -0.3659  0.1162 -0.1482
 6180W        W23027   9.417   0.230   2.233  0.0649 -0.0802  0.3493
 6181W        W23028  17.909   0.133   4.162 -0.1883 -0.0597  0.1909
 6182W        W23029   5.134   3.065  10.999  0.0449  0.0138  0.0238
 6183W        W23030  11.547   1.471  10.386  0.0316 -0.0265 -0.1009
 6184W        W23031   9.266   1.777  10.471  0.0929 -0.1815 -0.4504
 6185W        W23032  18.520   4.788   4.604  0.5241  0.0082 -0.0837
 6186W        W23033  11.213   3.861   3.621 -0.1672  0.2147 -0.0233
 6187W        W23034   1.872  12.838  13.791  0.2348  0.0033 -0.0212
 6188W        W23035   8.153  18.704  12.632 -0.1239  0.2870 -0.0884
 6189W        W23036  16.789  10.071   0.324 -0.2061 -0.0712 -0.1980
 6190W        W23037  17.663   9.940  12.078  0.0032  0.1615  0.2560
 6191W        W23038   0.933   8.611   4.885  0.1773  0.1808 -0.1497
 6192W        W23039  17.186   5.065  12.535 -0.1947  0.0489  0.0465
 6193W        W23040  12.799   7.141   2.380  0.2830  0.1013 -0.2534
 6194W        W23041   8.821   9.277  12.563 -0.2831 -0.2531  0.2046
 6195W        W23042  10.988  13.157   3.261  0.1431 -0.1287  0.1603
 6196W        W23043   3.844   0.910  10.100 -0.2915 -0.1002  0.1283
 6197W        W23044   4.323   9.175   2.398  0.1856  0.0523 -0.1509
 6198W        W23045   8.445   3.511   0.379 -0.1470 -0.0212  0.0521
 6199W        W23046  13.998   7.182  10.358  0.2376 -0.0953  0.0794
 6200W        W23047  15.423   1.429  11.792 -0.1428  0.1929 -0.0406
 6201W        W23048   1.044   5.250   2.786 -0.0287 -0.0164  0.1591
 6202W        W23049  17.610  18.188   3.218  0.0953  0.0509  0.2066
 6203W        W23050  14.752   9.151   1.448  0.1906  0.0371  0.3689
 6204W        W23051  17.719   7.019  14.094  0.1015  0.2454  0.3209
 6205W        W23052   7.786  10.168   1.306 -0.1365 -0.0897  0.0779
 6206W        W23053   7.688   6.525   3.892  0.1856 -0.0294  0.0432
 6207W        W23054   6.567   4.059  11.654  0.0024  0.4000  0.2356
 6208W        W23055  13.771   5.179   4.491  0.0277 -0.4958 -0.2582
 6209W        W23056  16.067  11.595   3.669  0.0932 -0.0452  0.1400
 6210W        W23057   6.933  14.502   3.148  0.0094 -0.2976 -0.0187
 6211W        W23058   9.218  16.178   5.061 -0.2025  0.2926 -0.1789
 6212W        W23059  19.276  18.475   1.749 -0.3007 -0.0555 -0.0735
 6213W        W23060  16.405  18.039   9.964 -0.0069 -0.1530  0.0476
 6214W        W23061  14.074   0.012   0.038  0.2876 -0.2128  0.1252
 6215W        W23062  13.001  16.085   0.786  0.1283 -0.0334 -0.2009
 6216W        W23063   7.596  16.195  11.215 -0.0641  0.2772  0.1284
 6217W        W23064  17.742   7.921   3.535  0.1085 -0.1006  0.0081
 6218W        W23065   8.161  16.564  11.014  0.0064 -0.2846  0.1279
 6219W        W23066  11.496   0.795  11.114 -0.0714  0.0458  0.0214
 6220W        W23067   2.926  12.494  11.324 -0.0926 -0.1985 -0.0406
 6221W        W23068  14.456   5.864   1.210  0.2616  0.1892 -0.2425
 6222W        W23069  11.884   7.226   3.286  0.4605 -0.2752 -0.1999
 6223W        W23070   8.734  14.136  14.137  0.0182 -0.2447 -0.2150
 6224W        W23071   4.507  13.382  12.842 -0.0503  0.1790 -0.2156
 6225W        W23072   3.112   1.792   0.326  0.0100 -0.0816  0.0491
 6226W        W23073  11.764  19.183  13.182 -0.0213 -0.1234 -0.0444
 6227W        W23074   1.496  17.883  13.343  0.2022 -0.0358  0.2833
 6228W        W23075  18.166  15.042  11.642 -0.0258  0.3210  0.4616
 6229W        W23076   8.470   0.625   1.077  0.0016  0.0126  0.3660
 6230W        W23077   9.691  15.116   2.491  0.0987  0.0074  0.0667
 6231W        W23078   7.888  17.235  12.449  0.0366  0.2590 -0.2204
 6232W        W23079  19.679   3.281   0.186  0.0367  0.1351  0.1008
 6233W        W23080   8.597  15.257  14.013  0.1229 -0.2225 -0.1925
 6234W        W23081   3.142  11.098   5.011  0.4232  0.0891 -0.0705
 6235W        W23082  12.282  16.478   0.366 -0.0194  0.0524  0.1966
 6236W        W23083  17.359   0.304   5.200  0.3139 -0.1457 -0.1626
 6237W        W23084  18.848   2.310   5.032  0.1053  0.0613 -0.1182
 6238W        W23085  10.171  16.526  14.232 -0.0618 -0.2130  0.3416
 6239W        W23086  17.967   0.974   5.765 -0.0942 -0.0558  0.4003
 6240W        W23087   1.812  17.345  10.401 -0.0672  0.3609  0.3456
 6241W        W23088   7.291  12.492  11.545 -0.3136 -0.2605 -0.1237
 6242W        W23089   8.863   0.827  12.779 -0.0121  0.1738  0.3836
 6243W        W23090   5.175   5.644   2.456  0.1262 -0.0573 -0.1336
 6244W        W23091  15.925   9.045  11.914 -0.0441  0.0561  0.1079
 6245W        W23092  17.384   4.207   4.150  0.0240  0.0874  0.3151
 6246W        W23093   4.355   5.299  13.638  0.2113  0.2299  0.0595
 6247W        W23094  13.208  16.534  11.380 -0.0856  0.0256 -0.2613
 6248W        W23095   3.471  16.673  10.940 -0.1134 -0.0322 -0.3409
 6249W        W23096   5.418   8.170   3.326  0.2164 -0.1169 -0.0986
 6250W        W23097  10.316  12.877   1.914 -0.1976  0.0475  0.1300
 6251W        W23098   3.841   6.436   3.505 -0.0685 -0.2463  0.0143
 6252W        W23099   0.854  10.564   0.182  0.3291  0.1272 -0.2239
 6253W        W23100   3.135  16.590  13.196  0.0874 -0.1091 -0.0404
 6254W        W23101   2.119   4.100   2.314 -0.4647  0.1431  0.3208
 6255W        W23102  14.334  14.212  10.780 -0.0584  0.2327 -0.4678
 6256W        W23103   1.807   2.527   4.106 -0.2140  0.0783  0.4139
 6257W        W23104  14.622  13.856  11.936 -0.2432  0.2845  0.2360
 6258W        W23105   8.536   6.832   3.443  0.1438 -0.2061 -0.0952
 6259W        W23106   2.248   2.098  11.797 -0.0563 -0.0211 -0.0887
 6260W        W23107  10.808   5.960   0.898  0.0433  0.1665 -0.0703
 6261W        W23108   3.943   6.775  13.728 -0.1006  0.0144 -0.1097
 6262W        W23109   6.311  10.301   2.885  0.0067 -0.1177  0.1926
 6263W        W23110  14.383   8.539   4.294 -0.1973 -0.2410  0.1446
 6264W        W23111   6.046   7.009  11.408  0.0403 -0.1041 -0.0680
 6265W        W23112  15.644   8.660   3.831  0.2726  0.6848  0.1054
 6266W        W23113   1.262   0.559  13.843 -0.1773 -0.1045  0.0461
 6267W        W23114  14.931   5.795   6.237  0.0227 -0.0200 -0.5749
 6268W        W23115   1.421   3.769   2.369  0.0236 -0.1741  0.0743
 6269W        W23116  13.044   3.580   0.169  0.1392  0.0789  0.1887
 6270W        W23117  15.879   2.448  13.493  0.1435 -0.0983  0.2710
 6271W        W23118  14.918  13.637   4.077 -0.1438  0.5078  0.0755
 6272W        W23119  14.407  13.889  10.320  0.2075  0.4244  0.1632
 6273W        W23120   1.094   1.354   0.532  0.1308 -0.3265 -0.1413
 6274W        W23121  18.834   0.184  10.203 -0.1637  0.0679  0.0881
 6275W        W23122  15.559   5.800   2.697  0.3148 -0.0200  0.2827
 6276W        W23123   6.955   7.993   9.666  0.3784  0.2178  0.0900
 6277W        W23124  17.319   7.846   9.527  0.0646  0.0139 -0.0911
 6278W        W23125  10.750   4.155  13.429 -0.0876  0.1568  0.1162
 6279W        W23126   6.179   7.311  12.218 -0.3275 -0.2915  0.1418
 6280W        W23127   4.304  17.579   0.547  0.3760  0.1814  0.3064
 6281W        W23128  10.985  13.717  13.054 -0.1047 -0.0205 -0.1222
 6282W        W23129   1.061   0.452   4.982  0.0943  0.0541 -0.1644
 6283W        W23130  18.872   0.939   0.889 -0.2345  0.2668  0.0023
 6284W        W23131   4.404  15.066   3.853 -0.0198  0.0187  0.3130
 6285W        W23132   5.076  13.772   3.962 -0.0683  0.4945  0.1455
 6286W        W23133  11.592   4.207   3.553 -0.0304  0.1770  0.1661
 6287W        W23134  11.206   4.286   2.248 -0.1711  0.2795  0.1798
 6288W        W23135   9.117   2.204  10.823 -0.0247 -0.1081 -0.0094
 6289W        W23136   0.789  10.289   0.609  0.1281  0.2059  0.1269
 6290W        W23137   4.034  15.965  10.527  0.0449  0.0193  0.0452
 6291W        W23138  16.652  17.379  10.933  0.2022 -0.1292 -0.0739
 6292W        W23139   3.438   4.963   3.625 -0.0461  0.1132  0.0586
 6293W        W23140   6.516   3.237  12.599 -0.3872  0.2045  0.5738
 6294W        W23141  18.559   0.332  12.071  0.1465 -0.0620  0.0654
 6295W        W23142   1.858   0.791  13.090  0.0738  0.2925 -0.0402
 6296W        W23143   1.120   6.105   3.597  0.0978 -0.0361  0.2683
 6297W        W23144  10.603  18.588  11.435  0.0522 -0.1340  0.1457
 6298W        W23145  17.434   7.219   1.255 -0.0470  0.2626 -0.1923
 6299W        W23146  12.856   0.088  13.691 -0.1483 -0.1506  0.2294
 6300W        W23147   9.967   3.234   4.141  0.2191  0.1775 -0.1380
 6301W        W23148   9.687   4.591  13.364 -0.1721 -0.1149 -0.0021
 6302W        W23149  18.282  15.765   1.281  0.0754  0.2922  0.0939
 6303W        W23150   0.885  17.029   0.727  0.0936 -0.1255 -0.3071
 6304W        W23151   6.613   8.085   0.666 -0.2358 -0.1693 -0.1328
 6305W        W23152   6.798  10.086  11.246  0.1466  0.0112  0.1637
 6306W        W23153  19.112   3.881   1.307 -0.0363 -0.2337  0.0179
 6307W        W23154  14.421  17.189  13.736 -0.1279 -0.0351  0.1355
 6308W        W23155  10.498  16.090  13.105 -0.0077 -0.0191 -0.3158
 6309W        W23156  12.395   0.813  13.340  0.0341  0.2574  0.1793
 6310W        W23157   2.106   6.688   2.809  0.0888 -0.0277  0.0113
 6311W        W23158   2.648  17.142   1.323 -0.0099  0.1343 -0.0350
 6312W        W23159   2.329   9.686   0.895 -0.2474  0.0505 -0.1167
 6313W        W23160  12.669   5.847   3.813 -0.0102  0.0095  0.0462
 6314W        W23161   8.015  12.519   9.893 -0.0706  0.2095 -0.0049
 6315W        W23162   0.032  14.644   2.437  0.2553  0.0994  0.0972
 6316W        W23163   0.918   5.612   3.153 -0.1999  0.3334  0.0642
 6317W        W23164  14.747  16.948  10.042  0.1853  0.2079 -0.3257
 6318W        W23165   8.493   9.014   2.094 -0.2989  0.1332 -0.0693
 6319W        W23166  15.301   4.482   0.475 -0.2757  0.1278 -0.1859
 6320W        W23167  12.556   7.263  13.013 -0.2462 -0.0957 -0.0339
 6321W        W23168   2.081   0.001   2.569  0.0539  0.0344 -0.0797
 6322W        W23169  18.277   0.535   9.234 -0.1621  0.2578  0.2193
 6323W        W23170   1.742   6.424  10.629 -0.0633  0.0960 -0.2133
 6324W        W23171   2.355   2.214   0.734 -0.3021  0.2899  0.3965
 6325W        W23172   1.268  14.969   4.109 -0.0447  0.0897  0.1220
 6326W        W23173  15.561  13.950   2.801  0.0072  0.1881 -0.0273
 6327W        W23174  15.273   7.771   3.017  0.0347 -0.0491 -0.1452
 6328W        W23175   9.013  13.423   1.987 -0.2117 -0.0823  0.0324
 6329W        W23176  17.440   2.351  11.420  0.1377 -0.2446  0.0947
 6330W        W23177  18.999   9.409   3.112 -0.1031  0.0171 -0.0209
 6331W        W23178   4.724  19.096  13.626 -0.1982  0.1962  0.3522
 6332W        W23179  12.485  11.137  11.405  0.2715 -0.2351 -0.2296
 6333W        W23180   5.109   5.613  10.452 -0.0849  0.1337 -0.1217
 6334W        W23181   1.564   4.883   3.543  0.4205  0.1675  0.3472
 6335W        W23182  10.903  16.884   0.750 -0.0250  0.3165  0.1827
 6336W        W23183   4.413  18.094  11.311  0.1127  0.1485  0.2091
 6337W        W23184  14.481   1.631  12.381 -0.2280  0.0112  0.3453
 6338W        W23185   2.380  12.996   2.588  0.2034  0.1791  0.0169
 6339W        W23186   8.180   9.179   3.666  0.1561  0.0601  0.0388
 6340W        W23187  16.996  11.216  12.302 -0.1765 -0.0240 -0.4704
 6341W        W23188   7.563   9.357   2.977 -0.2557  0.0857  0.0634
 6342W        W23189   5.245  15.272  13.492 -0.2299  0.0229 -0.1709
 6343W        W23190  16.336  19.281  11.100 -0.3881 -0.0699  0.1941
 6344W        W23191  19.373  10.551   1.060 -0.2759 -0.1342  0.1324
 6345W        W23192  16.617  14.305   2.737 -0.0356 -0.0482  0.2644
 6346W        W23193   4.556   2.544  12.519  0.2173 -0.1092  0.0073
 6347W        W23194   2.685   1.261  13.035 -0.1812  0.2955 -0.4128
 6348W        W23195   4.622   8.116   3.961  0.0033 -0.0822  0.0275
 6349W        W23196  18.734  14.966  10.441 -0.1126 -0.3173  0.2208
 6350W        W23197   6.885   3.144  11.953 -0.0425  0.3365 -0.1088
 6351W        W23198  15.973  14.518   4.884 -0.0264  0.0157 -0.0641
 6352W        W23199   3.644  15.129  12.790  0.0544 -0.0238  0.2945
 6353W        W23200   9.943   0.490   3.001 -0.1214 -0.0361 -0.2089
 6354W        W23201  15.525   3.392   2.601 -0.1547 -0.1830 -0.1443
 6355W        W23202   8.070  19.841   2.081  0.0038  0.1326  0.1537
 6356W        W23203  15.825   8.223   4.053  0.2253  0.2659 -0.4294
 6357W        W23204  12.518   5.369   2.110  0.2957 -0.2448 -0.0375
 6358W        W23205  10.129   8.994   1.263  0.1849 -0.1934  0.2087
 6359W        W23206  16.799  15.732  12.120  0.2368 -0.2091  0.1088
 6360W        W23207  18.129   4.134  11.601  0.0548 -0.2291 -0.0032
 6361W        W23208  15.466   5.097   2.736  0.2240  0.2922  0.0897
 6362W        W23209  10.581  18.173  13.482  0.0594 -0.1005  0.1096
 6363W        W23210   9.437  14.304   1.548  0.0924  0.0222 -0.1187
 6364W        W23211  16.332  13.289  13.446 -0.0862  0.1944 -0.2435
 6365W        W23212  10.747   3.323   2.467  0.2241  0.0312  0.4924
 6366W        W23213   9.347   8.066   3.870  0.2830 -0.5374  0.0219
 6367W        W23214   0.627   6.802   3.985  0.0685  0.0641  0.1497
 6368W        W23215   5.789  17.572  13.396 -0.1285  0.0665 -0.2358
 6369W        W23216   8.516   9.323   1.653  0.0101  0.0948  0.0990
 6370W        W23217  16.234   9.956   9.653 -0.4944  0.0304  0.1845
 6371W        W23218  18.844  11.473   4.933 -0.0060  0.1582 -0.2767
 6372W        W23219  14.715  18.394   4.547  0.0343 -0.1609  0.1744
 6373W        W23220   6.339  14.029   4.580 -0.1202  0.2746  0.3946
 6374W        W23221   1.931   1.821  10.805  0.1512 -0.1384  0.0085
 6375W        W23222   8.422   2.996   1.944 -0.0880  0.0886  0.0798
 6376W        W23223   7.876  17.774   4.334  0.1326 -0.3035  0.0272
 6377W        W23224   7.836  14.420  11.673 -0.1748 -0.2225  0.0729
 6378W        W23225  11.931  15.801  11.665 -0.0408  0.0476  0.0478
 6379W        W23226  11.630   6.503   1.914 -0.2136 -0.1332  0.2773
 6380W        W23227  19.232  17.016   3.904  0.3210 -0.0394  0.1061
 6381W        W23228   9.755  10.405  11.666 -0.2712  0.3798  0.1015
 6382W        W23229   4.566   3.446  12.072 -0.0767 -0.0994  0.1318
 6383W        W23230   4.037  13.490   9.977 -0.3245  0.0542  0.1284
 6384W        W23231  19.580  13.425   1.744  0.2144  0.1026 -0.1380
 6385W        W23232   4.435   7.025   1.537 -0.2746 -0.0595 -0.1258
 6386W        W23233  19.548   3.522  10.726  0.1773 -0.3142 -0.3647
 6387W        W23234   3.816   3.799   1.110  0.1378  0.2092 -0.1014
 6388W        W23235   5.688   8.904   4.574 -0.0746 -0.1626  0.1173
 6389W        W23236  15.957  19.618   1.943 -0.2522  0.0768 -0.1566
 6390W        W23237   7.351  14.806   8.890 -0.0012 -0.2997 -0.0420
 6391W        W23238   8.935  15.910   1.731  0.2202 -0.1880  0.1311
 6392W        W23239  16.566  14.665   1.822  0.1335 -0.0748  0.5854
 6393W        W23240   7.116  12.546   3.439  0.0381  0.1665  0.0792
 6394W        W23241   9.548   0.949   1.199  0.0261 -0.1629 -0.2219
 6395W        W23242   6.728   8.365  14.081  0.1469  0.2212  0.1477
 6396W        W23243   9.348   6.664  14.179  0.3275 -0.0834  0.1557
 6397W        W23244  17.771  18.019  11.357  0.0370 -0.1470 -0.1097
 6398W        W23245   7.039  11.192   2.401  0.1259  0.0686 -0.4223
 6399W        W23246  13.496   6.485  13.803 -0.0112  0.1008 -0.1106
 6400W        W23247   0.720   5.725   0.925 -0.1172 -0.3639 -0.4900
 6401W        W23248   6.868  15.284   2.341 -0.0841 -0.1367  0.2031
 6402W        W23249  13.335  12.170   1.118 -0.1563 -0.1305  0.0719
 6403W        W23250  13.472   0.883   4.364 -0.0227 -0.0286  0.0717
 6404W        W23251   1.183  13.702  11.236  0.2537  0.2179 -0.1391
 6405W        W23252  13.407  10.010   4.475 -0.2082 -0.2103  0.3637
 6406W        W23253   7.574  14.255   1.523 -0.1322  0.2041  0.2522
 6407W        W23254  12.664   3.027  10.890 -0.2008 -0.3273 -0.0722
 6408W        W23255   3.169  11.253   2.509  0.0607  0.1246 -0.0202
 6409W        W23256   4.133   2.438  12.826 -0.0048  0.1418  0.0484
 6410W        W23257   2.280   4.454  12.885  0.2157 -0.3586  0.2317
 6411W        W23258  10.514  12.145  10.195  0.0812 -0.1731 -0.1573
 6412W        W23259  11.203  11.442   1.750  0.1035 -0.0893 -0.0007
 6413W        W23260  14.195   9.435   2.516  0.0592  0.2887  0.1274
 6414W        W23261   8.036   9.127   9.885  0.2400 -0.1338 -0.2423
 6415W        W23262   0.366   5.593   4.726  0.2329 -0.0855 -0.1107
 6416W        W23263   8.968   8.645   4.058 -0.3512 -0.3460 -0.1662
 6417W        W23264   4.051   0.164   0.839  0.0734 -0.1581  0.1158
 6418W        W23265   4.729  12.412  12.144 -0.0899  0.2279 -0.2298
 6419W        W23266  14.419   7.220  11.536 -0.0142 -0.2197 -0.1812
 6420W        W23267  16.842  18.310  12.634  0.1543  0.0434 -0.0959
 6421W        W23268   9.080   1.743  11.274  0.0890 -0.0658  0.0912
 6422W        W23269   3.154  16.925   2.840 -0.3844  0.0467 -0.1618
 6423W        W23270   0.374   4.664   2.456 -0.1816 -0.0324  0.0860
 6424W        W23271   1.322   4.836   1.490 -0.1103 -0.1765 -0.1235
 6425W        W23272  18.866  16.778   3.069  0.3967 -0.1366  0.3539
 6426W        W23273  16.866  11.485  14.108 -0.2952  0.4655  0.0223
 6427W        W23274  14.289   0.068  11.793 -0.2662 -0.1653 -0.1301
 6428W        W23275  15.660   5.338  13.511 -0.1063 -0.1045  0.2385
 6429W        W23276   1.493   3.819   4.938  0.5264 -0.0725 -0.0916
 6430W        W23277  18.909  15.313  12.127 -0.1118 -0.1776  0.0716
 6431W        W23278  16.981   3.280   2.623 -0.0946 -0.2019  0.2972
 6432W        W23279   0.748   6.404   1.689 -0.1792 -0.1200 -0.2072
 6433W        W23280  15.375  12.505   2.522 -0.0032  0.2466 -0.0247
 6434W        W23281  17.466   9.343   5.581  0.3508 -0.2892  0.1030
 6435W        W23282   3.317   3.974   1.460 -0.1502 -0.0242  0.1493
 6436W        W23283  17.004  10.558   3.286  0.4956  0.1239  0.0348
 6437W        W23284  12.268  10.434   0.082 -0.1159  0.3996  0.0436
 6438W        W23285   1.225   3.035   5.225  0.2133  0.1772  0.4247
 6439W        W23286   1.805   9.138   0.471 -0.0318  0.4041  0.1890
 6440W        W23287  15.279  12.375   4.375  0.1213 -0.1502  0.0537
 6441W        W23288  14.048  12.164  11.960  0.1344 -0.1419 -0.1779
 6442W        W23289  16.963  17.783   0.366  0.2226 -0.4062  0.0939
 6443W        W23290  16.451  17.362   4.693 -0.4051  0.3409 -0.3162
 6444W        W23291  16.769  14.757   3.821 -0.0440  0.4303 -0.0124
 6445W        W23292   0.172   8.669  13.210 -0.1560 -0.3657 -0.0536
 6446W        W23293   7.909   7.208  10.452  0.0616 -0.0637  0.0071
 6447W        W23294  10.661  18.424  13.044  0.0217  0.2283 -0.4834
 6448W        W23295   0.197  17.528   2.457  0.0578  0.0323 -0.1782
 6449W        W23296  10.112   0.378  10.111  0.0265  0.4211  0.0159
 6450W        W23297  10.847  17.521   2.671  0.0369  0.2980 -0.2620
 6451W        W23298  13.576   8.742   0.498  0.3674 -0.1171 -0.1606
 6452W        W23299  18.791   4.556  14.192  0.1971 -0.2954 -0.1250
 6453W        W23300   7.625   5.799  10.776  0.1958 -0.0072  0.0133
 6454W        W23301   6.488  12.595  10.832 -0.0817  0.1005  0.4082
 6455W        W23302  10.834   4.504  10.769  0.0490 -0.4365  0.5461
 6456W        W23303   1.721  18.886  12.825 -0.0376  0.0582  0.0292
 6457W        W23304  19.258   0.003   2.649  0.2640  0.2861 -0.1171
 6458W        W23305  16.127   3.236   0.816 -0.1561  0.3692  0.1006
 6459W        W23306  12.066  16.824  10.688  0.2666 -0.0251 -0.1841
 6460W        W23307   5.846   2.137   3.805 -0.0770  0.0126  0.0393
 6461W        W23308  18.001  10.345  10.598 -0.4166  0.1662 -0.1934
 6462W        W23309  15.514  18.630   5.194 -0.1893  0.3102  0.1359
 6463W        W23310   0.345   2.064   0.394  0.1186 -0.0153  0.0932
 6464W        W23311   7.510  19.079   1.885 -0.1330  0.1004 -0.2846
 6465W        W23312  14.982  13.252   2.465 -0.4163  0.1432  0.1539
 6466W        W23313  11.088   1.336  11.876 -0.0420 -0.1205  0.1848
 6467W        W23314   2.090  10.213   3.521 -0.0710 -0.0930  0.2004
 6468W        W23315   3.245  15.513  14.051  0.0547  0.0736  0.1465
 6469W        W23316   8.037   2.313  13.349 -0.1358 -0.1811  0.1354
 6470W        W23317   8.365  19.303   3.745  0.2093 -0.1349  0.1320
 6471W        W23318  18.591   1.039  11.334  0.1385 -0.0610  0.0421
 6472W        W23319  11.519  12.026   2.537  0.2200 -0.1844  0.0093
 6473W        W23320   5.022   6.476  14.273 -0.2346 -0.5019  0.4336
 6474W        W23321  15.349  12.719  11.748  0.2317 -0.4086 -0.1474
 6475W        W23322   6.995  13.470   2.412 -0.2218 -0.3366 -0.2153
 6476W        W23323   1.771   8.419  11.718 -0.1687 -0.0961 -0.0918
 6477W        W23324   9.124  12.898   4.737 -0.0792 -0.5330 -0.0102
 6478W        W23325   4.006  14.490   1.140  0.0756 -0.1086 -0.2972
 6479W        W23326  10.075   6.877  12.016  0.3276 -0.1676  0.2436
 6480W        W23327  18.427  18.004  10.876 -0.2308  0.0100 -0.0167
 6481W        W23328   4.376   1.093  13.640 -0.0435  0.2981 -0.0152
 6482W        W23329  19.477  10.434  14.009  0.2007 -0.1619  0.1253
 6483W        W23330   0.671  13.103   4.788 -0.0830  0.1442 -0.0215
 6484W        W23331  14.448   9.358  12.369 -0.4109 -0.1892 -0.5263
 6485W        W23332   2.105   7.469   1.846 -0.0333  0.0223  0.0783
 6486W        W23333  11.228  10.147  13.538  0.1012  0.0531  0.1019
 6487W        W23334   5.699   2.544   1.581 -0.1489  0.2761  0.0384
 6488W        W23335   6.033  14.144  13.213  0.2859 -0.1917  0.0023
 6489W        W23336  18.465   6.204  10.481  0.2288 -0.0325  0.1126
 6490W        W23337   0.189   2.329  10.100 -0.2850  0.1199  0.2673
 6491W        W23338  18.395   9.155  12.018  0.0123 -0.0036  0.0025
 6492W        W23339   7.687  13.463   1.049  0.1793 -0.0821  0.2267
 6493W        W23340   3.085  10.890  11.921  0.0951 -0.1129  0.3127
 6494W        W23341   1.761   8.252  13.026  0.0598 -0.0518  0.1340
 6495W        W23342   7.722   3.365   0.354 -0.4243 -0.0073 -0.0537
 6496W        W23343   1.962  12.137   9.864  0.0734 -0.1405 -0.1288
 6497W        W23344   0.387  10.968   2.084 -0.2521  0.1111  0.1513
 6498W        W23345  13.954  12.718  10.205 -0.2133 -0.1424 -0.4625
 6499W        W23346   3.014   5.549   9.604  0.1282 -0.1345  0.5684
 6500W        W23347  14.807   3.814   0.842 -0.3365  0.0829 -0.1729
 6501W        W23348   7.830   2.928   0.526 -0.1698 -0.0849  0.1055
 6502W        W23349  16.486  18.328   4.345 -0.2588 -0.0706  0.0578
 6503W        W23350  17.389   5.020  14.192 -0.1589 -0.2746 -0.1186
 6504W        W23351   6.289  15.145   1.534 -0.0131 -0.1238 -0.3998
 6505W        W23352   2.560   2.587  10.585 -0.3275 -0.1028  0.0881
 6506W        W23353   9.542   8.981  11.047  0.0433  0.2585  0.0144
 6507W        W23354  17.030   3.344  13.183 -0.1039 -0.1621  0.5516
 6508W        W23355  11.633  12.196   1.758  0.0471 -0.0547  0.0405
 6509W        W23356  18.237  15.480  13.809 -0.0344 -0.1674 -0.0393
 6510W        W23357  17.471   0.511  11.221 -0.2214  0.0579 -0.2891
 6511W        W23358   9.358  12.749   2.087  0.0402  0.3268 -0.4414
 6512W        W23359  10.681  10.811   3.311  0.0501  0.0233 -0.0134
 6513W        W23360   7.704   7.353   4.702  0.1071 -0.2004 -0.0120
 6514W        W23361   5.860  17.640   1.158  0.0800 -0.0804  0.5052
 6515W        W23362  18.041  17.686   0.411 -0.0568  0.4151 -0.0069
 6516W        W23363  11.574   5.974   4.493 -0.0452  0.1648 -0.0467
 6517W        W23364  15.532   4.032   3.241  0.1387  0.0598  0.0859
 6518W        W23365   7.599  13.792  14.042 -0.3740  0.3812  0.0525
 6519W        W23366  12.780   0.579  10.285  0.0813  0.1672  0.0172
 6520W        W23367   5.867   8.769  10.987  0.2305 -0.0292 -0.2096
 6521W        W23368  15.074  13.659  13.289  0.1563 -0.1402  0.0807
 6522W        W23369  12.093   0.840   1.992  0.0058 -0.1341  0.1767
 6523W        W23370  13.001  11.148   3.483  0.3907  0.2618 -0.2698
 6524W        W23371  18.672   9.988  12.754 -0.0633  0.5843 -0.2295
 6525W        W23372   8.688   5.574   3.273  0.0236 -0.0545  0.1961
 6526W        W23373   3.787   0.489  10.643 -0.0261  0.1518 -0.0487
 6527W        W23374   6.902   6.488   4.878 -0.1692  0.2944 -0.0608
 6528W        W23375   7.204  17.245  13.862 -0.0107  0.1332  0.0274
 6529W        W23376  12.879  10.278  13.747 -0.0996 -0.3851 -0.3525
 6530W        W23377  16.055  17.936  10.451 -0.0790  0.3331 -0.1637
 6531W        W23378  12.079   8.832  14.070  0.0236  0.0034  0.0117
 6532W        W23379   1.637  16.552  14.004  0.2445 -0.0450 -0.1494
 6533W        W23380   4.469  10.928   2.851  0.0955 -0.0788 -0.0814
 6534W        W23381  17.158   1.574  11.544 -0.2158  0.3369  0.2199
 6535W        W23382   5.381  14.586   0.686  0.1026 -0.4926  0.0871
 6536W        W23383   5.910  15.309   4.267  0.1465  0.2079 -0.2785
 6537W        W23384   7.921   8.628  14.007  0.1293 -0.0405  0.2191
 6538W        W23385  15.069  19.485  11.621  0.1891 -0.0680 -0.3149
 6539W        W23386   1.352  18.800  13.644  0.1143 -0.1805  0.0189
 6540W        W23387  15.680  11.056   4.349 -0.3478 -0.0344 -0.1567
 6541W        W23388  14.974   0.077   5.026  0.0446 -0.1316 -0.0699
 6542W        W23389   9.801   6.964  14.226 -0.0754  0.0393  0.0681
 6543W        W23390  10.962  12.426   0.132 -0.4723  0.3173 -0.2207
 6544W        W23391  17.923  17.209   0.512  0.2180 -0.1148 -0.2650
 6545W        W23392  19.870   0.684  12.513 -0.0834 -0.0331 -0.0037
 6546W        W23393   0.472   9.502  10.749 -0.1103 -0.1284  0.1097
 6547W        W23394  12.788  12.539  11.628  0.0852  0.0041 -0.0796
 6548W        W23395  13.771   8.096   4.232 -0.2373  0.2220 -0.1964
 6549W        W23396   4.326   0.720  12.531  0.0474  0.1968  0.2776
 6550W        W23397  10.246   8.481   1.362  0.0785 -0.3058 -0.2600
 6551W        W23398  13.281  18.889  12.566 -0.0971  0.1827  0.4105
 6552W        W23399   1.169   9.437  12.892 -0.1181 -0.1810 -0.2229
 6553W        W23400   1.772  16.658   1.678 -0.1462 -0.1454  0.2950
 6554W        W23401  13.319  17.811   3.951  0.1260 -0.2313  0.0203
 6555W        W23402  18.315  19.683  13.696  0.1475 -0.1487  0.0832
 6556W        W23403  18.631   9.800   0.060  0.1015  0.0934  0.4418
 6557W        W23404  17.832   5.929   2.759 -0.1139  0.0115  0.1671
 6558W        W23405   2.139  12.482  13.644 -0.1584 -0.2310 -0.0206
 6559W        W23406   5.204   0.151   3.876  0.0029 -0.3482  0.0621
 6560W        W23407  18.392   3.752  11.757  0.4244 -0.1695  0.3039
 6561W        W23408  15.444  18.979   9.652  0.0980  0.1598 -0.1651
 6562W        W23409   3.974   5.571  13.911  0.0717  0.1978  0.0001
 6563W        W23410   7.477   5.420   0.780 -0.4302  0.2265 -0.1187
 6564W        W23411  15.693   7.419   4.370 -0.0517  0.1744 -0.0519
 6565W        W23412   9.131   0.073   1.231 -0.0812 -0.0015  0.4929
 6566W        W23413  18.573   1.505   3.190  0.2693  0.0395 -0.0920
 6567W        W23414   6.600  18.151   8.846 -0.2888  0.4828  0.1705
 6568W        W23415   8.648   1.116   1.664  0.1523  0.1455 -0.1127
 6569W        W23416   4.873  17.544  13.981  0.0563 -0.2625  0.0969
 6570W        W23417   5.393  10.999   0.931 -0.1117  0.0013 -0.3440
 6571W        W23418   2.444   8.486  11.242 -0.1196 -0.2082 -0.3277
 6572W        W23419  12.849   8.374   0.286 -0.0793  0.0514  0.3026
 6573W        W23420   1.136   2.917   4.374  0.2421 -0.1739 -0.1513
 6574W        W23421   4.581  17.917  13.707  0.0182 -0.0517 -0.1798
 6575W        W23422  11.095   1.475  12.795 -0.1918 -0.1197  0.1211
 6576W        W23423  10.218  19.254   3.974 -0.2545  0.0431 -0.1741
 6577W        W23424  16.879   2.072   1.076  0.0873  0.0886  0.0292
 6578W        W23425   2.035  18.845   3.826 -0.1349 -0.1724 -0.1565
 6579W        W23426   2.019   0.216  13.775  0.5395 -0.0594  0.0850
 6580W        W23427   8.830  13.743  10.230 -0.1793  0.1949  0.2418
 6581W        W23428   6.341   0.918  13.884 -0.0128  0.0185  0.1975
 6582W        W23429   9.497   6.509   3.056 -0.0488  0.2589 -0.1218
 6583W        W23430   7.844   3.037   3.815 -0.3531  0.2413 -0.1043
 6584W        W23431   9.887  16.251   1.151 -0.1486  0.1193 -0.2756
 6585W        W23432  18.419   9.582   3.816  0.0715  0.0652 -0.2548
 6586W        W23433  18.470   6.072   2.437  0.1381  0.1996  0.0329
 6587W        W23434   8.475   2.141  13.558  0.2279 -0.0014  0.3083
 6588W        W23435  13.205  12.010   5.367  0.0792 -0.0596  0.1964
 6589W        W23436  18.571   8.343  13.391  0.0570 -0.0383  0.2078
 6590W        W23437   5.948  15.382   1.931  0.2701 -0.0032  0.0624
 6591W        W23438   7.135   4.273  12.972 -0.0850  0.1346  0.0522
 6592W        W23439  15.038   0.276  11.159 -0.0454  0.0542  0.2050
 6593W        W23440  13.449   4.479   3.447 -0.0660  0.6343  0.4014
 6594W        W23441   7.913   4.330   3.924  0.0661 -0.1010  0.1342
 6595W        W23442   8.859   7.447   2.709 -0.1267 -0.0757 -0.2531
 6596W        W23443  18.133   0.296   1.151 -0.2330  0.4395  0.1737
 6597W        W23444  17.318  12.520  12.082 -0.2339  0.1565  0.0396
 6598W        W23445  10.071   1.320   0.467  0.0800  0.0475 -0.0564
 6599W        W23446   7.820   8.158   0.104 -0.0267 -0.0681  0.0199
 6600W        W23447   6.144   3.067   4.812  0.2612 -0.0209 -0.0165
 6601W        W23448   8.960   2.828   3.327  0.1070 -0.2659 -0.0813
 6602W        W23449  18.977  11.002   0.460  0.2929 -0.5576 -0.0519
 6603W        W23450  16.470   5.144   2.937  0.3528 -0.0183 -0.2352
 6604W        W23451   6.745   5.647  12.094 -0.3647  0.1134 -0.0571
 6605W        W23452  17.209   0.805   3.273 -0.1529 -0.0056  0.0262
 6606W        W23453  15.801   8.495   5.120 -0.0262  0.1109  0.1714
 6607W        W23454   5.343  12.106  12.751  0.0518  0.0576 -0.1780
 6608W        W23455  13.234  17.893  13.504  0.1150  0.3352 -0.0279
 6609W        W23456   3.763   1.653   2.904  0.2582  0.0736 -0.0867
 6610W        W23457   6.437  13.511   0.551  0.0818  0.1967 -0.2987
 6611W        W23458  17.560  13.992  13.386  0.0198  0.2215  0.3716
 6612W        W23459  18.553   3.735  10.933  0.0690 -0.0619 -0.1554
 6613W        W23460   5.907  15.977  12.911 -0.2458 -0.0004  0.2706
 6614W        W23461   8.254   4.458   3.252  0.0564  0.3720  0.2545
 6615W        W23462   7.890   4.108   2.983 -0.0120  0.1906  0.0305
 6616W        W23463   8.443   5.971  13.429  0.0714  0.0831  0.2025
 6617W        W23464   0.121  11.148  14.149  0.0797 -0.1247  0.1039
 6618W        W23465   0.826   0.658   1.982 -0.2616 -0.2227  0.2995
 6619W        W23466   5.296  19.882   3.384  0.3561  0.0459  0.0226
 6620W        W23467  14.537  10.361   1.747  0.3432  0.1425 -0.0708
 6621W        W23468  15.464   9.102  12.246 -0.0488 -0.0635  0.3931
 6622W        W23469   3.909   9.378  12.334  0.1994  0.1624  0.0856
 6623W        W23470   6.602  10.838   0.706 -0.3670 -0.0339 -0.1012
 6624W        W23471   4.182   2.452   3.051 -0.3033 -0.2214 -0.4772
 6625W        W23472  19.534  11.194   0.090  0.0649 -0.3209 -0.1279
 6626W        W23473   2.407  17.026   0.090  0.1082  0.2355  0.0473
 6627W        W23474  15.402   4.930  12.346  0.1301 -0.0422  0.0080
 6628W        W23475   7.056  18.908  11.709  0.1341  0.0762 -0.1238
 6629W        W23476   1.547  14.904  10.572  0.1105  0.3147 -0.2228
 6630W        W23477   9.968   0.823   1.526  0.0575  0.1684 -0.1638
 6631W        W23478   6.145  17.470   3.654 -0.1799  0.1750 -0.3525
 6632W        W23479   6.827  18.991  13.091 -0.0591 -0.1854  0.1905
 6633W        W23480   1.265   6.113  10.762 -0.1028 -0.0878  0.2701
 6634W        W23481   0.504  17.659   0.002 -0.3440  0.0488  0.2364
 6635W        W23482  11.864  13.911   3.279 -0.1378 -0.1676  0.0845
 6636W        W23483  13.660   4.622  12.893 -0.0829 -0.1014  0.3079
 6637W        W23484  18.167  13.736  10.268 -0.0048 -0.0263  0.1208
 6638W        W23485   9.559  16.273   3.017 -0.1691 -0.3197 -0.2837
 6639W        W23486  19.582   9.716  10.112 -0.0690  0.2668 -0.0095
 6640W        W23487   3.105  16.914   1.072  0.0121  0.0357 -0.0146
 6641W        W23488   5.728  11.708   4.415  0.0336 -0.2021  0.2745
 6642W        W23489  18.888  16.099   2.322  0.2342  0.1567 -0.0330
 6643W        W23490   2.283  17.631   4.589 -0.0723  0.1043 -0.3246
 6644W        W23491   8.022   0.830   0.812  0.0154 -0.2373 -0.0056
 6645W        W23492   5.275  11.976  14.205  0.4124 -0.2802  0.0324
 6646W        W23493  19.719   0.450   9.005 -0.0338  0.0290  0.0625
 6647W        W23494  15.772  14.093   1.672  0.2012 -0.3559 -0.1426
 6648W        W23495  11.923   8.564   0.935  0.0036  0.1416 -0.0670
 6649W        W23496  19.917  19.514  11.524 -0.3623  0.0773 -0.1309
 6650W        W23497   7.494   6.510   2.877  0.1636 -0.0231 -0.2176
 6651W        W23498   9.418   4.741   0.775 -0.1060  0.1309 -0.3253
 6652W        W23499  15.068   5.860   1.804 -0.0533 -0.1988  0.3455
 6653W        W23500   7.560  18.413  13.980  0.1074 -0.0306  0.3710
 6654W        W23501  12.966  17.592  12.502 -0.0654  0.1123  0.2942
 6655W        W23502   5.049   2.064   3.315  0.2133  0.1815  0.2284
 6656W        W23503   3.505   8.555   1.862  0.0767  0.2836 -0.0235
 6657W        W23504  18.885  16.573  13.595 -0.0114 -0.1213 -0.0472
 6658W        W23505  16.904  18.203   2.485  0.0001  0.2244 -0.3119
 6659W        W23506   4.163  19.190   2.921 -0.1667  0.0880 -0.0403
 6660W        W23507   5.311   6.896  11.442  0.0049  0.0189 -0.1219
 6661W        W23508  16.292   0.276  12.249 -0.1918  0.1252 -0.0256
 6662W        W23509   3.755  17.457   3.448 -0.0422  0.1803 -0.1757
 6663W        W23510  11.997  12.690   1.879 -0.2164 -0.0221  0.0167
 6664W        W23511  19.893   6.203  13.865  0.1808  0.0447 -0.0192
 6665W        W23512  16.444   6.721   0.425 -0.2029  0.0553  0.2079
 6666W        W23513   8.010  18.047   0.701  0.3493 -0.2938  0.0347
 6667W        W23514   4.579  11.440   9.308  0.0089 -0.3074  0.0474
 6668W        W23515  14.740   0.287   2.407 -0.0001  0.2459 -0.1505
 6669W        W23516  13.029   5.926   4.091 -0.0513 -0.0557 -0.3480
 6670W        W23517  17.805  14.365   0.378 -0.1431  0.1788 -0.0590
 6671W        W23518   3.859   8.826   1.691 -0.0179 -0.1906 -0.2347
 6672W        W23519   1.378   5.768   2.048  0.1898 -0.0887 -0.3428
 6673W        W23520  18.837  13.578   1.571  0.0278 -0.0675 -0.0319
 6674W        W23521  16.531   9.770  11.401  0.5285 -0.1512 -0.4351
 6675W        W23522   1.186  14.725  12.219  0.1431  0.0183 -0.0047
 6676W        W23523   4.655   4.769  12.868  0.0856  0.2220 -0.1734
 6677W        W23524   5.023   2.888   4.596 -0.2315  0.2385 -0.0632
 6678W        W23525  12.873   8.164   9.340  0.2142  0.1597  0.0382
 6679W        W23526  13.525   1.471   0.025  0.2189  0.0931  0.3312
 6680W        W23527   6.820   5.827   3.442  0.2501  0.2283 -0.0309
 6681W        W23528  12.591   1.173  12.916  0.0194 -0.0390 -0.4698
 6682W        W23529   1.050   5.371  12.688 -0.0059 -0.1634  0.1446
 6683W        W23530  11.191   7.939   3.227 -0.0395 -0.1694 -0.2174
 6684W        W23531  15.067   1.271  13.275  0.0183 -0.1755 -0.2064
 6685W        W23532   6.096   2.289  13.514  0.0525  0.3060  0.2173
 6686W        W23533   0.565  12.951   0.894  0.1097 -0.3219 -0.1329
 6687W        W23534  11.469  17.808   3.392  0.1365  0.1161  0.2059
 6688W        W23535  13.161   7.157  10.860  0.1083  0.3096 -0.1217
 6689W        W23536   4.309  10.084   3.791 -0.0649  0.2092 -0.0711
 6690W        W23537  14.026   5.857  11.671  0.3627 -0.0256  0.2219
 6691W        W23538  19.693  17.414   2.113 -0.1862  0.0993 -0.3533
 6692W        W23539   7.258   1.799   2.543 -0.3299 -0.2434 -0.2379
 6693W        W23540  16.244   8.097  10.484 -0.1972 -0.1250  0.1784
 6694W        W23541  19.344  12.167   2.788  0.2985  0.0672  0.3023
 6695W        W23542  12.832   7.851  11.876  0.3820 -0.1622  0.2697
 6696W        W23543  13.811   9.545  12.629  0.0888 -0.0620  0.0506
 6697W        W23544  19.913   0.648   1.676  0.3267 -0.4797  0.1619
 6698W        W23545  13.218   2.797   9.641 -0.0365  0.2716 -0.2185
 6699W        W23546   0.418   5.292   3.712  0.3061 -0.0034  0.0996
 6700W        W23547   8.993  16.501   1.553  0.0901  0.2145  0.1026
 6701W        W23548  19.532  19.408  13.161  0.1134  0.0603  0.1683
 6702W        W23549  13.538  16.847  12.927 -0.1487 -0.1808 -0.2508
 6703W        W23550   2.490  11.587  14.241 -0.0384 -0.0285 -0.2653
 6704W        W23551   6.386   8.891   3.866  0.0831 -0.0625  0.1928
 6705W        W23552  18.175   7.794   1.495  0.0911 -0.2892  0.2520
 6706W        W23553  14.524   8.883   0.910  0.1031 -0.0460 -0.1958
 6707W        W23554   8.710  10.597  11.591 -0.0968 -0.0558  0.4010
 6708W        W23555  13.979  14.059   3.973 -0.3207 -0.0751  0.1408
 6709W        W23556   8.386  19.715  12.486 -0.1130  0.0997 -0.2823
 6710W        W23557   2.806  12.308   3.565  0.0310 -0.0761  0.0386
 6711W        W23558  11.925  10.660   9.988  0.2582  0.2012  0.0910
 6712W        W23559  10.491  16.072  12.643 -0.2383 -0.2451  0.0127
 6713W        W23560  12.820   1.405  13.878  0.0329  0.1500 -0.3524
 6714W        W23561  17.221  19.465   3.620 -0.2559 -0.1324  0.0844
 6715W        W23562   9.726   2.905  13.422 -0.0215 -0.0283  0.0508
 6716W        W23563  12.375   0.164   1.723  0.2773 -0.0193 -0.0081
 6717W        W23564   2.603  13.925   5.321  0.0643 -0.2457  0.2031
 6718W        W23565   4.407  19.444  13.721 -0.5113 -0.4203  0.3863
 6719W        W23566   0.647   9.561   1.728 -0.0513 -0.0304 -0.0522
 6720W        W23567  13.518  17.510   2.834  0.0143 -0.0792 -0.1148
 6721W        W23568   9.251  13.908  12.333  0.3624 -0.2844  0.0031
 6722W        W23569   2.709  12.845  11.788 -0.0896 -0.3306  0.1030
 6723W        W23570   0.269  18.892   2.264 -0.1195 -0.3391 -0.1421
 6724W        W23571  15.688   6.136   3.034  0.1074 -0.2822 -0.0342
 6725W        W23572  19.072   7.118   0.210 -0.1540  0.0005 -0.0593
 6726W        W23573   7.376   9.701   2.665  0.0856 -0.0325  0.1017
 6727W        W23574   6.625   7.676   5.059  0.0516  0.1284 -0.3284
 6728W        W23575  16.590  10.723  13.605  0.3185 -0.0966  0.1004
 6729W        W23576   5.749  11.064   2.831 -0.0733 -0.0234 -0.1343
 6730W        W23577   5.919   9.175   0.361  0.0537  0.0236 -0.0507
 6731W        W23578   8.135  14.575  13.168  0.2670  0.0672  0.0121
 6732W        W23579   5.313  12.916  13.822 -0.0539  0.2056 -0.0395
 6733W        W23580   0.707   0.711  10.436  0.0651 -0.1223 -0.0446
 6734W        W23581  11.428   0.046   0.300  0.1531 -0.0174 -0.0964
 6735W        W23582   5.966   6.669   9.045  0.1314 -0.4422  0.0322
 6736W        W23583  18.269  17.518  10.352 -0.2153 -0.2652 -0.0055
 6737W        W23584  16.203   0.191  10.737  0.0002 -0.0003 -0.1478
 6738W        W23585   1.446  17.161  12.430 -0.2940 -0.1987 -0.3125
 6739W        W23586  15.959  15.052  11.682  0.1351 -0.1569 -0.0189
 6740W        W23587  16.291   8.551  14.119 -0.0648  0.3206 -0.2317
 6741W        W23588   1.991   3.307  13.187 -0.0965  0.2135 -0.2828
 6742W        W23589  10.793  16.501  12.776  0.1213  0.3283 -0.0388
 6743W        W23590  17.561   0.069  11.428  0.2103  0.1306 -0.1650
 6744W        W23591   1.811  12.301   4.376 -0.4639  0.1833 -0.0250
 6745W        W23592   7.731  17.675  10.150  0.0145 -0.1740  0.0519
 6746W        W23593   1.494  17.032   2.718 -0.0514 -0.2510  0.1561
 6747W        W23594   8.793  15.069   1.915  0.1748 -0.1856  0.0192
 6748W        W23595   9.468  10.722  12.755  0.0396 -0.1391  0.1573
 6749W        W23596  16.392  14.584   3.143 -0.2248  0.0977  0.1667
 6750W        W23597  15.701   8.525  11.258  0.0294  0.2736 -0.1084
 6751W        W23598   5.536  11.872   2.260  0.0893 -0.0349  0.3749
 6752W        W23599   3.532   4.967   1.120  0.1373  0.0316  0.0427
 6753W        W23600  14.006   6.223  12.851  0.0310 -0.1528 -0.3722
 6754W        W23601  19.684   1.397  11.162  0.0810  0.1564 -0.0264
 6755W        W23602  16.194   5.365  13.411 -0.2106 -0.1243  0.1094
 6756W        W23603  19.242   9.563   1.270 -0.0206  0.1502 -0.3836
 6757W        W23604   8.728  17.800  11.250  0.3771  0.0721 -0.1393
 6758W        W23605  11.441   8.694   0.217  0.0966 -0.0384 -0.1028
 6759W        W23606  14.108   3.566   4.639 -0.4047  0.1021 -0.2753
 6760W        W23607   4.320   7.924   0.989 -0.1452 -0.3744 -0.0169
 6761W        W23608  13.145  12.700   0.283 -0.1409 -0.1283  0.4779
 6762W        W23609  10.760  13.792  11.054 -0.1500  0.0676  0.1021
 6763W        W23610  11.580  15.681   3.276 -0.0991  0.3134 -0.0098
 6764W        W23611  10.103  14.103   2.423 -0.2833 -0.1020 -0.3264
 6765W        W23612   1.030  18.447   3.206  0.4094  0.3060 -0.2442
 6766W        W23613   5.162  19.080   9.715  0.0250 -0.5819 -0.3463
 6767W        W23614  16.595   3.280   2.270  0.1102 -0.0841 -0.0112
 6768W        W23615   9.282   1.666   0.732  0.0474  0.0025  0.0975
 6769W        W23616   4.490  16.977  13.210 -0.2475 -0.2917  0.2161
 6770W        W23617  18.811   6.210   1.074 -0.1276 -0.0737  0.1486
 6771W        W23618  18.731   2.294  12.845 -0.1879  0.0033 -0.0541
 6772W        W23619  10.413  17.749   0.522 -0.1117 -0.1166 -0.1936
 6773W        W23620   9.004   8.685  10.906  0.0794  0.2283  0.2133
 6774W        W23621   0.591   5.073   2.238 -0.1167  0.0536  0.2282
 6775W        W23622  14.957   1.029  11.936  0.0097 -0.2072 -0.3446
 6776W        W23623  11.881   3.980   1.406 -0.3364 -0.3493  0.1401
 6777W        W23624   1.141   5.714   0.598  0.2948 -0.0873  0.0194
 6778W        W23625  11.691   5.348  12.978  0.1217  0.1425 -0.0618
 6779W        W23626  12.235  18.437  10.160 -0.2333 -0.1689  0.0648
 6780W        W23627  12.158  18.090   4.574 -0.1531  0.0747 -0.3807
 6781W        W23628   7.798   7.274  13.946 -0.3606  0.1922 -0.4277
 6782W        W23629   0.205   0.186   0.866  0.3138 -0.1133  0.0829
 6783W        W23630  16.874   4.348   3.129  0.0245  0.2111  0.2868
 6784W        W23631  18.040  13.615  11.758 -0.1775  0.0409  0.1273
 6785W        W23632   3.865   1.196   1.957 -0.3356  0.2493  0.1803
 6786W        W23633  15.556   2.323   3.938 -0.2256  0.0783  0.0697
 6787W        W23634   0.119  15.751  11.634  0.0199  0.1278  0.1978
 6788W        W23635   7.588  12.816  13.307 -0.0686  0.3967  0.2358
 6789W        W23636   8.942   1.232  11.226 -0.0314 -0.0668 -0.1377
 6790W        W23637   1.221  18.800  10.693  0.0075 -0.2374  0.0632
 6791W        W23638   2.759  15.619   1.645  0.0317  0.2962  0.1289
 6792W        W23639   3.326  18.036  12.295 -0.1585 -0.0444 -0.1940
 6793W        W23640   6.184  11.044   0.152  0.2136 -0.5003  0.0755
 6794W        W23641  13.903   7.823   3.289  0.0549 -0.2419 -0.0301
 6795W        W23642   6.156  15.228   8.830  0.0170 -0.0695  0.2619
 6796W        W23643   3.794  19.825   9.993 -0.0633 -0.0691  0.0219
 6797W        W23644  14.926  12.074   4.143 -0.3259  0.0556  0.1881
 6798W        W23645  18.132   5.269   3.844 -0.0225 -0.1033 -0.0309
 6799W        W23646  19.651   3.770  11.742 -0.1839  0.0417  0.2069
 6800W        W23647  19.288   8.890  10.396  0.2809 -0.1854 -0.0929
 6801W        W23648   9.123   5.549  11.014  0.0199  0.2584 -0.0844
 6802W        W23649  19.488   0.540   3.574  0.3181 -0.1058 -0.2533
 6803W        W23650  15.516   2.762  13.701 -0.1627 -0.1178 -0.1927
 6804W        W23651   2.437   4.630   2.506 -0.0585  0.1011  0.1515
 6805W        W23652  13.639   3.410  13.601  0.2425 -0.1424 -0.1600
 6806W        W23653  10.027  16.825   0.333 -0.1473  0.1642 -0.4857
 6807W        W23654  13.118  19.164   4.175 -0.1482 -0.1742 -0.1494
 6808W        W23655  12.794  19.479   2.281 -0.2877  0.1171 -0.2398
 6809W        W23656   6.675   2.237  12.642 -0.0300 -0.1074  0.0675
 6810W        W23657   1.804   2.703  13.044  0.3559 -0.1779  0.0853
 6811W        W23658   1.764  10.304  13.372  0.0433 -0.0035  0.6179
 6812W        W23659  11.326   5.085   4.698 -0.0543  0.0076 -0.2064
 6813W        W23660   2.960  14.610  12.095 -0.0324  0.1993  0.2249
 6814W        W23661   8.468  14.750  11.091  0.0456 -0.2650  0.2168
 6815W        W23662   5.739   7.034   3.572  0.1003  0.0051 -0.2443
 6816W        W23663  17.563   1.879  13.068  0.1655 -0.0888 -0.1489
 6817W        W23664  17.479  14.003   4.854 -0.1417 -0.0457  0.1924
 6818W        W23665  10.697   2.354  12.947 -0.2577 -0.1036  0.1582
 6819W        W23666  12.227  18.196   9.643  0.3358 -0.0125 -0.0202
 6820W        W23667  18.781   8.024   4.527  0.1406  0.3004  0.0130
 6821W        W23668   4.922  10.937   3.075 -0.1492 -0.1803  0.3074
 6822W        W23669  17.032  12.838  13.836  0.0105  0.1214  0.2383
 6823W        W23670   3.318  14.383   1.323 -0.1924 -0.1661 -0.0076
 6824W        W23671  16.831  17.754  13.012  0.0373  0.0672 -0.1576
 6825W        W23672   2.580   4.112   3.618 -0.0511 -0.0622 -0.0577
 6826W        W23673   3.949   1.903  11.122 -0.2127  0.0741  0.0693
 6827W        W23674   1.597  17.580   3.621 -0.3138  0.0664 -0.2263
 6828W        W23675   8.007   0.817  11.597 -0.1771  0.0343 -0.0408
 6829W        W23676  14.824  18.167   1.999  0.1450 -0.1745 -0.2142
 6830W        W23677  19.204   5.044   0.650  0.2076 -0.2567  0.2258
 6831W        W23678   0.550  14.578   2.565  0.0949  0.1887 -0.0572
 6832W        W23679   0.049   8.019   1.019 -0.0012 -0.0841  0.3467
 6833W        W23680  10.078   0.267   5.221  0.0381  0.2834 -0.0645
 6834W        W23681  13.628  10.022   1.239 -0.2386  0.1058 -0.2337
 6835W        W23682   4.835  14.598  11.377  0.6514  0.0410 -0.1157
 6836W        W23683   9.512   0.874  11.032 -0.0833 -0.3045  0.3428
 6837W        W23684   9.090   6.351   2.240 -0.1445 -0.0604  0.1739
 6838W        W23685  14.949  11.892  12.271 -0.2789 -0.1141 -0.3751
 6839W        W23686   7.957   1.367   2.274 -0.1603 -0.2326  0.0086
 6840W        W23687   4.064  19.347   2.102 -0.4191 -0.4338  0.0969
 6841W        W23688  11.471   6.678   2.993 -0.0350  0.4535 -0.0594
 6842W        W23689  16.914   3.157   4.062 -0.0400 -0.0520 -0.0153
 6843W        W23690  10.036   4.137   4.360  0.0164 -0.1025 -0.0129
 6844W        W23691  13.215  13.622   9.822  0.1232  0.1616 -0.0495
 6845W        W23692   2.900  14.682  13.831 -0.0341 -0.0554 -0.0728
 6846W        W23693   0.642  16.060  12.434  0.1289 -0.1423 -0.1203
 6847W        W23694  10.733  17.994  11.330  0.1151 -0.0155 -0.0243
 6848W        W23695   1.463  12.110  10.017 -0.0218  0.3140 -0.1570
 6849W        W23696   9.101   8.259  10.346 -0.1946  0.1687 -0.1263
 6850W        W23697   1.989  15.641   4.076  0.0879  0.1406 -0.3165
 6851W        W23698  10.683  10.248   1.070  0.0469 -0.1263 -0.5808
 6852W        W23699  14.254  11.355   4.812 -0.2102 -0.0391  0.0217
 6853W        W23700   9.946  15.720   9.969  0.0090  0.3005  0.1082
 6854W        W23701   7.426  18.230   4.058 -0.1763  0.1144 -0.1946
 6855W        W23702  14.696  19.568   2.283  0.0973  0.4425  0.3783
 6856W        W23703   9.220   9.272   9.462 -0.3041  0.1191 -0.1569
 6857W        W23704   2.593   6.128   4.514 -0.3698 -0.2276 -0.1337
 6858W        W23705  17.590  12.643   0.567 -0.1928  0.0057 -0.0143
 6859W        W23706  14.604   2.718   1.938 -0.1174  0.0168  0.3751
 6860W        W23707   0.505  18.863   4.015  0.0389  0.1490  0.1361
 6861W        W23708   5.358   8.448   0.479  0.2480  0.1476 -0.4492
 6862W        W23709  13.688  19.728   2.426  0.4999  0.0159 -0.1808
 6863W        W23710  17.630  11.101   0.441  0.0202  0.0693 -0.0209
 6864W        W23711   9.751   8.716   2.503  0.1312 -0.0343 -0.0643
 6865W        W23712  14.743   5.887  10.538 -0.0689 -0.0696  0.0179
 6866W        W23713  13.624   0.631  13.111  0.0815  0.1547 -0.1053
 6867W        W23714  17.439   2.334   3.201 -0.2173  0.3264  0.0323
 6868W        W23715  17.871  10.796  13.245  0.0375 -0.2422  0.2053
 6869W        W23716   9.237   6.645  11.098 -0.1722  0.0269  0.0062
 6870W        W23717  10.590  14.689   2.331  0.0068 -0.1049 -0.0042
 6871W        W23718  10.572  19.206  12.705 -0.0284 -0.1709  0.1963
 6872W        W23719  15.326   6.362  13.188  0.5494 -0.2967  0.0394
 6873W        W23720   3.817   6.363  11.442 -0.1530  0.0556 -0.1113
 6874W        W23721   0.276  14.480  12.046  0.0996 -0.1671 -0.0942
 6875W        W23722  17.231  16.176  10.934  0.2724  0.0302 -0.3146
 6876W        W23723  12.808   3.454   3.262 -0.1940 -0.4140 -0.2502
 6877W        W23724  15.438  11.183  11.815  0.0846  0.0190  0.0501
 6878W        W23725   1.756  16.530   2.308 -0.0321  0.1393  0.0109
 6879W        W23726  12.408   3.221   1.406 -0.2153 -0.2091 -0.0356
 6880W        W23727  19.877   1.567   1.356 -0.1778  0.1921  0.1988
 6881W        W23728   9.746   1.638   0.394  0.0552 -0.0029  0.2906
 6882W        W23729   9.217   8.597  13.356 -0.4448  0.4171 -0.1551
 6883W        W23730   0.729  15.075  11.325 -0.2419 -0.0584  0.1445
 6884W        W23731   5.870   8.063   2.282  0.2428  0.1284 -0.2276
 6885W        W23732  11.915   2.009  13.046 -0.0082  0.0555  0.1777
 6886W        W23733  12.924  10.718   3.723  0.1651 -0.0815  0.0309
 6887W        W23734   6.342  16.630   4.375 -0.0145 -0.0888  0.0027
 6888W        W23735  15.935  15.021   9.876 -0.3309 -0.0602 -0.3046
 6889W        W23736  10.456  16.451   0.332 -0.2090 -0.1325 -0.2174
 6890W        W23737   0.692   0.629   2.793  0.2603 -0.1537 -0.1335
 6891W        W23738   3.595   0.722   1.997 -0.1497 -0.3774  0.1069
 6892W        W23739   8.533  13.579   3.282 -0.0113  0.1806 -0.1805
 6893W        W23740   6.490   9.646   3.394 -0.0143  0.2255  0.0157
 6894W        W23741   4.828   1.492   3.886 -0.0362 -0.1082 -0.0055
 6895W        W23742   9.486  16.701   0.656 -0.4308  0.0895  0.1137
 6896W        W23743   5.246  19.748   2.930  0.0040 -0.0190  0.2405
 6897W        W23744   4.444   1.713   1.374 -0.2041  0.2598  0.2094
 6898W        W23745   5.756   2.871  13.806 -0.2111 -0.0398 -0.1833
 6899W        W23746  15.783   8.464   0.259 -0.3082 -0.2397  0.1020
 6900W        W23747   2.680  13.874   4.687 -0.0267  0.0439  0.1214
 6901W        W23748   9.084  18.187   4.942 -0.0106  0.1278  0.0699
 6902W        W23749   0.942   4.670   1.227  0.1874  0.2390  0.1067
 6903W        W23750   7.503  13.306   2.934 -0.1626  0.1142 -0.2693
 6904W        W23751   9.640  11.399   3.325 -0.4873  0.1846 -0.2527
 6905W        W23752  15.127  15.041  10.566  0.0840  0.0297 -0.4841
 6906W        W23753   5.730  11.440   2.055  0.5015  0.0411 -0.2753
 6907W        W23754   8.615  10.601  12.042 -0.1305  0.2032  0.0376
 6908W        W23755  17.935  19.438   0.301 -0.4165 -0.1769 -0.1802
 6909W        W23756  14.633  18.603   0.599 -0.2158 -0.1590 -0.3106
 6910W        W23757   2.992   6.572   1.826 -0.0133 -0.2221 -0.0748
 6911W        W23758   1.446   8.599  13.247  0.0728 -0.0544  0.2676
 6912W        W23759  16.434  11.768  12.639  0.0837  0.1681 -0.0728
 6913W        W23760   4.032   1.736   9.592  0.0856  0.0661  0.1372
 6914W        W23761  13.429   1.069   3.766 -0.3858  0.2144 -0.3265
 6915W        W23762   8.052  18.020   0.171 -0.0274 -0.0606  0.4047
 6916W        W23763  17.875   5.574   1.928 -0.2028  0.0354  0.0638
 6917W        W23764   0.195  14.200  13.362 -0.1330 -0.3445  0.0798
 6918W        W23765   0.332  16.303   1.334 -0.0581 -0.2015  0.0552
 6919W        W23766   1.028  17.464   0.525 -0.3321 -0.4039  0.3220
 6920W        W23767  13.432  19.022   3.623  0.1559  0.1774 -0.0634
 6921W        W23768   7.533  13.685   0.214  0.0236 -0.1053  0.0637
 6922W        W23769   1.554   7.264   4.527  0.0900  0.1269 -0.1580
 6923W        W23770  14.724  15.132   3.106  0.0703  0.3734 -0.1922
 6924W        W23771   1.075   1.390  12.332 -0.2648 -0.2401 -0.0404
 6925W        W23772   2.607  11.334  11.008 -0.1157  0.0260  0.1431
 6926W        W23773  18.328  19.162   0.620  0.2177 -0.0605  0.0183
 6927W        W23774  18.455  15.789  10.436  0.2036 -0.0186  0.1735
 6928W        W23775  17.151  15.311  13.412  0.1030  0.0424  0.1161
 6929W        W23776  17.645  13.105   4.700  0.0142 -0.2139  0.1070
 6930W        W23777   5.136  13.532  10.644 -0.0194  0.0576 -0.3052
 6931W        W23778  11.309  10.730   3.586  0.0248  0.3192 -0.1613
 6932W        W23779   4.569  16.226   1.284 -0.0178  0.2393 -0.0238
 6933W        W23780   8.919   0.314  10.260  0.0602  0.0122 -0.4458
 6934W        W23781   6.448  12.573  14.115 -0.0263  0.1487 -0.0055
 6935W        W23782   6.493   8.340   1.252  0.0392  0.0423 -0.0181
 6936W        W23783  19.651   0.367  11.705 -0.2074  0.0868  0.0062
 6937W        W23784  16.032  18.907   0.084  0.2132  0.3192 -0.0933
 6938W        W23785   1.998   5.525  10.739  0.1606  0.1250 -0.0615
 6939W        W23786  14.343  18.413  10.773 -0.1769 -0.0819  0.0535
 6940W        W23787   5.937  19.232  11.824 -0.0777 -0.0954 -0.0030
 6941W        W23788   1.364  14.534   2.219 -0.0771 -0.1696  0.0550
 6942W        W23789  17.208  13.388  11.568 -0.2362 -0.1162 -0.1121
 6943W        W23790   6.532  13.377   0.049  0.1006  0.0927 -0.2047
 6944W        W23791  12.463   9.362  13.619 -0.0262 -0.1672  0.0017
 6945W        W23792   7.166   9.467   2.292 -0.1317 -0.1527 -0.0114
 6946W        W23793   7.685   5.489  11.181  0.0170  0.2001 -0.2141
 6947W        W23794   5.436  13.859  11.847 -0.1065 -0.3579  0.2116
 6948W        W23795   1.540   0.312   9.463 -0.0654 -0.0283  0.2780
 6949W        W23796   8.381  14.321   1.259 -0.2547  0.0100  0.1261
 6950W        W23797  18.643   4.968  11.642 -0.0483 -0.0776  0.1276
 6951W        W23798  12.454   7.814   2.982 -0.1526 -0.1926 -0.2425
 6952W        W23799   2.723  13.094   9.015 -0.0549  0.5425 -0.1662
 6953W        W23800   0.528   7.312   9.931 -0.0019  0.1916  0.0910
 6954W        W23801   2.105   0.685   0.446  0.2554 -0.0582  0.2694
 6955W        W23802  15.490  12.281   1.692 -0.4704 -0.0662 -0.2236
 6956W        W23803  18.834  12.807   3.296 -0.1648 -0.0374  0.3524
 6957W        W23804   8.615  10.408  14.194 -0.0785  0.0390 -0.2847
 6958W        W23805  13.971  11.817   4.057  0.1447  0.0980 -0.0301
 6959W        W23806   2.342   0.235  13.231  0.1550  0.0127 -0.1713
 6960W        W23807  17.259  14.269   2.584 -0.1757 -0.3176  0.1576
 6961W        W23808  15.168   4.637  10.592 -0.2069  0.0501  0.1421
 6962W        W23809   7.298  14.915  13.144  0.2464 -0.0575 -0.1877
 6963W        W23810  12.423  18.495   2.256  0.1776 -0.0074 -0.0243
 6964W        W23811  11.179   3.488   3.951  0.0821  0.2882  0.0386
 6965W        W23812  15.565  10.284   4.277  0.0316 -0.0012  0.1215
 6966W        W23813   5.952  15.444  12.683 -0.0573 -0.1522 -0.4424
 6967W        W23814   2.704  16.574   4.202 -0.0959  0.1887  0.0183
 6968W        W23815   8.402   0.129   5.068  0.0780 -0.0904 -0.0590
 6969W        W23816  19.899   9.444   0.628  0.1181 -0.0659 -0.1697
 6970W        W23817  12.770   0.728  13.674  0.1714 -0.2812 -0.0416
 6971W        W23818   6.580  19.136   4.086  0.2526  0.2326  0.0524
 6972W        W23819  16.888   9.909  10.968 -0.0245 -0.2443  0.4603
 6973W        W23820  11.418  14.951   0.770  0.2306  0.0243  0.0113
 6974W        W23821  14.838   9.111   4.004  0.2193 -0.1003  0.0868
 6975W        W23822  11.503   5.319   3.124 -0.0887 -0.1794 -0.0442
 6976W        W23823   6.140  11.704   4.166 -0.0059 -0.2890 -0.2728
 6977W        W23824  16.073  16.836  10.680  0.0666 -0.0632 -0.0728
 6978W        W23825   8.370  15.711   3.552  0.1023  0.2010  0.0724
 6979W        W23826  14.053   1.064  11.115  0.1420 -0.1664 -0.0277
 6980W        W23827   5.176  15.044   4.082 -0.0799  0.3577 -0.3380
 6981W        W23828  18.213   1.391  11.373  0.1011 -0.2655 -0.2314
 6982W        W23829   7.130  11.554  11.205  0.0744 -0.2411 -0.1581
 6983W        W23830  19.572   9.739   4.446  0.0032  0.1034  0.1161
 6984W        W23831  19.006  13.482   0.057 -0.0512  0.1774 -0.2582
 6985W        W23832  19.358  17.290  10.688  0.1482 -0.2542  0.1733
 6986W        W23833   1.063  13.668   4.237 -0.1299 -0.1923 -0.3224
 6987W        W23834  10.542  17.059  12.115  0.1397 -0.1480 -0.0259
 6988W        W23835  14.609  17.586  11.028 -0.1204  0.0278  0.0600
 6989W        W23836  17.421   9.797   2.853  0.1642 -0.2055  0.0009
 6990W        W23837   4.231  19.861  10.293 -0.2164  0.3225  0.0797
 6991W        W23838   9.853   1.912  12.999  0.3277 -0.0758 -0.2435
 6992W        W23839   8.163  11.594   1.957 -0.0360  0.1352  0.2662
 6993W        W23840   7.581   1.950   9.964 -0.1270  0.0215 -0.0520
 6994W        W23841   1.202  19.903  11.386 -0.1782  0.1938  0.2040
 6995W        W23842   0.836   8.621  11.267 -0.4477 -0.1135  0.0215
 6996W        W23843   9.081  13.174  14.073 -0.0184  0.3062 -0.0377
 6997W        W23844   4.060  13.287  10.422 -0.0061  0.0973  0.0608
 6998W        W23845  14.390  13.897  14.304 -0.4709  0.2979  0.0419
 6999W        W23846   3.132  18.903   2.066 -0.0844 -0.0789  0.2379
 7000W        W23847  11.059  13.373   0.355 -0.0551  0.0549 -0.2051
 7001W        W23848   5.536   5.803  11.689  0.1354  0.0870  0.5327
 7002W        W23849  10.457  18.372   3.976 -0.1153  0.0908 -0.0158
 7003W        W23850  18.873   9.688   2.011 -0.1510  0.0193  0.2313
 7004W        W23851  12.083   1.204  12.797 -0.1013 -0.0312  0.3416
 7005W        W23852   4.056  12.353   0.372  0.4412  0.1347  0.0156
 7006W        W23853  16.529   1.163   9.693  0.0949 -0.2378  0.0697
 7007W        W23854   6.957   7.294  14.018 -0.1510  0.3495  0.2153
 7008W        W23855   8.444   5.653  13.826 -0.1970  0.0548  0.0582
 7009W        W23856  15.677  10.645   4.633 -0.2058  0.0994 -0.2075
 7010W        W23857  14.751  10.493  12.501  0.0591  0.0094  0.1428
 7011W        W23858   1.656   8.381   9.715 -0.2423 -0.0972 -0.3316
 7012W        W23859   9.084   4.214   3.132  0.0526 -0.0628 -0.3775
 7013W        W23860   1.120   1.573  11.744  0.2114  0.0867 -0.3107
 7014W        W23861  18.966  14.261  12.523 -0.2052  0.0135 -0.1389
 7015W        W23862   5.555   9.184   1.094  0.2774 -0.0736 -0.1614
 7016W        W23863  16.644   1.990   2.092 -0.1197  0.1654  0.1290
 7017W        W23864  12.664  10.268   2.104  0.1938  0.3502  0.2832
 7018W        W23865   3.230  19.792  12.065 -0.1154 -0.1618  0.2009
 7019W        W23866  17.686  14.207   2.872 -0.0277  0.1186 -0.4222
 7020W        W23867  15.040  18.231  13.257  0.4704 -0.0587  0.0689
 7021W        W23868  17.656   0.823   2.256  0.0084 -0.1729 -0.0550
 7022W        W23869  17.878  19.742   4.747  0.0011 -0.0939  0.1451
 7023W        W23870   3.223   9.073  11.662 -0.0575  0.4792 -0.0851
 7024W        W23871  16.409  19.919   4.643 -0.0294 -0.4321 -0.1483
 7025W        W23872  10.737   2.314   2.291 -0.1971  0.0489 -0.0909
 7026W        W23873  11.658   5.707   0.461  0.2153 -0.0597  0.0563
 7027W        W23874   3.068   1.846  13.595  0.2814  0.0383 -0.1317
 7028W        W23875   8.637  11.750  13.538  0.2031  0.2785 -0.1471
 7029W        W23876  17.350  18.799   0.298 -0.0753 -0.0081  0.2167
 7030W        W23877   2.680  17.151   9.850  0.0764  0.1293  0.1336
 7031W        W23878   6.294   6.473   0.038 -0.3935 -0.0647 -0.1371
 7032W        W23879   7.712  14.093  12.185  0.2237 -0.2348 -0.0241
 7033W        W23880  13.665  10.353   4.141 -0.0843 -0.2305 -0.2814
 7034W        W23881   8.672   8.954  11.666  0.0410  0.0646  0.0963
 7035W        W23882  11.834   6.278   3.202 -0.0538  0.1638 -0.1948
 7036W        W23883  10.772   9.730   0.086  0.0777  0.2664  0.1928
 7037W        W23884   5.198  18.539   1.131  0.2693  0.1778 -0.0968
 7038W        W23885   2.293   6.990   0.382 -0.0611 -0.1250 -0.2725
 7039W        W23886   9.647   8.715  13.112  0.0148 -0.0240  0.3093
 7040W        W23887  15.718   4.038   4.789 -0.0653  0.3631 -0.0118
 7041W        W23888   2.367  18.204  10.155  0.1658  0.0465  0.0346
 7042W        W23889   9.917   7.537   1.033  0.1191  0.0952  0.0035
 7043W        W23890  11.740   7.081  12.309 -0.2028 -0.3206  0.0521
 7044W        W23891   5.630  18.950   9.913  0.2549 -0.3009  0.0083
 7045W        W23892  11.592  16.117  12.442 -0.0072 -0.0822  0.4753
 7046W        W23893  16.095  18.055   1.303  0.1556 -0.0719  0.1153
 7047W        W23894  16.550   6.351   2.731  0.2099 -0.1330  0.0102
 7048W        W23895   2.563   1.344   2.785  0.0103  0.0047  0.0983
 7049W        W23896   6.877   0.675   4.295 -0.0582  0.0352  0.3274
 7050W        W23897   0.915   4.914  12.633 -0.2033  0.2334 -0.1020
 7051W        W23898  10.366  12.374   3.174  0.2340 -0.0007 -0.0144
 7052W        W23899  17.009  12.494   4.145 -0.2904  0.3107  0.0840
 7053W        W23900   5.143  16.088   3.610  0.0832  0.0283 -0.3628
 7054W        W23901   4.555   8.004  11.400 -0.0445 -0.1243  0.0747
 7055W        W23902  13.100   6.498  13.178  0.2003 -0.2085 -0.1203
 7056W        W23903  19.075   5.511  12.646  0.1393  0.1660 -0.5626
 7057W        W23904  10.619   5.690   4.036 -0.0525  0.0389  0.2898
 7058W        W23905  18.183   7.190  14.213  0.2904  0.0581 -0.0662
 7059W        W23906   4.249   0.925   0.528  0.1758  0.1345 -0.0472
 7060W        W23907   9.337   1.319   3.024  0.2847 -0.0609 -0.2094
 7061W        W23908   7.524   8.346  12.948  0.2206 -0.3128  0.1372
 7062W        W23909  12.454  11.751  13.773  0.1252  0.2290 -0.0766
 7063W        W23910   4.009  17.820  10.441  0.1825 -0.0293 -0.1261
 7064W        W23911   6.141   6.077   4.443  0.2868 -0.0013  0.1968
 7065W        W23912  15.752   2.459   0.248  0.1695  0.2915 -0.1329
 7066W        W23913   8.853  18.461  10.230 -0.4047  0.3653 -0.1117
 7067W        W23914  13.566  14.261  12.822  0.2921 -0.1397 -0.1218
 7068W        W23915   8.407  14.947  11.531  0.1293 -0.1703 -0.2297
 7069W        W23916   1.254   5.020  11.719  0.2603 -0.2549  0.3153
 7070W        W23917  10.726   9.452  10.471 -0.1326  0.0644 -0.2084
 7071W        W23918  10.159   1.506  11.521  0.1852  0.0828  0.3856
 7072W        W23919   1.166   3.012   2.071 -0.0300 -0.0114 -0.0653
 7073W        W23920   9.025   2.292  13.302 -0.0111  0.1770  0.0620
 7074W        W23921  18.236   4.513   0.438 -0.5068  0.0306  0.1873
 7075W        W23922   1.875  11.587   0.669  0.2692  0.2280  0.2351
 7076W        W23923   3.907  13.442   3.474 -0.0524  0.1366 -0.1214
 7077W        W23924  16.622  17.232  11.832 -0.3821 -0.0907 -0.1737
 7078W        W23925  18.374  18.914   2.397  0.0156  0.0531 -0.1250
 7079W        W23926  12.644   4.043  11.156  0.0633  0.0455  0.2659
 7080W        W23927  14.687   6.354  10.422 -0.2474 -0.0214  0.0987
 7081W        W23928  18.620  15.856  10.006 -0.0235  0.0297 -0.0609
 7082W        W23929   5.050  12.282  11.657 -0.1738 -0.2738  0.2228
 7083W        W23930   5.404  12.614   5.353 -0.3366  0.4026 -0.0427
 7084W        W23931  12.945   6.209   1.218  0.2321  0.4156  0.0674
 7085W        W23932  12.788  10.861  10.936  0.0785  0.0569  0.1649
 7086W        W23933  18.950   0.575   1.765 -0.4075 -0.0451 -0.0395
 7087W        W23934   7.400  13.733   3.628  0.0243  0.2901  0.3033
 7088W        W23935  15.045   5.489   5.565  0.0318  0.0828  0.1331
 7089W        W23936  18.774  17.278  10.566  0.1267 -0.4325 -0.1050
 7090W        W23937  12.109   4.061   0.326 -0.1991  0.0053 -0.1163
 7091W        W23938   9.163   9.266   3.161 -0.0204  0.0888  0.0611
 7092W        W23939  16.532   7.977   5.394  0.2454 -0.2329  0.3296
 7093W        W23940   8.165  10.193  14.053 -0.1053  0.0773  0.2681
 7094W        W23941  15.079  18.817   5.310  0.3231  0.1715 -0.0690
 7095W        W23942  12.319  15.812  10.342 -0.2166 -0.1873  0.5638
 7096W        W23943  10.187   4.438   0.162 -0.3541 -0.2073 -0.5890
 7097W        W23944   3.297   5.991   2.049 -0.3127  0.0107 -0.0238
 7098W        W23945  14.184   7.692  11.510  0.1713 -0.0795 -0.0779
 7099W        W23946   1.295   7.678  10.529  0.1160  0.3022 -0.0590
 7100W        W23947  14.636   0.997   4.004  0.1304  0.3171  0.2732
 7101W        W23948   6.264   5.830   2.738 -0.0652  0.0382  0.0382
 7102W        W23949   3.876  11.200   1.926  0.3165  0.2872  0.1975
 7103W        W23950   3.790   8.880  13.484  0.1764  0.2035  0.1800
 7104W        W23951  16.189   7.531   2.947  0.1546  0.0351  0.2437
 7105W        W23952   2.025   9.124  14.295 -0.1448  0.1881  0.1422
 7106W        W23953  10.871   1.919  12.998  0.1536  0.0857 -0.2168
 7107W        W23954   7.645   1.631   0.793  0.1579  0.1285 -0.2246
 7108W        W23955  13.771   9.464  10.222 -0.1673 -0.5315  0.1645
 7109W        W23956   8.712   3.059  12.015  0.1296  0.0130  0.0214
 7110W        W23957   5.167   6.347   4.480 -0.2250  0.4857 -0.1442
 7111W        W23958   0.506   9.110  10.287 -0.0543 -0.0495  0.0093
 7112W        W23959  15.599   5.621   4.721 -0.1412 -0.1849  0.0885
 7113W        W23960  11.512  19.667  10.291  0.2329 -0.0711 -0.1802
 7114W        W23961  12.089   7.824  14.035  0.1114 -0.2123 -0.0547
 7115W        W23962   5.885  12.935   0.389  0.0941 -0.1588  0.0428
 7116W        W23963   2.797  12.780   4.597  0.0391 -0.4675 -0.0380
 7117W        W23964   8.316   4.929   0.731  0.2635 -0.0065  0.1780
 7118W        W23965  15.742  19.244   2.883 -0.0449 -0.0919  0.2192
 7119W        W23966  12.897   3.518   0.649  0.1171  0.1194  0.2249
 7120W        W23967  12.240  10.734  11.210 -0.1065 -0.0454  0.0999
 7121W        W23968   8.550   0.817   3.627  0.1579  0.0289  0.2988
 7122W        W23969  17.174  14.373   3.725 -0.0516 -0.0886  0.1375
 7123W        W23970  12.298   8.199   1.515 -0.3389 -0.2979  0.0668
 7124W        W23971   4.517  16.427   2.682 -0.2353 -0.2144  0.1808
 7125W        W23972   7.352   1.103  10.370 -0.0868  0.0258 -0.3722
 7126W        W23973  12.699  14.110   0.641 -0.3909 -0.0537  0.3119
 7127W        W23974   5.486   3.916   2.255 -0.0860 -0.3155  0.1715
 7128W        W23975   4.740   6.150   0.412  0.0619  0.3013  0.4465
 7129W        W23976   6.380   0.903   1.380 -0.4423 -0.1143 -0.1796
 7130W        W23977   0.225  13.106   4.575 -0.1963 -0.2050 -0.0997
 7131W        W23978   0.556  15.735  13.851 -0.0054  0.0418 -0.2294
 7132W        W23979   0.258  17.626  11.299  0.1363  0.2396 -0.2127
 7133W        W23980  16.071  12.162  11.909 -0.0325  0.0528  0.2043
 7134W        W23981  18.280   7.013   2.219 -0.1399 -0.1427  0.0644
 7135W        W23982   7.106   7.167   9.913  0.0916  0.5969 -0.0356
 7136W        W23983   2.678   1.551  11.190  0.2783 -0.1905  0.1262
 7137W        W23984   5.837   8.432  12.914  0.1388 -0.3246  0.0607
 7138W        W23985   9.547  11.570   9.942  0.1040  0.0244  0.1351
 7139W        W23986  15.596  15.039   4.838 -0.0362  0.1804  0.0655
 7140W        W23987   1.822  15.884  12.837 -0.2491 -0.2147  0.2649
 7141W        W23988   5.383   6.757   0.182  0.3246  0.0517  0.3932
 7142W        W23989   1.445   0.721   3.625 -0.0195  0.2379 -0.0934
 7143W        W23990  15.907  19.280   3.846 -0.0250 -0.0604 -0.1492
 7144W        W23991   4.322   7.002   0.088  0.1600 -0.1986 -0.1836
 7145W        W23992   7.621  11.419  11.348  0.4241  0.1565  0.0539
 7146W        W23993   2.814  12.594  10.866  0.3355 -0.1313 -0.2717
 7147W        W23994  15.666  10.548  13.560 -0.0847 -0.1668  0.0037
 7148W        W23995  11.551   7.807   2.165  0.1008  0.1464 -0.0857
 7149W        W23996  10.613   2.221  13.457  0.0586 -0.1117  0.0410
 7150W        W23997   8.947   7.366  11.688  0.0555  0.1735  0.2751
 7151W        W23998  19.019   6.947  12.724 -0.3908  0.0190 -0.1197
 7152W        W23999   5.779   2.118  12.914  0.0902  0.2647 -0.0827
 7153W        W24000   2.541  10.946   3.082 -0.4988 -0.1315 -0.1593
 7154W        W24001   3.295   7.215   3.117  0.0952  0.0861  0.1018
 7155W        W24002  11.703  17.029   1.742 -0.0426 -0.1800  0.0850
 7156W        W24003  12.727   5.129   1.251  0.0305  0.0580 -0.5016
 7157W        W24004  15.657  18.427  12.889 -0.0882 -0.1316  0.0800
 7158W        W24005  12.358  17.724   0.176  0.1666 -0.0647 -0.4830
 7159W        W24006  12.730  16.766  11.237 -0.1546  0.0463 -0.2282
 7160W        W24007   1.099  15.699  10.080  0.1353  0.0433  0.2842
 7161W        W24008  10.591  10.379  13.050  0.1191  0.3733 -0.0157
 7162W        W24009  15.014   4.634  10.060 -0.3350 -0.0655  0.1953
 7163W        W24010  13.194   6.131   9.242 -0.0039  0.2244 -0.3291
 7164W        W24011  13.338  19.468   3.821 -0.0997  0.0672  0.1647
 7165W        W24012  18.525   5.724  12.304 -0.1525 -0.1642 -0.0322
 7166W        W24013  14.590  10.142   4.729 -0.2870 -0.3070  0.0273
 7167W        W24014   4.435  12.338  10.304  0.2471 -0.2132  0.3021
 7168W        W24015  11.663  13.804  13.380  0.1686 -0.2124  0.1949
 7169W        W24016  18.491  10.703  10.530  0.2197  0.0076 -0.0870
 7170W        W24017  16.748  13.168   1.470  0.0089 -0.0528 -0.0465
 7171W        W24018   8.003   4.564   0.967  0.1090 -0.0929 -0.0389
 7172W        W24019   3.876  18.162   9.186  0.1645  0.0352 -0.0832
 7173W        W24020  10.705   1.883  12.012 -0.1603 -0.3592 -0.2476
 7174W        W24021   6.005   1.533   0.869  0.2656  0.4075 -0.0278
 7175W        W24022   0.156  17.522   3.758  0.2082 -0.5039  0.0714
 7176W        W24023   4.609  19.247  14.167 -0.1909  0.1889  0.0181
 7177W        W24024  14.650   9.729  10.993  0.1466  0.1130  0.4107
 7178W        W24025  18.997  10.272   2.630  0.0261 -0.3135  0.1328
 7179W        W24026  19.452  19.538   2.892  0.3835 -0.3417 -0.3362
 7180W        W24027  19.305  18.033   4.593  0.0823 -0.2079 -0.0240
 7181W        W24028  10.254   5.947  13.325 -0.1456  0.3156  0.1161
 7182W        W24029  18.293   7.818   3.237  0.2336  0.2795  0.1272
 7183W        W24030  16.851   0.526  12.003 -0.2340  0.0296  0.0716
 7184W        W24031   2.135  13.042   3.058  0.2070  0.3063 -0.1900
 7185W        W24032   8.750  11.894  11.164  0.0643  0.1216 -0.1459
 7186W        W24033   6.740  18.687  12.714  0.0434 -0.3243 -0.1165
 7187W        W24034   4.407  18.977  12.082 -0.1712  0.3192  0.0522
 7188W        W24035  10.942  10.833   2.334  0.1630 -0.0455  0.0170
 7189W        W24036  17.677   7.295   5.042 -0.0427  0.0733 -0.0530
 7190W        W24037  10.968  15.695  10.942  0.4388  0.0019  0.3771
 7191W        W24038  17.137   4.413   0.970 -0.1149  0.0045  0.3528
 7192W        W24039   0.991  12.646   3.929 -0.0970  0.2676 -0.0332
 7193W        W24040  15.346   3.258  10.737 -0.1044  0.2888  0.0665
 7194W        W24041  19.034   5.947  13.723 -0.0809  0.0638 -0.4150
 7195W        W24042   1.931  19.571  10.140  0.0794  0.1194  0.4139
 7196W        W24043   0.711   1.273   4.493 -0.5289  0.1374 -0.3217
 7197W        W24044   0.751  17.627   4.965  0.0090  0.2454  0.0321
 7198W        W24045  18.294   1.287  11.837 -0.2187 -0.0532 -0.0652
 7199W        W24046   4.441  18.687   3.877  0.1200 -0.4294  0.3651
 7200W        W24047  17.812   8.912  12.445 -0.1065  0.1562  0.1979
 7201W        W24048  14.973   6.814   3.169 -0.3012 -0.1969 -0.5126
 7202W        W24049   9.785  12.342   1.477  0.0776 -0.5183 -0.0643
 7203W        W24050  18.679   7.614  11.669  0.1078 -0.0760  0.1341
 7204W        W24051  13.776  16.750  11.180  0.1446  0.2499  0.0017
 7205W        W24052  10.113  10.439   3.910 -0.2576 -0.1104 -0.3142
 7206W        W24053  13.826  16.766   0.457 -0.0200 -0.0831 -0.0536
 7207W        W24054  17.606   9.261   0.788 -0.0451  0.0044  0.0707
 7208W        W24055   4.997  18.471  11.763  0.0782  0.1707 -0.2151
 7209W        W24056  18.985  10.540   0.323 -0.3544 -0.0136  0.1298
 7210W        W24057  16.869  10.151  11.428  0.0304 -0.0328  0.0616
 7211W        W24058  19.447   2.312   4.386 -0.0012 -0.2133  0.0219
 7212W        W24059   8.300  15.173   1.671  0.0018  0.0578  0.0738
 7213W        W24060  16.493   9.238  13.337  0.1320 -0.0100  0.3469
 7214W        W24061  17.289   9.210   2.840 -0.3759  0.2411 -0.0309
 7215W        W24062   8.086  17.427   9.886 -0.0984 -0.2105  0.0801
 7216W        W24063  19.647  16.821   3.503  0.4586 -0.0350  0.1469
 7217W        W24064   5.854  18.963   1.818 -0.2538 -0.1176 -0.2150
 7218W        W24065   9.351  19.714  13.998 -0.1181 -0.0552 -0.4858
 7219W        W24066  15.890   1.226   3.382 -0.1560 -0.2385 -0.3669
 7220W        W24067   6.917   5.592   0.738 -0.1218 -0.0121  0.0940
 7221W        W24068   6.407   0.662  10.690 -0.1135  0.3107  0.0142
 7222W        W24069   4.487  17.857   4.229 -0.1259  0.0039 -0.1975
 7223W        W24070   0.256  13.414  12.643  0.0768  0.1617 -0.0751
 7224W        W24071  13.606   2.657   0.346  0.0086 -0.2906 -0.3151
 7225W        W24072   2.090  19.215   0.486  0.0699  0.2473  0.1120
 7226W        W24073  15.080  15.047  13.464  0.1015  0.3116 -0.0737
 7227W        W24074   3.486   1.341   1.183  0.3463 -0.2178 -0.1218
 7228W        W24075  12.493   0.071   0.175 -0.2900  0.0271  0.2942
 7229W        W24076   6.547   9.817   2.887  0.0234  0.1189  0.2687
 7230W        W24077   0.345   5.762   3.315  0.0604  0.0472  0.3631
 7231W        W24078   9.160  14.327  11.970  0.3451  0.2221 -0.0486
 7232W        W24079  13.204  10.181  14.205 -0.2250  0.0613 -0.0035
 7233W        W24080  14.818   5.091   2.310 -0.1681  0.2121 -0.1990
 7234W        W24081   4.658   7.298  10.280  0.2673 -0.2906  0.0604
 7235W        W24082   2.912   9.930  12.765 -0.0213 -0.3755 -0.2270
 7236W        W24083   0.150   1.120   1.480 -0.0129 -0.3163  0.0899
 7237W        W24084   6.239   5.016   1.672  0.2765 -0.1659  0.0177
 7238W        W24085   6.668   0.632  14.258  0.2075  0.3333  0.2838
 7239W        W24086   8.709   4.577   3.415  0.0156 -0.0532 -0.0303
 7240W        W24087  11.120  18.277   9.671 -0.1133 -0.1821  0.2064
 7241W        W24088  18.358  12.895   1.156 -0.0058  0.2235  0.0799
 7242W        W24089   7.041  16.607  14.037  0.3122  0.4152  0.2289
 7243W        W24090  13.222   0.567   1.976  0.0450 -0.2703 -0.3433
 7244W        W24091  13.583  16.852   1.025 -0.2402 -0.4305 -0.0994
 7245W        W24092  12.951   9.109  11.514 -0.1547  0.1215  0.0178
 7246W        W24093  12.200   3.857  12.372  0.0232 -0.1483 -0.2211
 7247W        W24094   4.777   9.173  13.997  0.0659 -0.0311  0.1875
 7248W        W24095  16.410   9.559   3.829  0.2232 -0.0601 -0.2730
 7249W        W24096   7.041   2.028  12.307 -0.1598 -0.0860 -0.0191
 7250W        W24097  13.027   3.609   1.926  0.1202 -0.2914  0.4836
 7251W        W24098   2.241  10.608   1.216  0.0507  0.0693 -0.1769
 7252W        W24099  14.967   4.280  13.968 -0.3078 -0.1366  0.1356
 7253W        W24100   0.666  18.520   1.322 -0.1490 -0.1127 -0.1308
 7254W        W24101   1.486  16.190   3.501  0.0999  0.3069  0.2829
 7255W        W24102   9.547  14.149   5.063 -0.0509  0.2331 -0.0400
 7256W        W24103   6.642  18.310   3.568  0.1714  0.1079  0.2339
 7257W        W24104  15.751  12.452  12.891 -0.0601 -0.0922 -0.4654
 7258W        W24105   9.049   6.480  11.909 -0.0793  0.1302  0.1173
 7259W        W24106   9.940   7.268  13.510  0.2667 -0.0884  0.2335
 7260W        W24107  13.030   5.503   0.430  0.0895 -0.1400 -0.0076
 7261W        W24108   9.709   7.146  11.762  0.1711 -0.0007  0.2778
 7262W        W24109  13.110   9.913  10.912 -0.0625 -0.1620 -0.0435
 7263W        W24110   3.861   8.316  11.589 -0.0267 -0.1545 -0.1652
 7264W        W24111  12.990  16.441   3.845  0.0757  0.1099 -0.0416
 7265W        W24112   8.862   4.070   3.700  0.0848  0.0135  0.0752
 7266W        W24113   6.754  10.055   0.141 -0.3629  0.1226 -0.1813
 7267W        W24114   9.999  15.868   2.933  0.2060  0.0235  0.2553
 7268W        W24115   4.191  10.745   3.241 -0.0020 -0.1998 -0.1463
 7269W        W24116   8.350  19.537   0.346  0.1336  0.1197  0.3412
 7270W        W24117   6.960   2.180   2.469  0.0239 -0.0542  0.0516
 7271W        W24118  19.640  10.385  13.554 -0.1076 -0.1892  0.0962
 7272W        W24119  19.547  11.754   2.984  0.0127  0.1856  0.0432
 7273W        W24120  14.400   5.589   4.675  0.0609  0.0200 -0.0117
 7274W        W24121   1.540   0.268  11.662  0.0872  0.0689 -0.3133
 7275W        W24122   3.427  18.307   2.902 -0.3949 -0.0774  0.2273
 7276W        W24123  17.040  16.879   0.837  0.1702 -0.0313 -0.0678
 7277W        W24124  11.851  10.586   4.425 -0.0125 -0.0635  0.0593
 7278W        W24125  11.970  10.305  10.426 -0.0772  0.1798 -0.3146
 7279W        W24126   1.040  16.249  13.931  0.1965 -0.1903  0.0107
 7280W        W24127   4.126   9.289  11.334  0.3570  0.1513 -0.0104
 7281W        W24128   2.584   7.800   9.691 -0.0870 -0.1958 -0.1653
 7282W        W24129  17.379  11.107  11.468  0.3626  0.1480 -0.0462
 7283W        W24130   0.426  18.584  13.292  0.1277  0.2550  0.4798
 7284W        W24131  15.046  18.895  10.518  0.1910  0.2633 -0.1925
 7285W        W24132   5.923   7.892  13.462  0.1702 -0.0266 -0.1665
 7286W        W24133  19.320  10.191   1.444  0.0514 -0.0944 -0.0893
 7287W        W24134  18.557   1.805  10.891  0.0928  0.0534 -0.1279
 7288W        W24135  19.216  19.257   2.455 -0.1146 -0.0920  0.0282
 7289W        W24136  11.422  19.415   4.914  0.1340 -0.0395 -0.0842
 7290W        W24137  16.141  12.714  13.331 -0.4223 -0.3878  0.2843
 7291W        W24138   4.204   8.280  11.194 -0.0769 -0.2101 -0.1195
 7292W        W24139  12.742   7.766   0.199 -0.0865  0.1861 -0.1656
 7293W        W24140   1.969  18.174  13.572  0.1359  0.3101  0.3820
 7294W        W24141   0.941   7.760   1.302 -0.2165  0.3549  0.1094
 7295W        W24142  18.726  10.220   0.663 -0.1890 -0.0312 -0.2271
 7296W        W24143  16.939   8.948  10.918  0.3006  0.3862  0.2059
 7297W        W24144   1.080   3.224   9.931 -0.1018  0.3335  0.0037
 7298W        W24145  16.159   4.176   4.735 -0.1372  0.0209  0.0215
 7299W        W24146   8.119   8.412  13.467  0.0364  0.3051  0.5486
 7300W        W24147  10.740   0.472   4.148 -0.0152 -0.4131  0.4202
 7301W        W24148   0.001   2.708  13.147 -0.0795 -0.1649  0.2386
 7302W        W24149  15.499   0.321   0.682  0.0946 -0.0542  0.2331
 7303W        W24150   6.630  11.863   4.694  0.0695  0.4027 -0.0408
 7304W        W24151   9.542   7.198   1.952 -0.2524 -0.0302  0.0324
 7305W        W24152  12.331  18.814   3.165  0.1206 -0.1279 -0.2225
 7306W        W24153   0.417  10.695   0.467 -0.2912  0.0928  0.2885
 7307W        W24154  10.588   4.737  10.399 -0.1377 -0.2209 -0.3430
 7308W        W24155  15.018  19.151   4.293  0.1178  0.0139 -0.0958
 7309W        W24156   1.416  17.577  12.183 -0.1945  0.5801  0.1441
 7310W        W24157   3.097  12.591  11.908 -0.0831 -0.1841 -0.2463
 7311W        W24158  15.846  13.869  14.002 -0.0532  0.0069  0.1559
 7312W        W24159   3.457   3.446  11.316 -0.0980 -0.1141 -0.2307
 7313W        W24160   6.695  19.622   4.110 -0.0733 -0.2774  0.0083
 7314W        W24161  19.494  16.203   4.170 -0.0810 -0.0479 -0.1087
 7315W        W24162  11.962   9.994  14.239  0.1219  0.0812 -0.2701
 7316W        W24163  19.321  15.150  12.515  0.0592 -0.0406  0.1063
 7317W        W24164   1.110   3.423  11.920 -0.0223 -0.2644 -0.0207
 7318W        W24165  17.306   4.597  13.955 -0.1907  0.0534  0.0878
 7319W        W24166  13.770  18.696   1.755 -0.1758 -0.0883  0.0597
 7320W        W24167   0.953  11.795   4.958  0.1074 -0.2420  0.2459
 7321W        W24168  19.134  16.417  10.184  0.1043 -0.2440  0.6181
 7322W        W24169   8.566  19.659  10.935  0.0158  0.3378  0.1888
 7323W        W24170  16.045   1.699   3.262 -0.1311  0.0898  0.1898
 7324W        W24171   4.848   5.976  10.209 -0.3573 -0.2121  0.2028
 7325W        W24172  18.835  15.160   1.839 -0.0859  0.1230  0.0472
 7326W        W24173   7.963   5.219  12.742 -0.0094 -0.1286 -0.1780
 7327W        W24174  19.491  12.999   2.706 -0.2662 -0.1321 -0.1358
 7328W        W24175   3.859  11.380  13.401  0.0032 -0.3491 -0.5629
 7329W        W24176  13.066   4.247  12.185  0.2480 -0.3746  0.0593
 7330W        W24177  17.928   9.122   0.343 -0.0369 -0.3107 -0.0070
 7331W        W24178  15.948   0.445  14.092  0.1272  0.1531 -0.0184
 7332W        W24179  16.656   3.941   3.414  0.3975 -0.1051 -0.0508
 7333W        W24180   0.726   2.629  10.603  0.0927  0.3355 -0.1052
 7334W        W24181   3.098  19.793   0.696  0.1876  0.0443  0.0005
 7335W        W24182  11.248  15.308  12.612 -0.2500  0.2494 -0.2642
 7336W        W24183  18.689   8.686   2.443  0.1354  0.1018 -0.1891
 7337W        W24184  16.395  17.349   0.324 -0.0547  0.2505 -0.0007
 7338W        W24185   4.118   3.304  12.579 -0.0296 -0.1468 -0.0480
 7339W        W24186   7.196   4.632   1.792 -0.0565 -0.1341 -0.0018
 7340W        W24187   0.460  18.213   3.006 -0.1487 -0.0030 -0.1479
 7341W        W24188   2.981  14.356   3.263 -0.2763  0.1026 -0.1161
 7342W        W24189   2.113  13.714   0.311 -0.4978  0.2050  0.0001
 7343W        W24190  18.932  16.097  13.519  0.1283  0.0277 -0.1035
 7344W        W24191   5.921  14.174   1.955  0.0229 -0.0031  0.2727
 7345W        W24192  12.743  12.504   4.986  0.0757 -0.0875 -0.0583
 7346W        W24193   8.184   5.500  11.407 -0.3414 -0.0911 -0.0011
 7347W        W24194  12.665   4.584  12.063 -0.0065 -0.1247 -0.1066
 7348W        W24195  14.350   5.254   2.000  0.0484  0.0983 -0.0283
 7349W        W24196  16.523  18.774   0.468 -0.4008  0.3355  0.1211
 7350W        W24197  19.627   2.368   9.018  0.2728 -0.0833  0.2290
 7351W        W24198  17.875  16.602   0.918  0.1010  0.0054  0.0420
 7352W        W24199   3.740  13.273   1.107 -0.0561 -0.2614 -0.1733
 7353W        W24200   2.654  14.620   1.593 -0.1945 -0.0628 -0.0076
 7354W        W24201  14.031  14.483   4.792 -0.1396  0.1354  0.0995
 7355W        W24202   9.820   3.997   0.599 -0.0610 -0.1103  0.0877
 7356W        W24203  13.161  18.386  13.357  0.2144 -0.2520 -0.0421
 7357W        W24204   2.849  15.838   4.683 -0.1754 -0.0218  0.2180
 7358W        W24205  14.992  17.150   2.856 -0.1821  0.0076  0.2157
 7359W        W24206   7.990   2.787   0.041  0.1809  0.0376 -0.2612
 7360W        W24207   3.455  10.798  13.314 -0.3947  0.1244 -0.1132
 7361W        W24208   0.295  14.518   9.214 -0.3095  0.2706 -0.0857
 7362W        W24209   5.686   6.682  12.935  0.0585 -0.2472  0.1965
 7363W        W24210  12.624   7.226  12.502  0.3263  0.0750  0.1009
 7364W        W24211   7.856   4.895   5.616 -0.1484  0.1195  0.0682
 7365W        W24212   9.021   0.214   1.899  0.0068 -0.0146 -0.1702
 7366W        W24213   7.623   3.291   0.825  0.0143 -0.1903  0.1383
 7367W        W24214   0.114   3.442  11.708 -0.1648 -0.0222 -0.0697
 7368W        W24215   6.958  14.062   4.980 -0.1854  0.2109  0.2467
 7369W        W24216  16.729  12.179  10.983 -0.1144  0.1154  0.2394
 7370W        W24217   2.131   5.328  14.196 -0.1958 -0.0371 -0.1759
 7371W        W24218   1.987   1.501   9.942  0.2729 -0.1355 -0.1535
 7372W        W24219   7.497   7.914  12.148  0.2298  0.0027 -0.0745
 7373W        W24220  11.870   2.091  12.380 -0.2167 -0.1140 -0.4956
 7374W        W24221  14.309   2.609   0.253 -0.0310 -0.0976 -0.3553
 7375W        W24222   3.492  16.805  11.552  0.0001  0.0852  0.1540
 7376W        W24223   4.098  15.453   0.753  0.0671 -0.1162 -0.3747
 7377W        W24224   9.514  19.905   3.452 -0.2137  0.0097  0.2042
 7378W        W24225  14.408   9.206   3.657  0.0964 -0.2262 -0.4020
 7379W        W24226   6.359  14.004   1.707  0.0582  0.0412  0.3119
 7380W        W24227  16.699  17.539  11.424  0.3820  0.0959 -0.0023
 7381W        W24228   1.148  14.643   4.813 -0.1073  0.0737  0.0748
 7382W        W24229  11.625   2.451   0.763 -0.0128  0.1120  0.1647
 7383W        W24230  12.539   4.206  12.450  0.1994 -0.1124  0.0738
 7384W        W24231   5.994   2.117  10.324 -0.0539 -0.0131  0.1215
 7385W        W24232  15.500  12.804   4.618 -0.0062 -0.1670  0.0491
 7386W        W24233  13.939  15.259   2.205 -0.0839 -0.0862 -0.2351
 7387W        W24234  11.617  10.223  13.876 -0.2037  0.4561  0.1039
 7388W        W24235   2.116   5.103   1.299 -0.1290  0.0755  0.1070
 7389W        W24236   3.920  15.967   9.833  0.0679  0.0679  0.4119
 7390W        W24237  13.581  17.966  10.303 -0.2610 -0.1932 -0.0179
 7391W        W24238   3.868  17.554   0.248  0.3304  0.0834  0.0774
 7392W        W24239  10.532   4.761   2.073  0.0626 -0.0169 -0.0173
 7393W        W24240   0.996   3.756  10.636  0.0805  0.2585 -0.0443
 7394W        W24241   4.668  14.011   0.884  0.1067  0.1461  0.1042
 7395W        W24242  10.560  19.695  13.184  0.1803  0.1510  0.0886
 7396W        W24243  12.397  12.049  14.233  0.0295 -0.0715 -0.4458
 7397W        W24244  13.313   2.819   2.257  0.0551  0.0916 -0.2063
 7398W        W24245  10.696  10.213   2.013  0.0096  0.3608  0.0096
 7399W        W24246  18.713  14.368  14.132 -0.1317 -0.2073 -0.2303
 7400W        W24247  16.747  13.634  13.401 -0.3095 -0.1087  0.3845
 7401W        W24248   9.736   8.062  10.833 -0.2470  0.2476 -0.0774
 7402W        W24249   2.811  19.287   1.497  0.1765  0.1915  0.2818
 7403W        W24250  13.480  17.452  12.400  0.1592 -0.0752  0.0938
 7404W        W24251   9.896  19.902  11.760  0.0746 -0.1114  0.2384
 7405W        W24252  15.105   3.072  11.524  0.4548  0.0449  0.0213
 7406W        W24253  15.859   4.372   3.117  0.0331  0.0738 -0.1353
 7407W        W24254  11.835  17.354  10.122  0.0061 -0.2467  0.0472
 7408W        W24255  16.115   5.712   0.551  0.2535  0.1839 -0.0593
 7409W        W24256  10.474  10.258   0.623  0.1266 -0.0917  0.0291
 7410W        W24257   5.296  12.169   2.521 -0.2360 -0.2098 -0.0790
 7411W        W24258  15.086   5.230  12.777  0.0443  0.0535  0.1800
 7412W        W24259   7.041  11.702  12.611 -0.3415 -0.0625 -0.2741
 7413W        W24260   0.304   0.969   0.036  0.1616  0.2836  0.0320
 7414W        W24261  16.456   5.252   4.745 -0.0450 -0.2289 -0.0072
 7415W        W24262   0.638  19.370  10.292 -0.1496  0.2506  0.0219
 7416W        W24263  10.866  18.542   1.863 -0.0551 -0.2008 -0.3866
 7417W        W24264  12.054   0.831  10.952  0.1343 -0.1370  0.1444
 7418W        W24265  11.753  11.216   4.371 -0.0525  0.1179  0.1806
 7419W        W24266   9.347  19.878  12.607  0.0771  0.0385  0.1686
 7420W        W24267   9.063   4.624   3.792  0.1027  0.3718  0.0972
 7421W        W24268  13.372  10.006   3.966  0.0698 -0.1572 -0.3666
 7422W        W24269   7.448  15.284   4.257  0.1472 -0.1592  0.1690
 7423W        W24270   7.196  15.298  12.458 -0.0746 -0.1214  0.1824
 7424W        W24271   8.987  13.609   1.014 -0.3109  0.1711  0.0188
 7425W        W24272   3.070  17.130  13.005 -0.0543  0.0068 -0.1771
 7426W        W24273  10.053   8.567  13.383  0.0649 -0.1836 -0.3191
 7427W        W24274  16.888  18.771   0.094  0.0195  0.2226 -0.2483
 7428W        W24275  18.885   8.246   2.698  0.0054  0.1957 -0.1006
 7429W        W24276  18.761  19.386   4.094  0.0670  0.2342  0.1157
 7430W        W24277  18.560   2.745  10.635  0.3202  0.1185  0.1493
 7431W        W24278   7.177   1.887   0.105 -0.1017 -0.0269  0.0103
 7432W        W24279  19.089  13.282  12.365  0.2123  0.2843 -0.1675
 7433W        W24280   3.916   4.037   3.793  0.0987 -0.0520 -0.2562
 7434W        W24281   3.996   1.408  10.569 -0.0744 -0.0578 -0.4268
 7435W        W24282   1.262  17.948  12.500 -0.0863  0.0722 -0.0891
 7436W        W24283   7.920  13.350   2.209  0.1462  0.1269 -0.2701
 7437W        W24284  11.618  18.985  11.768  0.0492  0.4288 -0.2566
 7438W        W24285  15.592  16.486  13.486  0.0363  0.0240  0.2234
 7439W        W24286   2.237  16.400   9.760 -0.1025  0.1936  0.2284
 7440W        W24287   8.199   2.867  11.074 -0.0362 -0.2350  0.0729
 7441W        W24288   5.974   9.885  11.408  0.0041  0.2143 -0.0604
 7442W        W24289   1.249   1.450  11.222 -0.0849  0.1245  0.2559
 7443W        W24290  16.407   2.229   4.535  0.0721 -0.0303  0.2065
 7444W        W24291  13.954  15.832  13.509 -0.1892 -0.1314  0.2041
 7445W        W24292   5.761   7.377   4.911  0.0510 -0.3752 -0.0429
 7446W        W24293   1.892  16.270   3.822 -0.2736  0.0132 -0.1488
 7447W        W24294  15.715  18.703   5.644 -0.0643 -0.4031  0.1639
 7448W        W24295  16.240  14.011  11.493 -0.2043  0.0668 -0.2984
 7449W        W24296  12.029  11.046  14.051 -0.2648 -0.0587 -0.0763
 7450W        W24297  13.992  10.513   3.733  0.1356  0.0289  0.1208
 7451W        W24298  11.607   8.769   2.335 -0.1877  0.1239  0.1250
 7452W        W24299   1.478  16.250  12.759  0.4638  0.2591  0.0061
 7453W        W24300  10.678  17.426  10.020 -0.2075 -0.0274 -0.2445
 7454W        W24301   7.982   9.549   3.398  0.1901  0.0378 -0.0353
 7455W        W24302   0.139   2.120   3.486  0.0603  0.0064 -0.0213
 7456W        W24303  10.533  12.880   3.265  0.3866  0.4319  0.0892
 7457W        W24304   7.132  17.393  11.455  0.0804  0.3022  0.2055
 7458W        W24305   3.643  11.201   4.070  0.2411 -0.1415 -0.0277
 7459W        W24306   2.602   9.884  11.438 -0.2080  0.1897 -0.0422
 7460W        W24307   8.635   6.322  10.469  0.0788  0.0233 -0.3021
 7461W        W24308   0.548   7.726  10.304  0.0392  0.0799 -0.2804
 7462W        W24309  11.368  11.216   3.757  0.0063  0.0896  0.3355
 7463W        W24310   8.697   4.423  11.791  0.0628 -0.1217  0.1625
 7464W        W24311   7.503  16.426  13.836 -0.1239  0.0932  0.2987
 7465W        W24312   0.347  19.305   0.013 -0.0584 -0.0838  0.1306
 7466W        W24313  12.258  14.570  10.333 -0.1449  0.3109  0.0029
 7467W        W24314   1.946   5.708   0.162 -0.3272  0.2572 -0.2062
 7468W        W24315  10.749   1.605  11.599 -0.1157  0.3424  0.2480
 7469W        W24316   7.460  19.244  11.710 -0.0937  0.1955 -0.0507
 7470W        W24317   7.861   6.865  12.257  0.0638  0.2144  0.0513
 7471W        W24318  15.837   0.482  12.334  0.0862 -0.0730 -0.1914
 7472W        W24319   7.412   7.100   2.992 -0.0690  0.3403  0.2898
 7473W        W24320   5.979  19.141  14.253 -0.1795 -0.5374  0.2045
 7474W        W24321  15.276  19.868  10.357 -0.1329  0.3207  0.0062
 7475W        W24322   2.735  10.809  10.981  0.1709 -0.1760 -0.3050
 7476W        W24323   6.564  10.415   0.961 -0.0697 -0.2291 -0.3969
 7477W        W24324  13.538   2.351   4.011 -0.0634  0.2125  0.1018
 7478W        W24325  13.840  13.297  13.055  0.0103  0.2484  0.0214
 7479W        W24326  17.131  11.494   2.644  0.1833 -0.4571 -0.1768
 7480W        W24327   1.213   3.595  11.028  0.1502  0.0901 -0.1789
 7481W        W24328  11.848   1.688   4.988  0.0773 -0.0505 -0.0203
 7482W        W24329  17.732   3.678   1.581  0.0551  0.3911 -0.3412
 7483W        W24330   4.049   0.356   0.271 -0.0855 -0.1377 -0.2206
 7484W        W24331  17.282   8.591   4.859  0.0070  0.2536 -0.2853
 7485W        W24332  17.233   7.879   3.583 -0.0019 -0.1351 -0.2109
 7486W        W24333  19.723  18.491  13.146 -0.1066  0.1981  0.1408
 7487W        W24334  12.371   3.986   4.570  0.0814  0.2025  0.0032
 7488W        W24335  15.572  18.812  11.304 -0.0314 -0.0702 -0.2421
 7489W        W24336  19.904   4.202  10.703 -0.0091  0.2898 -0.0500
 7490W        W24337  18.805  16.609   0.451 -0.2249  0.6379  0.1126
 7491W        W24338   6.787   4.774  11.298 -0.1400  0.0139  0.1358
 7492W        W24339  14.740   5.305   4.914  0.2499  0.1425 -0.2038
 7493W        W24340  13.052   1.563  11.776 -0.1379 -0.0028 -0.1949
 7494W        W24341  12.693  13.388   0.874 -0.0165 -0.0809 -0.2057
 7495W        W24342   6.338  17.851   9.375 -0.1274 -0.0582  0.2106
 7496W        W24343   5.341  18.274   2.154 -0.0633  0.1762  0.0042
 7497W        W24344  13.087  15.661  10.662 -0.1568  0.0688  0.2122
 7498W        W24345   5.996  15.140   2.388  0.2014 -0.1035 -0.2226
 7499W        W24346  18.973  10.501   4.305  0.2007  0.1833  0.0217
 7500W        W24347  19.489   8.542   3.838 -0.0534  0.2766  0.1022
 7501W        W24348  17.039   9.953  14.048 -0.0316  0.0189  0.2185
 7502W        W24349   2.248  16.180   0.266 -0.0227  0.1295  0.1350
 7503W        W24350   2.123   4.933  12.806 -0.0560  0.3430 -0.2131
 7504W        W24351   9.224   8.187  12.376  0.0745 -0.0029 -0.1557
 7505W        W24352  15.855  14.803   3.103  0.3514  0.3201 -0.2997
 7506W        W24353   8.956   9.922  12.472  0.4377  0.2879  0.0030
 7507W        W24354   0.948  12.505  12.514  0.1330 -0.0575 -0.2044
 7508W        W24355   5.555  13.620   4.478 -0.0007 -0.1211 -0.1050
 7509W        W24356  16.774   3.655  13.472 -0.3493  0.0190 -0.1901
 7510W        W24357   2.930  16.056   9.556  0.1089  0.0464 -0.2291
 7511W        W24358  14.325  11.392   3.997 -0.0305  0.1833  0.0594
 7512W        W24359   0.819  17.712  11.090 -0.0255 -0.4602  0.1159
 7513W        W24360  19.535   1.263  13.162  0.1662  0.0023  0.0508
 7514W        W24361  19.435   6.608  10.342 -0.2495 -0.1061 -0.0805
 7515W        W24362  13.521  12.435   9.321 -0.0492 -0.2122 -0.1150
 7516W        W24363  14.918  10.399  13.527 -0.3107  0.1444 -0.0491
 7517W        W24364   5.394   2.243  12.677  0.2671 -0.0675  0.2517
 7518W        W24365  11.829   7.619  12.922  0.1653 -0.0736  0.1667
 7519W        W24366   8.487  15.956   1.524 -0.2011  0.3705  0.3505
 7520W        W24367   8.485  12.772   0.988  0.2335 -0.0199 -0.0213
 7521W        W24368   4.165  12.822  10.399 -0.1872 -0.0834  0.1133
 7522W        W24369  17.080  12.509  10.581 -0.0156 -0.1063 -0.2192
 7523W        W24370   3.074  17.924   2.810 -0.1949 -0.0172  0.3749
 7524W        W24371   0.446  14.531   3.195  0.1266  0.0077 -0.1123
 7525W        W24372  15.198  12.018   0.737  0.1999 -0.0411 -0.2530
 7526W        W24373  11.672  16.115  13.426  0.3758  0.3886 -0.1295
 7527W        W24374   4.679   6.598   3.798  0.0081  0.0445  0.1890
 7528W        W24375   3.758  14.262   3.839 -0.1254  0.0400 -0.1766
 7529W        W24376   9.920  17.235   2.258 -0.1091 -0.1147  0.1457
 7530W        W24377  16.980  13.874   2.831 -0.0919  0.0189  0.1777
 7531W        W24378  18.079   3.433   4.715  0.1212 -0.0906 -0.1518
 7532W        W24379  10.212  15.004   2.404 -0.4345  0.1246  0.1895
 7533W        W24380  17.855  12.864   2.679  0.0140 -0.1087 -0.1930
 7534W        W24381   4.396  14.160  10.277 -0.0614 -0.2400 -0.1072
 7535W        W24382   2.119   8.707   4.256  0.1511 -0.2134 -0.2773
 7536W        W24383   8.287   8.592  10.132  0.0591 -0.0574 -0.2732
 7537W        W24384  19.086  16.825  10.671 -0.0089  0.0080  0.1404
 7538W        W24385  10.677  18.323  12.300  0.1814  0.0212 -0.0014
 7539W        W24386  10.446  11.551   2.494  0.0527 -0.1437  0.2056
 7540W        W24387  12.468   9.142  14.078  0.0700  0.1837  0.2225
 7541W        W24388  19.803   6.738   4.333  0.1230  0.0642 -0.2410
 7542W        W24389   3.749  17.275  13.610 -0.3844  0.0578  0.2100
 7543W        W24390   1.744   6.552  10.157  0.0034  0.1386 -0.1762
 7544W        W24391  18.769   3.504   0.893 -0.1289 -0.2204 -0.1769
 7545W        W24392   4.798  11.294   2.708 -0.1159 -0.2997  0.0949
 7546W        W24393   6.696   0.194   2.453  0.2413  0.0158 -0.2546
 7547W        W24394   2.848  16.765   1.548 -0.2766 -0.0710 -0.1465
 7548W        W24395   4.241  19.374   9.924 -0.2616  0.2083  0.1142
 7549W        W24396  16.229  14.586  11.438 -0.0556  0.0866 -0.1995
 7550W        W24397   4.699  17.178   3.224  0.3055 -0.1648 -0.4062
 7551W        W24398   0.128   7.415  14.002 -0.2241  0.0171 -0.0276
 7552W        W24399   5.803   9.593   5.462  0.3442  0.1033 -0.2879
 7553W        W24400  11.325  10.685   0.021 -0.3386 -0.2379 -0.2444
 7554W        W24401  15.456   1.870  10.901  0.0642 -0.2384 -0.1390
 7555W        W24402   3.894   0.818  13.369  0.0432 -0.1231  0.0955
 7556W        W24403   6.289  12.161  13.222  0.1436 -0.4116 -0.0963
 7557W        W24404  18.081  17.450   1.262  0.2808  0.1488 -0.2794
 7558W        W24405   3.980  17.637   1.212  0.2727 -0.1897 -0.0296
 7559W        W24406  16.363   8.633   1.563  0.1529 -0.0075  0.2029
 7560W        W24407   4.833   5.268   0.425 -0.2790  0.0400  0.1296
 7561W        W24408   4.163  11.544   2.208 -0.0530  0.0776 -0.1046
 7562W        W24409   6.652  18.354  10.929 -0.1312 -0.0859  0.1310
 7563W        W24410   1.156   9.878  13.226  0.0306  0.1176  0.0023
 7564W        W24411  19.019   9.964   0.971  0.3250 -0.1926  0.3324
 7565W        W24412   8.099   0.911   3.376  0.2958 -0.0772  0.0008
 7566W        W24413   1.967   8.613   5.142  0.2998  0.1704  0.2374
 7567W        W24414  11.914   2.283  14.231  0.1986  0.3006 -0.2545
 7568W        W24415   3.565  10.321  10.841  0.2835  0.1107 -0.0091
 7569W        W24416   7.607  15.430  12.136 -0.1468 -0.3236  0.0593
 7570W        W24417   9.994  11.341   2.920 -0.2610 -0.0153  0.0208
 7571W        W24418   7.198  19.620  11.532  0.1441 -0.4328  0.1092
 7572W        W24419  14.781  14.994   2.534 -0.3464 -0.0382  0.3500
 7573W        W24420  11.412  12.935   4.555  0.1377 -0.1156 -0.0929
 7574W        W24421  13.449   2.422  11.725  0.0460  0.0112 -0.2241
 7575W        W24422   8.201   2.619  11.884  0.2863  0.3779 -0.1232
 7576W        W24423   5.690  16.850   3.306 -0.2588  0.2783  0.0138
 7577W        W24424   5.823  17.972   1.561 -0.2547  0.1219  0.1891
 7578W        W24425   4.399  16.646   0.955  0.2099  0.1293 -0.1490
 7579W        W24426   5.202  17.448   1.983 -0.2959 -0.1332 -0.0032
 7580W        W24427  17.431  16.584  10.212 -0.2443 -0.2292  0.1221
 7581W        W24428   8.095   5.944   2.290 -0.0543  0.4151  0.1232
 7582W        W24429  16.455  12.479   4.589 -0.2990  0.0623 -0.0742
 7583W        W24430  10.782  12.605  13.617  0.2197 -0.0430  0.4105
 7584W        W24431  10.247   0.693   4.978  0.1806  0.1302  0.3892
 7585W        W24432   6.965   4.076   0.387 -0.1711  0.1145  0.3985
 7586W        W24433   4.491  12.939   9.576 -0.1686  0.1856  0.4145
 7587W        W24434   4.616  10.764   3.558  0.1127 -0.0511  0.3134
 7588W        W24435  13.025   1.924  13.622 -0.0088 -0.3644  0.1250
 7589W        W24436  16.786   4.931  10.462 -0.2135  0.1503  0.1402
 7590W        W24437  10.951   4.245  14.216 -0.0023 -0.0820  0.0453
 7591W        W24438  16.089   8.142  14.277 -0.1035 -0.0934 -0.0762
 7592W        W24439  10.473   0.834  12.204 -0.1048  0.0163 -0.2921
 7593W        W24440  12.503   7.669   3.484 -0.1003 -0.2507  0.5078
 7594W        W24441   6.839  14.403  10.041 -0.1273 -0.0438 -0.0667
 7595W        W24442   3.314  12.360  12.351 -0.1322 -0.0263 -0.0355
 7596W        W24443  15.266   4.242  12.363  0.1607  0.1326 -0.1175
 7597W        W24444   7.858  18.771   4.601  0.0087  0.4695 -0.1862
 7598W        W24445   6.959  10.275   3.782  0.2504 -0.1946  0.0464
 7599W        W24446   3.381  15.344   3.261 -0.0637 -0.2299  0.0077
 7600W        W24447   8.921   3.451   9.727 -0.3783  0.0539 -0.2573
 7601W        W24448  19.212  11.193  10.263  0.1193  0.1837 -0.1186
 7602W        W24449  15.994  18.256  12.009 -0.2601  0.1210  0.0496
 7603W        W24450   2.265  11.276   2.174 -0.4255 -0.0204  0.0170
 7604W        W24451  10.694   6.457  13.767  0.2093 -0.0601  0.2360
 7605W        W24452  19.800  13.696  13.456 -0.1623 -0.1728 -0.3415
 7606W        W24453  15.046   2.459  11.402 -0.2248  0.3369 -0.1546
 7607W        W24454  10.537   6.179   1.773 -0.2160 -0.3074 -0.0780
 7608W        W24455   6.825   0.642   1.668 -0.1272  0.0023  0.0720
 7609W        W24456  12.768  19.337   4.941 -0.4015 -0.0382 -0.1654
 7610W        W24457   8.481   7.834  10.983 -0.1931  0.0796 -0.1956
 7611W        W24458   6.181  17.890   3.919  0.0674  0.0014  0.2924
 7612W        W24459   8.878   8.405   1.495  0.2766 -0.3221  0.2847
 7613W        W24460  18.026  11.241   1.485  0.1338 -0.0491  0.2640
 7614W        W24461   2.747   2.111  13.851  0.1873 -0.0038 -0.0725
 7615W        W24462   5.612  16.355   0.909  0.1153  0.1162 -0.2557
 7616W        W24463   1.760  19.158   2.314  0.0414 -0.1759 -0.0723
 7617W        W24464  12.956   3.991   0.495  0.2261 -0.1813  0.0181
 7618W        W24465   9.611  11.752  12.187  0.0643  0.0871 -0.1368
 7619W        W24466   4.575   3.563   0.560  0.0399 -0.1335  0.0696
 7620W        W24467   4.699   9.790   0.011  0.2241  0.0349 -0.4584
 7621W        W24468  19.057  18.950   3.340 -0.0929  0.0134  0.1737
 7622W        W24469   6.179   9.081  14.171 -0.0766 -0.1071  0.3937
 7623W        W24470   8.149  16.003   0.532 -0.1146 -0.3126  0.1615
 7624W        W24471   4.764   3.702  14.073  0.0823  0.1004 -0.1929
 7625W        W24472  17.587   5.175   5.125 -0.2810  0.1954  0.0964
 7626W        W24473  18.918   3.000   2.401 -0.2426  0.1991 -0.0418
 7627W        W24474  15.500  14.099  13.324 -0.2810 -0.0400 -0.0260
 7628W        W24475  16.090  11.469  11.173 -0.2216  0.0812  0.1252
 7629W        W24476  11.650  19.213  10.421 -0.3515 -0.2244 -0.1201
 7630W        W24477   5.352   6.428  12.570 -0.2415  0.1287  0.0168
 7631W        W24478  17.269   5.970  13.283  0.1289  0.0999 -0.3550
 7632W        W24479   8.414  15.188  11.944 -0.0169  0.0513 -0.0840
 7633W        W24480   8.322  10.961   2.960  0.4223  0.0274  0.1346
 7634W        W24481  13.176  10.528   4.603 -0.2941  0.2551 -0.3253
 7635W        W24482   5.400   5.170   3.209 -0.0238  0.2635 -0.3029
 7636W        W24483  15.772  17.042   3.200 -0.0155 -0.0814 -0.1719
 7637W        W24484   1.812  11.689  11.520  0.1155 -0.2688 -0.3538
 7638W        W24485  19.607   2.986  10.903  0.0221 -0.0094 -0.2380
 7639W        W24486   3.610  13.870  12.854  0.1670  0.1376 -0.0733
 7640W        W24487  19.442  10.689  11.074  0.0082  0.1115  0.1200
 7641W        W24488  13.266  18.240   1.466  0.0019 -0.1105  0.3202
 7642W        W24489   1.141   0.178   3.074  0.0030 -0.1619 -0.2249
 7643W        W24490  18.636  18.997   4.575  0.1121  0.0832  0.1363
 7644W        W24491   3.957   6.710   2.942  0.1160  0.0107  0.1100
 7645W        W24492   6.809   9.364  12.291  0.0463 -0.2135 -0.3484
 7646W        W24493  15.301   9.482   3.912  0.5176 -0.0253  0.2800
 7647W        W24494  19.021  17.671  14.144  0.3007 -0.0456  0.0610
 7648W        W24495   3.735  16.952   9.889 -0.2973 -0.1440  0.2228
 7649W        W24496   4.708  14.423   1.159  0.3241 -0.1045 -0.4278
 7650W        W24497  12.016   4.786   9.954 -0.0969  0.2580 -0.1095
 7651W        W24498  14.459  15.672  14.135  0.2668 -0.1830  0.1547
 7652W        W24499  15.347  18.350  10.522  0.1091 -0.3543  0.3297
 7653W        W24500   2.386   7.413   1.418  0.0829  0.0174  0.2143
 7654W        W24501  16.622  18.899   1.795  0.0225  0.0999 -0.3442
 7655W        W24502  17.337   1.254   9.585  0.2988 -0.0750 -0.1951
 7656W        W24503   9.431  11.156   1.680 -0.1853  0.1750  0.0438
 7657W        W24504  17.821   1.934   2.952 -0.1472 -0.5226 -0.0010
 7658W        W24505   1.314   9.774  10.717 -0.2499 -0.1819 -0.0312
 7659W        W24506  17.445  11.368  13.911  0.2376  0.0978 -0.0029
 7660W        W24507   2.384   6.798   9.600 -0.2294  0.1005 -0.0363
 7661W        W24508   0.564   3.154   9.868 -0.0082  0.0207  0.0134
 7662W        W24509  14.533   0.003  11.002  0.1786 -0.0142  0.2072
 7663W        W24510   3.194   3.284   4.346 -0.1783 -0.1724 -0.1397
 7664W        W24511  17.933   7.097   1.373 -0.0124  0.1334 -0.0893
 7665W        W24512   4.046  13.252   2.978 -0.3760  0.0620 -0.3740
 7666W        W24513   8.909  14.480  10.819 -0.0639 -0.0081  0.2827
 7667W        W24514   0.314   5.807  13.837  0.3297  0.3228 -0.0153
 7668W        W24515  14.106   9.292   3.066 -0.1575  0.0096  0.1838
 7669W        W24516  15.103   4.669  12.042 -0.1414  0.0657 -0.0874
 7670W        W24517   3.366   2.090   0.605  0.0670  0.0002  0.1000
 7671W        W24518   3.492  18.106   1.393 -0.0512 -0.0973 -0.0777
 7672W        W24519  12.368   9.525   3.213  0.1832  0.3163 -0.1136
 7673W        W24520   8.830  18.977  13.112 -0.0236 -0.2010 -0.2311
 7674W        W24521   2.865  15.555   3.898  0.1788 -0.1759  0.0080
 7675W        W24522   1.084  13.871   2.787 -0.1981 -0.0530 -0.0220
 7676W        W24523   8.550  14.404  12.958  0.0224  0.5496  0.0814
 7677W        W24524   7.032  17.072  12.609  0.1741 -0.1874  0.2103
 7678W        W24525   6.648  14.892   4.892 -0.0158  0.1594 -0.2749
 7679W        W24526   6.943   7.712   1.413  0.2022 -0.0855  0.1210
 7680W        W24527   0.631  11.691   0.692  0.0812  0.0417  0.0840
 7681W        W24528   7.634   0.479   0.934  0.0088 -0.0059  0.0794
 7682W        W24529  12.626   3.754  11.646 -0.3493  0.2050 -0.1027
 7683W        W24530   0.006  12.838  12.635  0.0252  0.0474  0.1540
 7684W        W24531   4.865   0.717   0.500  0.0838  0.1778  0.0284
 7685W        W24532   4.029  19.521   5.089  0.0661  0.2367 -0.1965
 7686W        W24533  17.219  18.694  12.801  0.1345  0.0957 -0.1130
 7687W        W24534   4.368  14.698  10.332 -0.0590  0.3712 -0.1184
 7688W        W24535   6.105   5.433  13.797 -0.1859  0.1890 -0.1723
 7689W        W24536   0.230   0.341  10.263  0.1301  0.0837  0.2371
 7690W        W24537  13.518  16.529  10.335  0.0263  0.1483  0.2307
 7691W        W24538   7.729  10.565   1.825  0.0278  0.0046 -0.4283
 7692W        W24539   5.546  12.458   1.512  0.0475  0.1961 -0.1224
 7693W        W24540   7.472  12.471   9.895 -0.0767 -0.2726  0.3509
 7694W        W24541   9.709   6.128  10.806 -0.1894 -0.1648 -0.1407
 7695W        W24542  16.890   5.851  12.918  0.2972 -0.1737 -0.0926
 7696W        W24543  17.166   4.084  14.271 -0.0539 -0.3762  0.1541
 7697W        W24544   7.463  19.360   1.096  0.1345 -0.1063  0.0790
 7698W        W24545  11.878  11.969  10.773 -0.1264  0.2417 -0.1299
 7699W        W24546  14.283  10.901  11.131  0.0124 -0.0701  0.3373
 7700W        W24547  17.474  18.722  11.923 -0.1494  0.1353 -0.0694
 7701W        W24548   8.879  13.909   3.738 -0.2254 -0.3557 -0.2687
 7702W        W24549  13.616   6.770  11.042  0.1516  0.3011 -0.2861
 7703W        W24550   3.837   6.310   1.510 -0.1342  0.0906 -0.1384
 7704W        W24551   3.103  11.835   1.343  0.1290  0.0022  0.1245
 7705W        W24552   4.194   6.372   2.660  0.3205  0.3755  0.2891
 7706W        W24553  16.379  16.700  11.443  0.1355  0.2538  0.2097
 7707W        W24554  16.713   7.017  11.965 -0.2351  0.2726 -0.1842
 7708W        W24555  16.105  12.420   0.484 -0.2390  0.1255  0.0076
 7709W        W24556  18.826  17.345   0.200 -0.0536  0.0167  0.0535
 7710W        W24557   3.397  18.088   3.450 -0.1224 -0.0641  0.3571
 7711W        W24558  15.589  14.683   0.598  0.0061 -0.0795  0.1125
 7712W        W24559   3.325  14.419   0.546 -0.0733 -0.1472 -0.1768
 7713W        W24560   9.793  19.077   3.880  0.0108  0.0495 -0.0994
 7714W        W24561  16.929  12.498  13.414 -0.0674  0.0456 -0.1953
 7715W        W24562  11.590  13.689  11.707  0.1244  0.0345  0.3140
 7716W        W24563   1.734  17.457   9.914 -0.0816  0.0174 -0.0925
 7717W        W24564   7.187  15.647  10.635 -0.0666  0.0283 -0.0448
 7718W        W24565  14.050   4.527   1.248  0.0227  0.0474  0.3722
 7719W        W24566  11.279  13.923   3.209  0.0962 -0.3420  0.1221
 7720W        W24567   8.548   4.119  12.693  0.0706  0.1809 -0.0579
 7721W        W24568   7.823   1.639   4.098 -0.4377 -0.1924 -0.2433
 7722W        W24569   8.491  12.921   1.542 -0.2185  0.0441 -0.0199
 7723W        W24570   9.851  13.517  10.300 -0.1810  0.1778  0.2664
 7724W        W24571  17.492  13.060   0.836  0.0407 -0.0622 -0.2839
 7725W        W24572   5.888   2.412  11.931  0.0220  0.3700 -0.0088
 7726W        W24573   5.422   8.989   9.568  0.0817 -0.2526  0.3412
 7727W        W24574   8.600  19.439  13.852 -0.0568 -0.1543 -0.0030
 7728W        W24575  17.153  19.503  13.467 -0.0214 -0.0334  0.1287
 7729W        W24576  13.943   1.440  10.342  0.1917 -0.2638  0.0922
 7730W        W24577   4.492  18.145  10.368 -0.1618 -0.3721 -0.0705
 7731W        W24578   7.454  11.502  10.849 -0.0381  0.2603 -0.4445
 7732W        W24579  15.814   6.347  11.107  0.0296  0.0756 -0.0013
 7733W        W24580   3.504  10.064  11.933  0.2187 -0.0700  0.1460
 7734W        W24581  10.445  17.643  12.105 -0.0184 -0.2785  0.1558
 7735W        W24582  11.901  19.892   4.394  0.1374  0.1494 -0.0276
 7736W        W24583  16.318  15.945  11.398 -0.2572 -0.2456 -0.0951
 7737W        W24584  10.326   9.864   3.821  0.0076  0.0403 -0.1781
 7738W        W24585  15.383   4.159  13.618 -0.4521 -0.1434  0.1658
 7739W        W24586  17.875  14.940   0.049  0.0583 -0.0924 -0.0554
 7740W        W24587  13.690   5.290  10.112  0.4777 -0.0197 -0.2399
 7741W        W24588  16.781   3.902  10.325  0.0301 -0.2083 -0.4640
 7742W        W24589  14.075   5.016   1.106 -0.4648 -0.2519 -0.0191
 7743W        W24590   5.988   0.047   0.321 -0.1714 -0.2833 -0.0789
 7744W        W24591  15.055   2.885  12.352  0.0772 -0.0067 -0.1136
 7745W        W24592   6.708   6.584   0.831  0.1387 -0.1400 -0.2179
 7746W        W24593   4.197  10.085  11.192  0.0395 -0.0321 -0.2341
 7747W        W24594  17.877   3.489   1.057 -0.3663 -0.0701  0.0815
 7748W        W24595   5.480  12.835  12.415 -0.2376  0.3200 -0.2705
 7749W        W24596  18.372   6.641   4.050  0.2442  0.0943 -0.1028
 7750W        W24597   3.306   0.768   2.777 -0.3999 -0.0924  0.0677
 7751W        W24598  17.649  11.593   1.387  0.0920 -0.2229  0.2858
 7752W        W24599   0.686   6.647  11.285 -0.1785  0.0523  0.0466
 7753W        W24600  14.190   9.003  13.016 -0.2208 -0.0265 -0.2170
 7754W        W24601  11.326   1.905   3.482  0.1902  0.1000  0.1382
 7755W        W24602  19.614   0.245   3.977 -0.1678 -0.1030  0.0086
 7756W        W24603  14.515  17.904  11.526 -0.1577 -0.1263  0.1090
 7757W        W24604  14.122  11.113  13.198 -0.3048 -0.0948 -0.0544
 7758W        W24605  18.272  18.226  11.320  0.1146  0.3019 -0.1201
 7759W        W24606   6.513  15.771  14.039 -0.2163 -0.1237  0.2528
 7760W        W24607   0.043  10.141  11.994 -0.0930 -0.0654 -0.2503
 7761W        W24608   3.983  11.265   4.550  0.1643 -0.0410 -0.2974
 7762W        W24609   1.184   3.688  11.513  0.0113 -0.0602 -0.1708
 7763W        W24610   5.183   3.492  12.858  0.0456 -0.2517 -0.1558
 7764W        W24611  15.988   3.814  12.979  0.1794  0.0203  0.0405
 7765W        W24612   9.928   1.005   3.684 -0.1825 -0.1427  0.1777
 7766W        W24613   2.494  14.742  11.239 -0.1334  0.1898 -0.0930
 7767W        W24614  19.717  18.322   0.148  0.0979 -0.2658 -0.2025
 7768W        W24615   9.103  19.668   2.052  0.2504  0.1976 -0.3658
 7769W        W24616  17.780   6.514  11.953  0.0512  0.0756  0.0477
 7770W        W24617  19.318   9.172   0.936 -0.0931  0.2940  0.0244
 7771W        W24618   5.086   1.322  14.131 -0.4783 -0.2175  0.1911
 7772W        W24619  10.124  12.081  11.550  0.1131 -0.0336 -0.3358
 7773W        W24620  10.525   8.450  14.291  0.2680  0.1835 -0.0385
 7774W        W24621  13.632  12.633  10.612  0.2290  0.1031  0.0842
 7775W        W24622  16.166  10.181   1.469  0.1581 -0.1682  0.0982
 7776W        W24623  12.139  10.757   3.708  0.3386 -0.2641  0.5222
 7777W        W24624  16.788  19.190  10.814  0.0037 -0.2083  0.0538
 7778W        W24625  14.682  12.219  12.877 -0.0344 -0.3351  0.3162
 7779W        W24626   9.280   1.348  14.082 -0.1868 -0.2192  0.0954
 7780W        W24627  15.988  10.436   1.048  0.2019  0.2111 -0.0612
 7781W        W24628   7.049  12.196  11.910 -0.2654  0.1607  0.3004
 7782W        W24629  10.356   4.301   5.364 -0.1440 -0.3486 -0.1264
 7783W        W24630  18.736   1.874   3.523 -0.1209  0.2580 -0.0851
 7784W        W24631  19.768  15.444   1.811 -0.1893  0.1788 -0.4008
 7785W        W24632   2.977   3.524   2.983 -0.1642  0.0298  0.2453
 7786W        W24633  13.861  12.384   0.984  0.0606  0.0992  0.0676
 7787W        W24634  16.373   5.725  10.925 -0.2344 -0.1535  0.0986
 7788W        W24635  18.461  14.664   3.048 -0.2279 -0.2746 -0.1619
 7789W        W24636  11.283   2.966   0.964 -0.0090  0.2979  0.0247
 7790W        W24637  18.644   6.373   5.166 -0.1477  0.1066 -0.0485
 7791W        W24638   9.791   9.816  13.826  0.1386 -0.1410  0.2325
 7792W        W24639  16.893   2.141  10.464 -0.0481  0.0166  0.2026
 7793W        W24640  18.984   1.325   3.514  0.0431  0.2113  0.1309
 7794W        W24641  11.082  17.758   1.224  0.1260  0.0029  0.2938
 7795W        W24642  17.092   8.217  14.210  0.3088  0.1648  0.0533
 7796W        W24643   6.215  19.871  13.581 -0.3286  0.1545  0.0510
 7797W        W24644   2.974   9.376   2.263 -0.0402 -0.1182 -0.2108
 7798W        W24645  16.689  15.891   1.971  0.2042  0.0176  0.0790
 7799W        W24646  10.923   5.511  13.604 -0.1131  0.2858  0.1908
 7800W        W24647  12.093  18.779   1.687 -0.0643  0.3424 -0.0823
 7801W        W24648   0.344  18.204  12.897 -0.1039  0.1446  0.1995
 7802W        W24649   2.077   1.995   3.495 -0.1495  0.1767 -0.0222
 7803W        W24650   9.847   0.191  12.792 -0.0232  0.0741  0.0120
 7804W        W24651   4.129   8.973  10.663  0.1651 -0.1302  0.0480
 7805W        W24652  10.334   2.242  11.190 -0.0165  0.5667 -0.0318
 7806W        W24653  15.006  11.465  11.653  0.0324  0.0318  0.2245
 7807W        W24654  10.750   3.263  13.052 -0.1359 -0.1532 -0.1741
 7808W        W24655  11.432  15.762  10.800 -0.0726 -0.0685  0.3967
 7809W        W24656   1.301  12.163  12.267 -0.3835 -0.0176  0.0648
 7810W        W24657  12.395   5.681  13.777  0.2434 -0.4601  0.2856
 7811W        W24658   3.047  18.395   0.713 -0.0686 -0.0329  0.1726
 7812W        W24659   3.562   0.259  10.235 -0.1654  0.1091  0.1606
 7813W        W24660  19.268  16.585   0.477  0.0656 -0.0106  0.2334
 7814W        W24661   6.139  18.043  13.277  0.3087 -0.0790 -0.3736
 7815W        W24662   2.920   6.411  14.242  0.0539  0.2622  0.2541
 7816W        W24663  17.948   5.722   0.261 -0.1760  0.0187 -0.3896
 7817W        W24664  12.132   6.959   0.351 -0.4268 -0.1190 -0.1596
 7818W        W24665  15.462   0.833   0.661  0.1258 -0.1307  0.1581
 7819W        W24666   9.819  16.809  10.101 -0.2619  0.3766  0.1312
 7820W        W24667   8.926   6.065  11.655 -0.5433 -0.0304  0.1310
 7821W        W24668   8.322   7.044  13.183  0.0223 -0.1167  0.1641
 7822W        W24669   1.044  19.253   0.606 -0.1149  0.0184 -0.0043
 7823W        W24670  15.300  14.751  12.187 -0.0372 -0.0139  0.1841
 7824W        W24671   9.375  18.075  12.990  0.1724  0.2345 -0.0369
 7825W        W24672  14.452   2.963   4.395  0.0040 -0.3456 -0.1217
 7826W        W24673  15.467  19.655  10.838  0.1614 -0.1035  0.1349
 7827W        W24674   7.385   6.589   4.331  0.0648  0.1270  0.0403
 7828W        W24675  17.312  10.239   3.722 -0.0000  0.0133  0.3869
 7829W        W24676  10.864   1.764   2.229  0.0381  0.5087 -0.0920
 7830W        W24677  17.186  12.900   3.743  0.0712  0.0846  0.0134
 7831W        W24678  16.581  10.592  11.297  0.0477  0.0610  0.0700
 7832W        W24679  16.695   1.787  10.788  0.0565  0.2895 -0.2485
 7833W        W24680  15.858  13.126   2.129 -0.0751  0.2459  0.0194
 7834W        W24681   3.631   8.824  12.518 -0.2366  0.0489 -0.0193
 7835W        W24682  11.272  12.970  13.846 -0.1170 -0.1741  0.1647
 7836W        W24683   5.558   2.662  12.424  0.0361 -0.1808 -0.0505
 7837W        W24684   9.982   5.816  12.946  0.5224  0.0148 -0.0028
 7838W        W24685   3.062   4.143   4.185 -0.0784  0.2142 -0.0154
 7839W        W24686   2.544  15.697   9.585  0.1110  0.0026 -0.2090
 7840W        W24687  15.253   9.508   2.947  0.3135  0.0068  0.2629
 7841W        W24688   1.731   5.969  14.072  0.3101 -0.2570 -0.0818
 7842W        W24689  19.706  19.449  13.628 -0.1201 -0.0688 -0.3417
 7843W        W24690  12.649  16.440  10.865 -0.1062 -0.1506 -0.0242
 7844W        W24691   6.284   0.207   2.742 -0.0700  0.2303  0.0739
 7845W        W24692   3.773   9.026  11.044 -0.0582 -0.1883  0.0013
 7846W        W24693  13.058   2.495  12.747  0.2009  0.0144 -0.1213
 7847W        W24694   4.935  15.133  12.924 -0.0664 -0.0668  0.3219
 7848W        W24695   4.150   5.601   3.618  0.1100 -0.0039 -0.2212
 7849W        W24696   7.137  17.597   3.426 -0.3198 -0.0113  0.1327
 7850W        W24697  11.569   7.372  13.253 -0.1239  0.3827 -0.3862
 7851W        W24698  19.417  10.618   3.640 -0.0422 -0.0844 -0.2947
 7852W        W24699  17.965   9.360  12.368 -0.0955 -0.2216  0.0459
 7853W        W24700   9.452   5.392   1.440  0.0608 -0.0664  0.0584
 7854W        W24701  18.096  14.927  13.249  0.0193 -0.0304  0.4307
 7855W        W24702   6.769   5.933  12.555  0.1615 -0.1474  0.0632
 7856W        W24703   0.279   4.785   1.859 -0.1552  0.1048 -0.0130
 7857W        W24704  12.251  10.998  10.356 -0.2403 -0.0066  0.1762
 7858W        W24705  17.146  15.982  11.896 -0.0995  0.1725 -0.0758
 7859W        W24706   3.344  12.274   8.741  0.3915 -0.1620 -0.1614
 7860W        W24707   5.465   1.494   2.236 -0.4661  0.0168 -0.1630
 7861W        W24708  14.381   4.669   2.969 -0.3261 -0.1654 -0.1521
 7862W        W24709  14.452  10.905  12.054 -0.2509 -0.3252 -0.0607
 7863W        W24710   2.873   0.849   1.101  0.0496 -0.1451  0.0829
 7864W        W24711  12.214  12.712   4.052  0.0537 -0.1948  0.0817
 7865W        W24712  14.875  14.645  13.783 -0.3447 -0.0577 -0.1914
 7866W        W24713  17.673  19.141  14.191 -0.0117  0.0589  0.1550
 7867W        W24714   0.243   0.591   4.573  0.5126  0.2396  0.1109
 7868W        W24715   3.121  19.912   4.087 -0.1583 -0.0053 -0.0798
 7869W        W24716   3.954  16.065  11.070  0.2123  0.0468 -0.0984
 7870W        W24717   7.721   5.289   0.270 -0.0506  0.0817  0.1597
 7871W        W24718   8.444   6.249   4.526 -0.0187 -0.3976  0.2220
 7872W        W24719   1.609  15.848  13.283  0.0324 -0.0536  0.0426
 7873W        W24720  19.806   3.404   1.571  0.0883  0.2106 -0.0423
 7874W        W24721   0.173   6.215  12.302  0.0907 -0.0291  0.3156
 7875W        W24722   2.646  17.120   0.825  0.0636  0.0775  0.0627
 7876W        W24723  13.952  15.842   9.613  0.2492 -0.0616  0.1752
 7877W        W24724  19.794   8.451   4.242 -0.0261  0.1041 -0.2202
 7878W        W24725  12.839   0.559  12.364 -0.0276 -0.4280  0.3462
 7879W        W24726   5.986  14.710   2.028  0.2612 -0.0321 -0.2604
 7880W        W24727   2.523  17.937  12.977 -0.3154 -0.2520  0.1423
 7881W        W24728   1.844  15.041   4.144 -0.0926 -0.0652  0.1121
 7882W        W24729  12.369  10.680  12.790  0.0412  0.0818 -0.1634
 7883W        W24730  11.212   9.272   1.017 -0.0337  0.1767 -0.1643
 7884W        W24731   9.189   0.628  12.145 -0.0326 -0.2686 -0.1001
 7885W        W24732   5.906  16.277   2.975 -0.2260 -0.4276 -0.0847
 7886W        W24733   5.445   0.239  13.061 -0.0025 -0.0896  0.0171
 7887W        W24734   7.982   1.882  12.635 -0.0867  0.0556  0.1215
 7888W        W24735  16.272  14.941   9.502 -0.0345 -0.0778 -0.0347
 7889W        W24736   0.850  15.139  12.222  0.3895 -0.0335 -0.1382
 7890W        W24737   2.316   8.647   2.057  0.1201 -0.1732  0.0317
 7891W        W24738   9.315  18.794   2.426  0.1339 -0.2218 -0.0860
 7892W        W24739  15.197  19.899  13.630  0.0823  0.0279  0.2537
 7893W        W24740  16.567  18.455   2.098 -0.0694  0.2095 -0.3049
 7894W        W24741   7.130   2.499  13.753 -0.2835  0.1850 -0.1528
 7895W        W24742   3.257   3.692   3.694 -0.1558 -0.4677  0.1598
 7896W        W24743  19.716  14.848  11.430 -0.2801  0.1039  0.0299
 7897W        W24744  16.149   9.648   1.545  0.0834  0.1508  0.1561
 7898W        W24745   1.195  18.915   2.540 -0.2244 -0.1738 -0.0860
 7899W        W24746  11.210  13.165  12.780  0.1608  0.0882  0.0326
 7900W        W24747  11.861  13.079  13.195  0.0388  0.1154  0.0047
 7901W        W24748   4.606  17.834   1.878  0.2247 -0.5295 -0.2727
 7902W        W24749  11.425   2.340   3.717  0.1321  0.2845 -0.0782
 7903W        W24750   0.623   2.760   0.129 -0.1945 -0.0338  0.0259
 7904W        W24751  10.449  10.177   4.194  0.1196 -0.0370  0.0253
 7905W        W24752  17.596  12.050  11.427 -0.2986 -0.1202 -0.1194
 7906W        W24753   7.647  15.401  11.198 -0.3810 -0.0117 -0.0936
 7907W        W24754   9.333   1.657   1.679  0.2363  0.0694  0.0139
 7908W        W24755   1.588   5.282   1.258  0.2715 -0.3410 -0.4295
 7909W        W24756  14.764   8.658   2.821  0.0610  0.0788 -0.0497
 7910W        W24757   5.483   5.250   9.871 -0.0142 -0.4119 -0.2024
 7911W        W24758   0.619  13.587   4.726 -0.3710 -0.2238 -0.0745
 7912W        W24759  16.963  14.594   0.705  0.1610  0.1602  0.1251
 7913W        W24760  14.599   0.050   2.879 -0.0682  0.0084  0.0997
 7914W        W24761  17.378   0.956  11.025  0.1998  0.1368 -0.2581
 7915W        W24762   2.135  15.208   1.284  0.3407 -0.0084 -0.0548
 7916W        W24763   5.480   8.957  12.441  0.0203 -0.0627 -0.1733
 7917W        W24764   9.582   4.981   4.998 -0.1229  0.4643 -0.1379
 7918W        W24765  18.726   7.178   2.034  0.1089 -0.4018  0.1427
 7919W        W24766  10.739   8.951   2.826 -0.0797 -0.0472  0.1964
 7920W        W24767   3.907   1.089   1.410  0.1245 -0.0632 -0.0339
 7921W        W24768   9.956  12.546  12.067  0.3420  0.0267 -0.2587
 7922W        W24769  10.892   6.986   0.834  0.1570 -0.0079  0.1866
 7923W        W24770  12.437   8.188  12.196 -0.2600  0.1035  0.2622
 7924W        W24771   0.384  16.440   4.167 -0.2074 -0.1021  0.3337
 7925W        W24772   6.480   6.817   2.718  0.1768 -0.2238 -0.1327
 7926W        W24773   9.405   9.060  13.333  0.3442 -0.2524 -0.3767
 7927W        W24774   2.534  10.907   2.489  0.1425  0.4378 -0.0319
 7928W        W24775   7.432  13.693   2.513 -0.2292  0.0895 -0.0016
 7929W        W24776   7.340  12.252   1.479 -0.0502  0.1413 -0.1062
 7930W        W24777  19.306  10.652  10.037  0.0476 -0.0334 -0.0160
 7931W        W24778  16.810  11.186  12.747  0.1158 -0.2571  0.3083
 7932W        W24779   9.529   1.317   2.192  0.0345 -0.0187 -0.1286
 7933W        W24780   8.585  15.581   1.874  0.0105 -0.1030 -0.1507
 7934W        W24781   3.401  11.357  11.937 -0.1581  0.0787  0.0017
 7935W        W24782   5.935  11.736   0.098  0.1648  0.1104 -0.2332
 7936W        W24783   8.943   5.620   2.567  0.0332  0.0547 -0.1730
 7937W        W24784   7.440   6.046   0.083 -0.1618  0.1118 -0.1363
 7938W        W24785  13.404  13.036   1.750 -0.2135  0.3879 -0.0796
 7939W        W24786  12.647   2.757  12.592 -0.0393  0.0390  0.1324
 7940W        W24787   1.114   0.390   2.628 -0.1290 -0.1058 -0.0313
 7941W        W24788  19.903   3.227  10.533  0.1113 -0.0223 -0.2498
 7942W        W24789   9.199   7.456   2.321  0.3341  0.3047  0.1210
 7943W        W24790  13.670   9.785   0.761 -0.1455  0.0830  0.1677
 7944W        W24791   9.606   6.311  10.290  0.0783 -0.0046  0.1255
 7945W        W24792   7.582   1.627   3.271  0.0239 -0.0683 -0.3669
 7946W        W24793   2.854  14.748  10.059  0.1212  0.0722 -0.1408
 7947W        W24794  13.996   3.431   5.126  0.2387  0.2637 -0.2229
 7948W        W24795  12.201   8.929  11.794  0.1998  0.0653 -0.2569
 7949W        W24796  12.607   8.816  10.012  0.2857  0.2528 -0.4319
 7950W        W24797   9.062   0.428   2.638  0.2750  0.0164 -0.2035
 7951W        W24798  11.422  10.262  12.251 -0.0599  0.0943 -0.0209
 7952W        W24799  16.514   8.473  10.920 -0.0249  0.1733 -0.1792
 7953W        W24800  17.186  14.178  14.200  0.0395  0.1016  0.0262
 7954W        W24801   8.725   5.418   1.854  0.3958 -0.1894 -0.0491
 7955W        W24802  17.091   5.011   0.890  0.1973 -0.1506 -0.1491
 7956W        W24803   6.706   5.141   3.277 -0.1339 -0.0589  0.4847
 7957W        W24804  12.009   1.045  12.193  0.1340 -0.1939  0.0914
 7958W        W24805   6.114  13.057   1.537  0.3896  0.0410  0.0357
 7959W        W24806  14.013  16.427   2.614  0.1577  0.2177  0.0372
 7960W        W24807  19.015  12.355  12.211  0.0585 -0.2349  0.3815
 7961W        W24808  12.455  11.260  10.768 -0.1920 -0.1703 -0.1559
 7962W        W24809  15.083   8.224   2.919 -0.0569 -0.2524 -0.4012
 7963W        W24810   5.598   7.780  10.075  0.1746  0.0472 -0.0076
 7964W        W24811   4.098   2.226   9.662 -0.0530  0.2103 -0.0512
 7965W        W24812  18.149   1.820   1.921  0.2123 -0.2591  0.0372
 7966W        W24813   6.075  11.232   4.379 -0.0350  0.1997 -0.0514
 7967W        W24814  12.211   7.024   2.421  0.1648  0.2799  0.0638
 7968W        W24815  13.755   8.255   5.186  0.0183  0.0912  0.1715
 7969W        W24816  15.246  13.179   4.346  0.4329 -0.1347 -0.0009
 7970W        W24817  14.517  18.254  10.240  0.1843  0.3297  0.1275
 7971W        W24818   6.039   3.079  14.142 -0.1529 -0.1185 -0.0661
 7972W        W24819   5.987  18.089  12.836  0.0961 -0.1149  0.1303
 7973W        W24820   4.581  16.798   0.246  0.1637  0.0838  0.0440
 7974W        W24821  11.513  12.236  13.656  0.0642 -0.2855 -0.2921
 7975W        W24822  17.575  14.365  10.712 -0.0355  0.0578 -0.0331
 7976W        W24823  10.047  14.012   3.271  0.0517  0.0149  0.0466
 7977W        W24824   4.044   8.138  10.248  0.1689  0.2892  0.1389
 7978W        W24825  17.288   0.472  10.063  0.1662  0.0736  0.2950
 7979W        W24826  11.431   2.089   0.479  0.3563 -0.0816 -0.0262
 7980W        W24827  17.038  17.882  12.520  0.1919 -0.0548 -0.0229
 7981W        W24828  11.769  15.315  11.804  0.2386 -0.1741 -0.2163
 7982W        W24829   9.494   2.201  12.793 -0.0678 -0.0777 -0.0064
 7983W        W24830   3.404   6.155  12.807  0.0564  0.2166  0.1704
 7984W        W24831  19.110   8.946   2.976  0.2323 -0.3735  0.0462
 7985W        W24832   7.598   9.576  12.062 -0.1649  0.0051 -0.0545
 7986W        W24833  13.355  17.289  12.863 -0.0028  0.0956  0.0569
 7987W        W24834   4.904  10.060   4.641 -0.0833 -0.0296  0.0478
 7988W        W24835   8.069  15.891   4.945 -0.0192 -0.0912 -0.2817
 7989W        W24836  12.713  10.242   4.923 -0.2185  0.2427  0.0184
 7990W        W24837   0.783  13.950  13.083  0.0983  0.2621  0.0191
 7991W        W24838  11.078   9.884  10.107  0.0051 -0.0719  0.0775
 7992W        W24839  17.338   8.094  10.977 -0.0291 -0.0915  0.3832
 7993W        W24840  14.025  10.620   2.473 -0.1364 -0.1385  0.0024
 7994W        W24841  15.966   5.152   4.702 -0.0556 -0.1549 -0.2852
 7995W        W24842   5.651  14.048  12.857 -0.0729  0.2077  0.0936
 7996W        W24843  19.488  12.140   3.265 -0.2362  0.2507 -0.2763
 7997W        W24844  13.966   7.428   3.612 -0.2535 -0.2220  0.1797
 7998W        W24845  10.331   2.809  11.494  0.1640  0.2111 -0.2825
 7999W        W24846   0.493   1.993  12.887  0.2566 -0.0454 -0.3848
 8000W        W24847   3.980  13.911   9.745 -0.0626 -0.2370  0.0658
 8001W        W24848  11.765   4.589  13.204 -0.0078  0.2238 -0.0801
 8002W        W24849  14.835   2.834  11.874 -0.1408  0.0354 -0.0766
 8003W        W24850  17.587   5.217  10.766  0.1480  0.1945  0.0637
 8004W        W24851  10.038  14.483   8.765  0.1927 -0.1887  0.0178
 8005W        W24852  17.862  11.008   2.542 -0.0492 -0.2793  0.0904
 8006W        W24853  12.276  10.675   1.445 -0.0692 -0.1698  0.3605
 8007W        W24854  14.094   4.609   2.552  0.0578  0.1991 -0.0003
 8008W        W24855  18.836   6.485  12.605 -0.0852 -0.0717  0.4468
 8009W        W24856  19.202   5.616   1.744 -0.0417  0.1608 -0.0259
 8010W        W24857   8.694   0.701  12.293 -0.1519 -0.1167  0.1553
 8011W        W24858   6.532  14.592   3.926 -0.2145 -0.1496 -0.2920
 8012W        W24859  11.418   5.695  13.388 -0.1166 -0.3079  0.4763
 8013W        W24860  16.556  11.589  13.594 -0.2058  0.1095  0.0209
 8014W        W24861  14.817   4.823   4.610  0.3557  0.0380  0.1683
 8015W        W24862   4.183  18.506  11.176 -0.4135 -0.1984 -0.0287
 8016W        W24863   7.208  11.145   2.844  0.2399 -0.0883 -0.0110
 8017W        W24864  19.895   2.414  12.365 -0.4540  0.3225 -0.1617
 8018W        W24865  16.192  12.065   4.765  0.1773  0.0773 -0.3135
 8019W        W24866  15.883  17.352   3.992 -0.1000  0.1888 -0.1819
 8020W        W24867  19.345  16.624   3.010 -0.0298  0.1446 -0.1056
 8021W        W24868  16.319   0.732   1.124 -0.1844 -0.2855 -0.1843
 8022W        W24869  11.102   0.686   5.007  0.1510 -0.1907 -0.2485
 8023W        W24870  17.253   1.019  13.922 -0.2835 -0.2784  0.0687
 8024W        W24871   2.026  14.210  10.018 -0.0745  0.1175 -0.4126
 8025W        W24872  13.141   6.165  12.536  0.1499 -0.2344  0.0175
 8026W        W24873  18.364  19.900  14.172 -0.2265 -0.0013 -0.0436
 8027W        W24874  11.648  17.543  12.569 -0.1603 -0.2809 -0.0680
 8028W        W24875  11.076   8.210  12.545  0.0507 -0.3093  0.1268
 8029W        W24876   5.351  13.783  13.397 -0.0581  0.2714  0.0708
 8030W        W24877  16.530   1.996  10.141  0.0180 -0.1361  0.1845
 8031W        W24878   2.668   2.211  13.334  0.2234 -0.0595 -0.0626
 8032W        W24879   8.018   0.263  11.536  0.0173 -0.0260 -0.0697
 8033W        W24880   9.341   6.202   2.715 -0.1096 -0.3229 -0.3089
 8034W        W24881   8.503   4.254  13.945  0.1520 -0.0963  0.1341
 8035W        W24882   2.971   5.289   1.435  0.3332 -0.0440  0.0843
 8036W        W24883   1.037  13.398  10.633  0.1211 -0.0581 -0.0018
 8037W        W24884   7.477   3.548  13.776 -0.0153  0.2357  0.1638
 8038W        W24885  16.050  16.594  13.738  0.1028 -0.1053 -0.0216
 8039W        W24886   3.520   1.020   4.434 -0.0837 -0.0080 -0.1593
 8040W        W24887  10.918  16.618  11.365 -0.0800 -0.0163  0.0697
 8041W        W24888   8.675  10.588   3.034 -0.1119  0.3030 -0.1423
 8042W        W24889   6.606  11.881   0.993  0.3109 -0.1235 -0.0588
 8043W        W24890  13.837   1.218   3.544 -0.0686 -0.4614 -0.1245
 8044W        W24891  17.044   9.457  12.118 -0.2802 -0.0950  0.0063
 8045W        W24892   6.340  18.677   9.825  0.0044  0.1299  0.1698
 8046W        W24893   7.262   7.682  10.387  0.0184  0.3023 -0.0622
 8047W        W24894  15.927   8.385  13.189 -0.3013  0.0011  0.3663
 8048W        W24895  16.765  11.334   1.791 -0.0151  0.2509 -0.0450
 8049W        W24896  18.154   4.881  10.193 -0.0547 -0.0224  0.2147
 8050W        W24897   8.646   4.912   1.867  0.0188  0.3188  0.0459
 8051W        W24898  15.860  11.155   3.704  0.0837 -0.0726  0.1483
 8052W        W24899  11.653  17.913  11.330 -0.2233  0.1970  0.0335
 8053W        W24900   0.265  14.866  11.668  0.3646  0.1361 -0.2320
 8054W        W24901  13.052  19.909  13.188  0.0340  0.0354 -0.1210
 8055W        W24902  16.247  19.306   1.625 -0.1973 -0.1611  0.2703
 8056W        W24903   9.469  17.096   2.054  0.1818 -0.2345  0.0973
 8057W        W24904   5.838  15.302   9.861  0.0102 -0.4849  0.2522
 8058W        W24905   0.533  19.596   9.707  0.3039  0.0481 -0.0661
 8059W        W24906   6.614   6.168  13.838  0.0379 -0.1929 -0.2671
 8060W        W24907  12.710  12.024   0.690 -0.1415  0.2580 -0.0930
 8061W        W24908  14.785   0.387   1.459  0.1788 -0.1657  0.0797
 8062W        W24909  16.159   4.543   1.948  0.1293  0.0229  0.0618
 8063W        W24910   4.732  18.599   0.969 -0.0627  0.0220  0.0783
 8064W        W24911  14.731   8.341   0.628 -0.0594  0.1218 -0.1470
 8065W        W24912   6.411   6.917   1.699  0.0396 -0.3953  0.0483
 8066W        W24913  19.226   7.254  13.546 -0.1612  0.0012  0.0636
 8067W        W24914   6.111   6.405  13.822 -0.0473  0.1258  0.0600
 8068W        W24915  15.886   7.719  12.011  0.1760  0.1516  0.1895
 8069W        W24916   0.270  14.900   2.844 -0.1149  0.0090  0.4185
 8070W        W24917   2.038  16.338   4.635 -0.1639 -0.1260  0.1021
 8071W        W24918  16.816  18.738   3.516 -0.1383  0.1841  0.0659
 8072W        W24919   4.918  14.364   3.419 -0.2422  0.0428  0.1504
 8073W        W24920  12.358   7.289   3.182  0.3693 -0.3315 -0.1694
 8074W        W24921   3.655   7.162  13.836 -0.2282 -0.0898 -0.0192
 8075W        W24922   2.391   6.970  10.062 -0.3374  0.0861 -0.0271
 8076W        W24923   9.339  19.373   4.734  0.1748  0.0541  0.3146
 8077W        W24924  11.408  11.691  13.562  0.0836 -0.2210 -0.2081
 8078W        W24925   9.167  18.971   9.789  0.0785  0.0143 -0.2162
 8079W        W24926   9.360   3.125   1.501 -0.1052 -0.0019  0.0451
 8080W        W24927  17.873  14.440   1.569 -0.2139  0.2678 -0.1502
 8081W        W24928  18.573   2.984   4.061 -0.3087 -0.2874  0.1753
 8082W        W24929  16.344   9.171   0.769 -0.2054 -0.3260  0.0791
 8083W        W24930   7.890   7.402  12.083 -0.1309  0.0712  0.1742
 8084W        W24931   0.075  17.780   4.369  0.1595 -0.1018 -0.1567
 8085W        W24932  16.883  18.902   2.935 -0.0740  0.0577  0.0865
 8086W        W24933   7.884  13.731   4.054 -0.1036 -0.1342 -0.1896
 8087W        W24934   4.345  11.411  10.746  0.0279  0.1292  0.0722
 8088W        W24935  16.467   8.099   2.306  0.2656  0.0981 -0.6945
 8089W        W24936  12.631  15.880  13.092 -0.2097  0.0461  0.1356
 8090W        W24937  16.129   5.549  14.301  0.2772 -0.3187  0.0201
 8091W        W24938  13.916   8.588   4.030 -0.1989  0.0784  0.0145
 8092W        W24939  13.506  16.056  13.609  0.1110 -0.2532  0.2097
 8093W        W24940  19.573   7.464   1.805  0.1950  0.1601  0.0846
 8094W        W24941  18.048   1.490   2.945 -0.0431  0.2289  0.1566
 8095W        W24942  18.710  13.225   3.025  0.0542 -0.1275 -0.0768
 8096W        W24943  17.664   6.269  11.486 -0.0995  0.1532 -0.0449
 8097W        W24944  10.852   2.708   4.813 -0.2709 -0.2034 -0.1188
 8098W        W24945   6.248  14.576   9.980  0.0726  0.1254 -0.0292
 8099W        W24946   8.866  12.141  10.753 -0.0166  0.2767 -0.1262
 8100W        W24947  17.250   6.257  11.095  0.0921  0.1971 -0.2554
 8101W        W24948  18.186   5.662  11.582 -0.3291 -0.3834 -0.1613
 8102W        W24949   2.338  19.131   1.333 -0.0110  0.2574 -0.1629
 8103W        W24950   8.766   8.032   1.822  0.2429 -0.3346 -0.0522
 8104W        W24951   9.060   0.976   9.352  0.0224 -0.0435 -0.0180
 8105W        W24952   6.283   6.018  12.754  0.3501  0.0085 -0.1072
 8106W        W24953  18.402   0.074   3.656  0.3907 -0.1563  0.5533
 8107W        W24954  15.534   5.931  12.902  0.0861  0.0489 -0.1725
 8108W        W24955   0.563  11.372  13.894  0.0528  0.1140 -0.0606
 8109W        W24956   9.139   3.196  11.145 -0.2409  0.2018  0.6654
 8110W        W24957   8.448  15.677   0.223 -0.4431  0.1097 -0.2993
 8111W        W24958  10.023   6.223  11.656  0.1202  0.0887 -0.0806
 8112W        W24959  19.586   7.549  11.995  0.2459  0.1658  0.0664
 8113W        W24960  12.687   1.100  11.992  0.1331  0.1523 -0.0187
 8114W        W24961  11.898   9.857  13.016 -0.3252  0.2988  0.2247
 8115W        W24962  13.536  16.889  11.695 -0.4358  0.2503  0.0983
 8116W        W24963  19.482  18.695  10.713  0.0437  0.3238 -0.0206
 8117W        W24964  17.173  11.925  11.199  0.1758 -0.1239 -0.1230
 8118W        W24965  18.516  13.338   4.116 -0.1049 -0.3650 -0.0915
 8119W        W24966  16.119  13.282  13.050  0.1396 -0.0021 -0.0996
 8120W        W24967   2.913   3.617  10.306 -0.4814  0.0411 -0.2740
 8121W        W24968  12.182  10.086  10.842 -0.3529 -0.2106  0.3450
 8122W        W24969  16.300   1.410   4.194  0.0359  0.0567  0.1023
 8123W        W24970  12.162  12.158   4.009  0.0731  0.1697 -0.4366
 8124W        W24971  13.032   2.997   3.459 -0.1233 -0.3280 -0.2877
 8125W        W24972   6.230  12.116  11.674  0.0882  0.0879 -0.0949
 8126W        W24973   0.357   6.128  14.310  0.0601 -0.1646  0.1235
 8127W        W24974  18.463   1.473   2.658  0.2177 -0.1688  0.1224
 8128W        W24975  15.329  17.009  13.676  0.2037  0.1613  0.0834
 8129W        W24976   4.098  19.004  10.335  0.0037 -0.0810 -0.2118
 8130W        W24977   5.651   2.071  13.952  0.0824  0.0996  0.1056
 8131W        W24978   0.442   4.288  11.111 -0.1397  0.0506  0.0976
 8132W        W24979  19.401   3.905  13.817 -0.0057 -0.2259  0.0862
 8133W        W24980  13.480   7.469   1.487  0.0760 -0.1476 -0.1174
 8134W        W24981  16.105  19.817  13.236 -0.2096  0.1602  0.2009
 8135W        W24982   8.067   6.876   1.104  0.0210 -0.1211 -0.3251
 8136W        W24983  12.029   4.453   1.661  0.0459  0.0722 -0.2740
 8137W        W24984   8.435   5.240  10.496 -0.2446  0.0177  0.1216
 8138W        W24985   2.783   3.326  12.449 -0.0786 -0.4592 -0.2407
 8139W        W24986   7.573   4.167  12.610 -0.0413 -0.0502 -0.0475
 8140W        W24987   2.106  11.334   3.912 -0.0465 -0.0965  0.0189
 8141W        W24988   4.901  16.618   3.087  0.1475  0.0708 -0.1987
 8142W        W24989   5.928  13.758  11.102 -0.1085 -0.2716 -0.0712
 8143W        W24990  10.752  16.856  10.321 -0.1160 -0.1109 -0.1737
 8144W        W24991   4.774  19.205  11.797  0.3315  0.0937  0.3330
 8145W        W24992   0.485  15.631  13.362 -0.0096 -0.0505 -0.1984
 8146W        W24993  15.477   3.726  12.108  0.2627  0.1520 -0.0642
 8147W        W24994  11.408   1.851  12.976  0.1197 -0.6683 -0.0453
 8148W        W24995  17.701  17.489  13.848  0.0028  0.1884  0.0570
 8149W        W24996   4.172  11.836   1.723  0.0246  0.2927  0.1923
 8150W        W24997  19.383  18.051  13.065  0.0326  0.3344 -0.2986
 8151W        W24998  18.157  11.912  14.028 -0.1310 -0.4819 -0.1689
 8152W        W24999   8.304   9.754   1.510  0.0676  0.2642  0.0332
 8153W        W25000  14.387   8.626   3.770  0.1561 -0.3168 -0.1489
 8154W        W25001  11.590  16.674  12.927  0.1834  0.0211  0.1544
 8155W        W25002   5.089   2.268   2.322 -0.2781 -0.2067 -0.0723
 8156W        W25003   4.361  19.740   1.744 -0.2610  0.0340 -0.1507
 8157W        W25004  16.305  17.467   3.007 -0.4105 -0.1822  0.0923
 8158W        W25005   0.831   4.495   4.092  0.1336 -0.1354  0.3511
 8159W        W25006  11.135  16.092  13.657 -0.1803  0.1326 -0.0282
 8160W        W25007   7.066  11.409   4.188 -0.0619 -0.1400 -0.2054
 8161W        W25008   7.778   1.130   2.634 -0.0347  0.1018  0.1701
 8162W        W25009   1.396   2.165  11.254  0.0776 -0.1829  0.2144
 8163W        W25010   6.493  18.654  10.568  0.0707  0.0876 -0.4956
 8164W        W25011  16.713   1.909  14.224  0.2411  0.1128 -0.3029
 8165W        W25012  18.311   8.203   4.259  0.1948 -0.1680  0.1334
 8166W        W25013   5.222  10.120  11.902 -0.2263 -0.0434 -0.0005
 8167W        W25014  12.348  18.651  12.693  0.0116  0.0796  0.1321
 8168W        W25015  16.699  19.158  13.534 -0.2079  0.1681 -0.1855
 8169W        W25016   9.017   9.781   3.473 -0.0013  0.3601  0.2318
 8170W        W25017   3.379  13.960   1.718  0.1100  0.0945  0.0189
 8171W        W25018  13.554  12.321  13.705 -0.4015  0.0399  0.1283
 8172W        W25019   6.269   6.726   4.226  0.0522 -0.2544  0.0914
 8173W        W25020   8.273   3.438   4.613 -0.0576 -0.0009 -0.1417
 8174W        W25021  14.834  18.811   2.873  0.2651  0.0522  0.3119
 8175W        W25022   7.472   5.047  12.859  0.0340 -0.5460  0.0843
 8176W        W25023  18.701   6.965   1.363  0.1548 -0.1097  0.1397
 8177W        W25024   8.632   1.972   1.144 -0.2534  0.1376  0.2877
 8178W        W25025   3.123   5.081   9.586  0.0992 -0.2661 -0.2240
 8179W        W25026  10.856   3.272   1.222  0.0748 -0.1254 -0.0796
 8180W        W25027  17.906   8.386   0.627  0.0536  0.3497  0.1593
 8181W        W25028   4.408  11.924  12.185 -0.1727  0.2101  0.0450
 8182W        W25029  12.526   6.422   4.338  0.0498  0.2066 -0.3770
 8183W        W25030  12.433   5.483   1.485  0.0232  0.4342 -0.1467
 8184W        W25031  13.152   3.865  11.909  0.0964  0.0985  0.1800
 8185W        W25032  17.456  14.869   1.547 -0.0833  0.2405 -0.1114
 8186W        W25033  12.128  16.780   2.926  0.0305  0.0898  0.0324
 8187W        W25034  17.630  17.518   0.859 -0.4228  0.1919 -0.0317
 8188W        W25035   5.021   7.751  11.856  0.3546  0.2852  0.1400
 8189W        W25036   8.809   8.619  14.272 -0.0381 -0.2154 -0.0851
 8190W        W25037  15.516  15.146   3.195 -0.0722  0.2719  0.1871
 8191W        W25038   8.267   8.346  10.745  0.0520  0.0804 -0.2179
 8192W        W25039  13.661   9.515   3.335 -0.1283  0.1767 -0.1875
 8193W        W25040   3.031  17.287   2.499  0.0851 -0.1809  0.5046
 8194W        W25041   4.660   4.320  13.782  0.1024  0.1423  0.0973
 8195W        W25042   4.337  10.187  12.293 -0.0411  0.3429  0.0423
 8196W        W25043   3.406   1.231  10.178 -0.0975 -0.0680  0.0719
 8197W        W25044   2.297  18.468   4.126 -0.2340  0.1959 -0.0993
 8198W        W25045   0.632   7.444   0.357 -0.1487 -0.4123 -0.1113
 8199W        W25046  15.244   1.361  12.769  0.3451  0.0995  0.1009
 8200W        W25047  16.603   0.107  11.888 -0.1106 -0.0375  0.1210
 8201W        W25048  11.567  18.958   0.340  0.2743  0.0669  0.0478
 8202W        W25049   8.844  18.405  13.312 -0.2838  0.0870 -0.1398
 8203W        W25050   9.388   5.534   2.347 -0.0266 -0.3270  0.1279
 8204W        W25051  15.154  19.838  12.299 -0.2793 -0.3698 -0.1937
 8205W        W25052  16.175  17.317  11.610  0.0741 -0.0185  0.1216
 8206W        W25053   4.770   6.659   2.770  0.1297 -0.4331  0.0027
 8207W        W25054  10.680  19.900   2.911 -0.1104  0.0280  0.0225
 8208W        W25055   6.004  16.184  13.905  0.1796 -0.3221 -0.1331
 8209W        W25056  10.010  18.291   4.230  0.1360  0.0527  0.0735
 8210W        W25057  15.201   1.410   2.544 -0.1800 -0.1916  0.0555
 8211W        W25058  12.168   8.844   1.271 -0.4027  0.1116 -0.1040
 8212W        W25059  13.826  17.193  13.160  0.2129 -0.3807  0.1014
 8213W        W25060   2.610  17.425  12.940  0.1351  0.1246  0.0092
 8214W        W25061   4.013   5.580   5.312 -0.2227  0.0443  0.0026
 8215W        W25062   5.778   3.425   1.405  0.1024 -0.3322 -0.0768
 8216W        W25063   3.532  13.108   0.051  0.2248  0.0513 -0.3853
 8217W        W25064  16.448  19.704  12.332 -0.1267  0.2196 -0.2750
 8218W        W25065   3.496  17.302   5.187  0.0847  0.1769  0.1140
 8219W        W25066  15.037  14.980   9.959 -0.1047  0.0035  0.0295
 8220W        W25067  13.754  13.483  10.811 -0.3581 -0.1950  0.1025
 8221W        W25068   9.271  10.513   0.804 -0.0556 -0.1590  0.1338
 8222W        W25069  17.571   1.480   1.588  0.2894 -0.1333 -0.3941
 8223W        W25070  13.269   7.066   3.283 -0.1120 -0.2985 -0.2537
 8224W        W25071   3.389   9.683  13.130 -0.1874  0.1554 -0.2738
 8225W        W25072  15.738  16.680  11.880  0.3450 -0.1785 -0.1037
 8226W        W25073  17.442   5.010   3.290 -0.4497 -0.1035 -0.0951
 8227W        W25074   8.855   0.447  13.112 -0.3515  0.0662  0.0313
 8228W        W25075  12.095  18.171   4.035  0.1749  0.0909  0.2035
 8229W        W25076  19.172  17.681  12.064  0.0394  0.0557  0.0926
 8230W        W25077  10.516   0.342  12.343 -0.2212 -0.2561  0.0548
 8231W        W25078  12.087   3.990   3.361  0.1862 -0.0359  0.0180
 8232W        W25079  11.230   6.800   2.250  0.0973  0.2456 -0.3014
 8233W        W25080  13.861  16.200   4.190  0.0984 -0.1111 -0.3170
 8234W        W25081  17.308  16.618  11.077  0.3652 -0.4086 -0.0074
 8235W        W25082  16.332   4.529   5.059 -0.4385 -0.2327 -0.0817
 8236W        W25083   6.148   9.605   4.231  0.0989 -0.2200  0.0641
 8237W        W25084   7.604   9.863   3.083  0.0797  0.1784 -0.0642
 8238W        W25085   3.650   4.806   0.153 -0.0342  0.2333  0.0612
 8239W        W25086  15.872   9.181   4.557 -0.0542  0.0049 -0.0394
 8240W        W25087  12.832  17.850  14.091  0.2169 -0.1792 -0.0815
 8241W        W25088  10.383   0.187   3.845  0.1096 -0.0636 -0.0664
 8242W        W25089  18.060  10.492   2.782 -0.1178 -0.0609  0.1329
 8243W        W25090  11.231  11.788   4.092  0.1306  0.0314 -0.3880
 8244W        W25091   9.765   5.157  14.284 -0.1507 -0.1794  0.0598
 8245W        W25092   8.248  15.528  10.202 -0.1123 -0.4963  0.0582
 8246W        W25093  16.013   6.116   2.670 -0.3281  0.1342 -0.2570
 8247W        W25094  13.853  14.054   5.092 -0.1710  0.0548 -0.0468
 8248W        W25095  10.360  11.500   3.944 -0.1842 -0.0827  0.1521
 8249W        W25096   6.410  10.479   3.801  0.1846  0.0756  0.2276
 8250W        W25097  19.854   5.995   2.142 -0.0913 -0.0349 -0.0353
 8251W        W25098  13.071   1.398  12.905  0.2010  0.0858 -0.1473
 8252W        W25099   7.824   9.065   0.557  0.1017  0.4622  0.0297
 8253W        W25100   7.241  10.916   0.252  0.3209  0.0074  0.1308
 8254W        W25101   0.621  13.590  10.954  0.0437 -0.0893 -0.3058
 8255W        W25102   7.593  16.617   0.179 -0.2170  0.1035 -0.0248
 8256W        W25103  12.664   1.925  14.079  0.1486 -0.1954 -0.0803
 8257W        W25104   5.268  19.267   3.365 -0.0791 -0.3668  0.2321
 8258W        W25105   0.783  13.775   3.772 -0.0599 -0.1782  0.2395
 8259W        W25106   8.557  19.259   0.019 -0.1837 -0.0253 -0.0283
 8260W        W25107  14.642   2.080  12.649  0.0923 -0.0366 -0.2398
 8261W        W25108   8.088   5.343  14.178 -0.3645 -0.1996 -0.1440
 8262W        W25109  18.142  18.399  10.512 -0.3037  0.1266  0.2477
 8263W        W25110  15.297  11.583   5.106  0.0665  0.0964  0.2282
 8264W        W25111  15.835   1.490   0.055 -0.0173  0.3164  0.1015
 8265W        W25112   8.025  12.369  10.923 -0.2812 -0.2189  0.0326
 8266W        W25113  12.024   5.228   2.229  0.0688 -0.0822  0.1380
 8267W        W25114   5.202   6.796   3.752  0.0159 -0.0302 -0.0929
 8268W        W25115  13.757   4.339  10.766  0.2241  0.0721  0.0105
 8269W        W25116  16.737   2.411   1.438  0.3929  0.0263 -0.0877
 8270W        W25117   9.616  15.217   1.205 -0.0535  0.0600  0.1823
 8271W        W25118  16.769  10.886   2.012 -0.2198 -0.2438  0.1335
 8272W        W25119   7.210   1.434  14.161 -0.2050 -0.3122  0.1013
 8273W        W25120  10.474   9.546   1.173 -0.1106  0.3927 -0.0983
 8274W        W25121   2.963  12.830   3.568  0.4608 -0.0449 -0.0548
 8275W        W25122   3.152   7.151  12.953 -0.0164  0.2324 -0.2269
 8276W        W25123   7.098   7.966   0.579  0.0964 -0.2509  0.1826
 8277W        W25124   8.470  14.594   9.972  0.1534 -0.1104  0.0260
 8278W        W25125   9.205  14.596   9.583  0.3456  0.0294 -0.1652
 8279W        W25126  19.203   3.262   3.256  0.0661 -0.6280 -0.1236
 8280W        W25127  16.129  19.418   2.398 -0.4015  0.0641  0.4033
 8281W        W25128  14.572   6.219  10.910  0.2148  0.1822 -0.0130
 8282W        W25129  16.321   9.498   4.342 -0.1859 -0.2699 -0.0697
 8283W        W25130  12.962  12.739   1.629 -0.0663 -0.0822  0.0282
 8284W        W25131  19.511  12.142  13.783  0.2040 -0.1405 -0.3694
 8285W        W25132  14.100  10.673  12.977 -0.5105 -0.0113  0.0682
 8286W        W25133   6.043  19.521  12.706  0.0040  0.0135  0.2710
 8287W        W25134  11.866  11.968   2.185 -0.0784 -0.0919 -0.0110
 8288W        W25135  17.301  11.864   1.231 -0.0753  0.3114  0.1196
 8289W        W25136   3.087  16.077  13.384  0.0912  0.0657 -0.3315
 8290W        W25137  17.450  17.880   4.932  0.1203  0.0064 -0.0290
 8291W        W25138   1.645  13.776   1.087  0.6001  0.0948  0.0378
 8292W        W25139  19.462  11.731  12.859  0.0298 -0.0252  0.4165
 8293W        W25140   0.807  12.915   2.226  0.1755  0.1801 -0.0287
 8294W        W25141   6.720   4.280  12.110  0.0404  0.0415  0.0142
 8295W        W25142   5.368   6.688  13.962  0.3351  0.2713 -0.1659
 8296W        W25143  12.152   1.003   3.963  0.0705  0.1303 -0.2577
 8297W        W25144   1.835  14.642  10.283 -0.0042 -0.1152  0.1840
 8298W        W25145  12.841   8.923   0.160 -0.0516  0.1833 -0.3255
 8299W        W25146  12.707   9.545   4.620  0.2006  0.1022  0.1004
 8300W        W25147   9.986  11.604   2.299 -0.2278 -0.0084 -0.0231
 8301W        W25148   6.039  18.772  10.376  0.2436  0.1864  0.0746
 8302W        W25149  12.350   0.838  13.877  0.0463 -0.0982  0.1837
 8303W        W25150   0.192  10.250  10.205  0.2465  0.1389  0.0695
 8304W        W25151   7.416  18.409   1.373 -0.3566  0.1388  0.2179
 8305W        W25152  10.780   8.526  11.597 -0.1997 -0.2639  0.0026
 8306W        W25153  12.414   3.407  10.635 -0.1919 -0.1467 -0.2057
 8307W        W25154   3.447  12.245  11.901 -0.1202  0.0562 -0.2185
 8308W        W25155  17.762   0.902   4.067  0.1250 -0.0173  0.1410
 8309W        W25156  17.047   2.186   0.180 -0.0110  0.1100  0.3374
 8310W        W25157   7.187  13.109   2.010  0.2331  0.1428  0.2909
 8311W        W25158   1.356  15.754  10.511 -0.0052 -0.0681 -0.3012
 8312W        W25159  12.746   5.474   2.870  0.4142 -0.3017  0.1369
 8313W        W25160  15.652   6.375  12.712 -0.1303 -0.2812  0.0693
 8314W        W25161   8.254  13.682   1.942 -0.1895  0.1771 -0.1052
 8315W        W25162   7.546   4.530   3.516  0.1300 -0.2555 -0.1478
 8316W        W25163   6.928   0.858   1.180  0.3908 -0.0683  0.1210
 8317W        W25164  12.407  17.587  13.570 -0.2977 -0.1504  0.1313
 8318W        W25165  11.038  11.519  10.546 -0.1701  0.0916  0.2972
 8319W        W25166  11.320   7.914  12.139  0.1519 -0.1748 -0.0495
 8320W        W25167   1.731   8.811   1.291  0.3252  0.2689  0.3363
 8321W        W25168   4.804   8.078  13.806 -0.2654  0.2275  0.4306
 8322W        W25169   6.300   9.453  12.399 -0.3005 -0.0340 -0.0411
 8323W        W25170  11.958   8.762  11.261 -0.0453  0.2100 -0.1238
 8324W        W25171   8.141   5.102   3.927 -0.0206  0.1195 -0.2280
 8325W        W25172  17.446  15.543  13.731 -0.0559 -0.1190  0.0765
 8326W        W25173   7.434  10.134  13.399  0.1880  0.0220 -0.1784
 8327W        W25174   2.709  12.556  10.383  0.1090 -0.0328 -0.2862
 8328W        W25175  16.241   6.422   3.082  0.2669 -0.1542  0.3488
 8329W        W25176   1.159   6.572  11.644 -0.1909  0.0891  0.2813
 8330W        W25177  17.646   9.149  13.687 -0.3296  0.0501 -0.0154
 8331W        W25178   5.361  19.051  10.534 -0.1972 -0.0682 -0.0502
 8332W        W25179   4.906   3.293   2.027 -0.1113 -0.2468 -0.0284
 8333W        W25180   9.023  16.843   3.183 -0.1008  0.0557  0.1961
 8334W        W25181   7.287   9.297  11.261 -0.2659 -0.0260  0.0778
 8335W        W25182  19.924  10.391   0.482  0.1392  0.1727 -0.1309
 8336W        W25183   0.078   5.105   1.574  0.0177  0.1107  0.1865
 8337W        W25184  18.483   2.873  12.836  0.1394  0.3101 -0.0255
 8338W        W25185   9.205  14.196  13.946 -0.1831  0.0610  0.2402
 8339W        W25186  19.689  13.310   4.290  0.5448  0.1108 -0.0257
 8340W        W25187  11.342  12.584   3.879 -0.1784 -0.1924  0.1021
 8341W        W25188  12.572  18.079   1.499  0.0754  0.2931 -0.3889
 8342W        W25189  10.725  16.308  14.190  0.1224 -0.1737  0.1806
 8343W        W25190  18.686   6.143   2.896 -0.1275  0.0257  0.4452
 8344W        W25191  15.251   5.262   4.574  0.2251  0.2446 -0.1119
 8345W        W25192   8.498   0.390  10.554  0.1907 -0.1751  0.0217
 8346W        W25193  12.248   1.629  13.069 -0.1879  0.0104 -0.2147
 8347W        W25194   3.617  16.998  12.508 -0.0844 -0.0105 -0.0817
 8348W        W25195  12.598   1.065  11.014  0.2752 -0.0739 -0.0809
 8349W        W25196  17.770  16.609   5.131 -0.1329  0.0330 -0.3248
 8350W        W25197  18.934  16.012  10.402  0.1005  0.0811 -0.0930
 8351W        W25198   1.483  16.828  10.413  0.3638 -0.3124  0.0066
 8352W        W25199  15.243  17.734   2.094 -0.1829  0.0631  0.0960
 8353W        W25200  19.645   2.716   2.316 -0.0698  0.1607  0.0182
 8354W        W25201   5.970  11.347   3.305 -0.1425  0.1517  0.0385
 8355W        W25202   4.974  19.655   2.521 -0.1879  0.1675  0.1484
 8356W        W25203   2.416  10.179   1.066 -0.0293  0.3073  0.2881
 8357W        W25204  17.339  10.087  11.261 -0.2582  0.3936  0.2459
 8358W        W25205  19.384   4.438   9.882  0.0708 -0.0676  0.0011
 8359W        W25206   2.963  16.993  11.496  0.0540  0.0515 -0.0052
 8360W        W25207  16.965  12.106   0.076  0.1782 -0.4533 -0.1345
 8361W        W25208   0.166   2.778   2.568  0.0770  0.1260 -0.5946
 8362W        W25209  14.811  11.837   4.572  0.0428  0.2754 -0.3119
 8363W        W25210   6.225  15.077   0.275 -0.2054 -0.0511  0.0679
 8364W        W25211  10.592   7.602   9.901  0.4358 -0.1173  0.0021
 8365W        W25212   0.689   0.244   1.254  0.0119 -0.0759  0.1823
 8366W        W25213  15.478   7.397  11.741  0.0570 -0.1435 -0.1729
 8367W        W25214  10.709  10.117  13.522  0.2653 -0.2684  0.5648
 8368W        W25215   1.481  16.114  10.180 -0.0796 -0.2285 -0.2502
 8369W        W25216  13.939   2.068   5.309 -0.0640 -0.0209  0.0823
 8370W        W25217  12.265   7.191  10.646 -0.0709  0.0003  0.3821
 8371W        W25218  15.725  19.196   4.362  0.0322 -0.2948 -0.1334
 8372W        W25219   5.955  14.472  11.798  0.0740  0.0647  0.0706
 8373W        W25220   5.516   9.431  13.056  0.0806 -0.1564 -0.0924
 8374W        W25221   9.757  18.279  11.232 -0.0243 -0.2657  0.3063
 8375W        W25222  17.175   1.896   2.234 -0.0035  0.2642  0.2601
 8376W        W25223   3.654   5.353   2.740 -0.2492  0.0027 -0.0900
 8377W        W25224  18.923   8.673  13.490  0.3425  0.1140 -0.0536
 8378W        W25225   4.512  10.031  13.772  0.0099  0.1885  0.0797
 8379W        W25226  17.599  10.895   1.538 -0.4359  0.2376  0.1035
 8380W        W25227  14.480  12.806  13.510  0.1184 -0.2936 -0.1561
 8381W        W25228   2.237   1.210  14.167 -0.0398  0.0765  0.0724
 8382W        W25229   2.880  17.230  11.935 -0.5718 -0.1435 -0.0227
 8383W        W25230   5.041   3.470   0.701 -0.1589  0.3577  0.2498
 8384W        W25231  11.355   6.241  10.216 -0.2791  0.4310  0.1361
 8385W        W25232  12.857   7.119   4.268 -0.0493  0.2743  0.0883
 8386W        W25233   5.373   3.003   2.716 -0.3349 -0.1761  0.1028
 8387W        W25234   1.692   3.369   4.981 -0.0251 -0.4533 -0.0212
 8388W        W25235  17.527  17.100  13.575  0.2974  0.1289 -0.3219
 8389W        W25236  15.617   6.460   0.154 -0.0025 -0.1393 -0.2397
 8390W        W25237  16.368   8.126   1.105 -0.1309  0.2657  0.0783
 8391W        W25238   3.073   4.792  10.001  0.3342 -0.2330  0.1623
 8392W        W25239  11.517   5.841   2.985  0.2712  0.1545 -0.1547
 8393W        W25240  10.355   3.222   4.434  0.0012 -0.4524 -0.2729
 8394W        W25241  16.273  14.687   4.045 -0.1474 -0.0280 -0.2112
 8395W        W25242   6.635   3.971  10.655 -0.2339  0.2582 -0.1110
 8396W        W25243   8.800  14.497  11.519 -0.2858  0.0929  0.1113
 8397W        W25244  11.626  15.607   1.474 -0.1959  0.3043 -0.0850
 8398W        W25245   7.805  15.305  14.279 -0.3960 -0.1385  0.1651
 8399W        W25246  14.615   9.542   2.798 -0.1390 -0.1592 -0.3015
 8400W        W25247   5.150   5.425   1.473  0.0502  0.5409 -0.1498
 8401W        W25248   9.113   1.212  12.549  0.3035  0.0689 -0.0534
 8402W        W25249  13.543   8.937  13.458 -0.2035  0.0544  0.5479
 8403W        W25250   9.361  10.404  13.123  0.3095  0.0338  0.2002
 8404W        W25251  17.337   2.352  13.383  0.1582 -0.1754  0.3529
 8405W        W25252  18.906   3.077  10.351 -0.1951 -0.3014 -0.1289
 8406W        W25253   0.889   0.379  12.249  0.0457 -0.2734 -0.0786
 8407W        W25254  10.688   3.188   4.853  0.1662 -0.0378  0.1645
 8408W        W25255  14.614  12.913  11.812  0.0142  0.0190  0.0786
 8409W        W25256   7.035  18.055   2.605  0.1319  0.2185  0.1408
 8410W        W25257   2.351  14.090  11.328  0.0014 -0.1063  0.0537
 8411W        W25258  16.702   7.615   4.631 -0.0322  0.0423 -0.1219
 8412W        W25259  18.570   0.950   0.321 -0.3351  0.1327  0.2105
 8413W        W25260   4.974   8.730   0.299  0.1345 -0.0258 -0.3682
 8414W        W25261  14.479   4.290   2.358 -0.0011  0.0363 -0.0559
 8415W        W25262  15.490   0.886  11.767 -0.2119  0.0373 -0.0211
 8416W        W25263  16.685   1.974  13.650 -0.1356 -0.0163  0.0200
 8417W        W25264  19.542  11.190  11.720  0.2685  0.2098  0.2013
 8418W        W25265  18.321  17.150  13.674 -0.2452  0.2620 -0.0693
 8419W        W25266   6.555  18.127  13.003  0.0102 -0.1269 -0.2113
 8420W        W25267  15.225  12.348   3.775 -0.0958 -0.0494 -0.3053
 8421W        W25268   9.846   7.828   2.909 -0.1503  0.0887 -0.1420
 8422W        W25269  12.337  16.266   1.745  0.4133  0.1253 -0.0945
 8423W        W25270  15.924   0.782  10.867 -0.0959  0.1902  0.2170
 8424W        W25271   5.996  18.494   2.601 -0.0154  0.0374  0.0784
 8425W        W25272   6.847  12.669   0.353 -0.1991 -0.1572  0.3255
 8426W        W25273  10.552  11.681  10.429 -0.1781  0.2054 -0.4407
 8427W        W25274  16.019   1.568  13.134 -0.0601 -0.2204 -0.2295
 8428W        W25275  18.909  15.675   2.079  0.1638  0.1686 -0.0491
 8429W        W25276   3.338  10.398   4.277  0.2058  0.1659  0.2264
 8430W        W25277   6.021   6.347   3.436 -0.0416 -0.1613  0.0570
 8431W        W25278   1.565  12.669  10.582  0.0790 -0.4403  0.2885
 8432W        W25279  18.225  16.153  13.928 -0.0176 -0.2425  0.1012
 8433W        W25280   2.997  10.614  10.036  0.1584 -0.4007 -0.1516
 8434W        W25281  10.977  12.793   2.043 -0.1371  0.1627  0.0954
 8435W        W25282   7.814   0.999   1.532  0.1710  0.3325 -0.3576
 8436W        W25283  19.362   5.509   3.509  0.1987 -0.3126  0.0325
 8437W        W25284  10.893  11.464   0.131  0.0382 -0.4216 -0.1439
 8438W        W25285  16.047  19.541   0.661 -0.0193 -0.1996  0.1005
 8439W        W25286  10.771   0.312   2.535  0.1663  0.1713 -0.1904
 8440W        W25287  11.313  12.383   0.661 -0.2254 -0.1323  0.0947
 8441W        W25288   6.861   1.481  13.764  0.0456  0.0812  0.2698
 8442W        W25289   9.810   9.666   3.643  0.0169  0.1508  0.4111
 8443W        W25290   2.005  11.303  13.309  0.1424 -0.2733 -0.0949
 8444W        W25291   2.702   9.066   3.434  0.4107  0.0086 -0.1518
 8445W        W25292  14.918   4.116   0.454 -0.2009 -0.1873 -0.2579
 8446W        W25293   2.206  15.070  12.667 -0.1589  0.3262  0.2427
 8447W        W25294  11.265   1.656   9.228  0.1137 -0.3053  0.0455
 8448W        W25295   9.350  12.253  12.670  0.0388  0.0789 -0.1077
 8449W        W25296  13.352   2.777  14.062 -0.2214  0.0803  0.2740
 8450W        W25297   7.791  12.099  10.061 -0.0786 -0.2098 -0.1352
 8451W        W25298  12.235  15.316   1.715 -0.0933 -0.3342  0.2562
 8452W        W25299   3.301   4.937  10.769 -0.1254  0.1768 -0.2314
 8453W        W25300   8.435  12.298   3.090 -0.0330  0.1977 -0.2469
 8454W        W25301   7.513  10.629  11.311 -0.1325  0.3283 -0.3422
 8455W        W25302   6.599  11.584  10.991  0.0545 -0.1415 -0.1843
 8456W        W25303   7.954  13.522  14.260  0.2684  0.0254  0.0917
 8457W        W25304   8.637  13.490   3.762  0.2513 -0.3566  0.1745
 8458W        W25305  13.068  17.935  10.025 -0.1075  0.1126  0.1030
 8459W        W25306   2.180  18.022   1.280 -0.2174  0.0386 -0.0672
 8460W        W25307  13.131   1.882   1.439  0.0167 -0.2711 -0.2261
 8461W        W25308  12.899  13.074   3.676  0.0732 -0.0952 -0.3007
 8462W        W25309   6.283   0.750   4.151  0.0640 -0.2387 -0.0363
 8463W        W25310   2.647   5.327   2.805 -0.0642 -0.0708 -0.0962
 8464W        W25311  15.219  12.650   5.646 -0.1220  0.2416  0.1654
 8465W        W25312   1.224  17.571  13.627 -0.1123 -0.0832 -0.1975
 8466W        W25313   1.051   2.062   4.465  0.0783  0.0140  0.2522
 8467W        W25314  12.013  16.830  10.056  0.1719 -0.0230  0.0844
 8468W        W25315   5.410   1.001   0.137  0.3721  0.2044  0.1567
 8469W        W25316  19.292  16.892  13.718 -0.2117  0.0715  0.1422
 8470W        W25317  17.116   2.380   0.673 -0.3494 -0.0917  0.0451
 8471W        W25318  14.319   1.688  12.834 -0.0158  0.0362 -0.0193
 8472W        W25319  10.340   6.543  11.325  0.0893  0.1591  0.1166
 8473W        W25320  13.284   6.242  14.174  0.1644 -0.0824  0.2878
 8474W        W25321  13.149  19.638  11.223 -0.1296  0.0236  0.2298
 8475W        W25322   8.865  15.434  12.957  0.3071  0.0644 -0.0617
 8476W        W25323  17.286  17.496   3.192 -0.1002 -0.1342  0.0876
 8477W        W25324   5.035   9.664   3.252 -0.0636  0.3083  0.1359
 8478W        W25325   9.233   9.867   1.967  0.2008 -0.3525 -0.0785
 8479W        W25326  11.411  19.851   4.578  0.0369 -0.0251  0.0672
 8480W        W25327  13.449   4.480  13.842  0.2123  0.0915  0.4474
 8481W        W25328  16.616   2.531   3.279  0.2571  0.1239  0.0271
 8482W        W25329  11.180  11.159  13.648 -0.0199 -0.0234 -0.1170
 8483W        W25330  14.694   6.443   3.864 -0.3762 -0.2135 -0.0534
 8484W        W25331   6.880   6.698   9.779 -0.2618  0.1938 -0.2673
 8485W        W25332   6.883   7.639  10.043  0.1676 -0.1843  0.0369
 8486W        W25333   8.408  19.266   0.752 -0.1214 -0.1981 -0.1933
 8487W        W25334  11.132   7.521   2.971 -0.0181 -0.2422  0.1521
 8488W        W25335   7.543  14.156   0.413  0.0531 -0.1948  0.0377
 8489W        W25336   5.395  15.633   3.131  0.0333 -0.1041 -0.1216
 8490W        W25337  13.746   8.987   1.419  0.1381 -0.0737  0.1113
 8491W        W25338  17.092   2.964   1.184  0.0176  0.0064 -0.4603
 8492W        W25339  16.247  14.651   2.176  0.3764  0.0307 -0.2123
 8493W        W25340   0.263  12.105   4.044  0.0821 -0.0371  0.1009
 8494W        W25341   4.792  16.470   9.071 -0.2902 -0.1298 -0.1390
 8495W        W25342  16.006   1.547  11.379 -0.0148  0.0660 -0.0635
 8496W        W25343  13.107   3.120   0.421 -0.1676 -0.1708 -0.1133
 8497W        W25344   3.242  16.697  12.694  0.1652  0.1049  0.2279
 8498W        W25345  17.988  15.128  11.171  0.3262 -0.1430  0.1133
 8499W        W25346  13.504  13.942   0.912  0.1080  0.1048 -0.1317
 8500W        W25347  19.675  12.230  10.868  0.1306 -0.1413  0.1846
 8501W        W25348  11.960   1.219   4.753 -0.1519  0.1523 -0.4110
 8502W        W25349  18.713  10.866   1.215 -0.1322  0.2508 -0.3054
 8503W        W25350  12.416  13.250  13.230 -0.0248  0.0022 -0.0501
 8504W        W25351   2.700  14.547  12.569 -0.0206  0.0537  0.3794
 8505W        W25352   3.507  15.928  14.199 -0.0386 -0.0156 -0.2475
 8506W        W25353  12.884   1.475  12.324  0.2769 -0.2877  0.1550
 8507W        W25354   6.029   3.090  11.592 -0.1212 -0.2199 -0.1520
 8508W        W25355   8.542  12.397  11.032  0.1424  0.0932 -0.2454
 8509W        W25356   5.914   1.325  11.048  0.2368 -0.0177  0.1220
 8510W        W25357  19.524   1.825   1.125 -0.2548  0.1062  0.1932
 8511W        W25358   1.854  11.539   0.137 -0.3224  0.2554  0.0109
 8512W        W25359   2.055  11.690   2.098 -0.1664  0.1008 -0.3157
 8513W        W25360  10.082  11.835  10.213 -0.2268 -0.0285 -0.1568
 8514W        W25361  18.261   8.673  14.131 -0.0482 -0.0155  0.2160
 8515W        W25362   3.265  10.691  11.159 -0.0962  0.2279 -0.0730
 8516W        W25363   3.140  13.171   0.342  0.3694 -0.0079  0.2189
 8517W        W25364   5.953  14.650  13.272  0.0156  0.2760  0.0508
 8518W        W25365  15.732   7.329   2.204  0.2538 -0.3215 -0.2365
 8519W        W25366  12.240   1.986  12.650 -0.1927 -0.2232  0.2344
 8520W        W25367   0.146  12.980  10.664 -0.2043  0.3162 -0.1943
 8521W        W25368   9.578  14.521   3.981 -0.2916 -0.1744  0.0442
 8522W        W25369   1.957  12.574   3.602  0.3175 -0.1288  0.0398
 8523W        W25370  12.672  10.113   0.801 -0.3957  0.0962 -0.1302
 8524W        W25371  10.535   2.730   3.991  0.0551 -0.3599  0.0070
 8525W        W25372   9.312   0.630   1.543 -0.0613  0.0397  0.1095
 8526W        W25373   9.983  16.048  13.739 -0.0135  0.0022 -0.1169
 8527W        W25374   8.593   1.228   2.198  0.2651  0.4233 -0.0200
 8528W        W25375   7.021  14.654  11.135  0.0370  0.0818 -0.1538
 8529W        W25376   2.967   2.914   0.209 -0.1739 -0.2649 -0.0462
 8530W        W25377  17.026   4.497   1.590 -0.1866  0.0675  0.1468
 8531W        W25378  13.979  16.942  13.914 -0.1937 -0.3901  0.2652
 8532W        W25379   3.501   4.694   2.673  0.0798  0.0886  0.0935
 8533W        W25380  14.221   9.777   3.249 -0.0768 -0.0204  0.1817
 8534W        W25381   7.199  10.925   0.725  0.2599  0.0786 -0.1815
 8535W        W25382   9.959  14.341   1.853 -0.0400 -0.1782 -0.0002
 8536W        W25383  16.785  19.485  11.239  0.0818 -0.0208  0.2052
 8537W        W25384   7.211   2.194   3.844  0.0919  0.0558 -0.1334
 8538W        W25385   6.672   8.184  10.853 -0.1597  0.1217 -0.1902
 8539W        W25386   5.406  16.368   9.887 -0.0342 -0.2402  0.0012
 8540W        W25387  10.425  17.306   4.107 -0.0089  0.3288  0.1604
 8541W        W25388  14.686   1.871   0.522  0.0109  0.0546  0.4360
 8542W        W25389  17.254   0.327   1.647 -0.1358 -0.2431 -0.2716
 8543W        W25390  15.200   4.070  13.116 -0.1563  0.1861 -0.1496
 8544W        W25391  19.628   4.263  13.509  0.2047 -0.2866  0.4799
 8545W        W25392  18.743   1.889   5.285  0.3390  0.1147 -0.0912
 8546W        W25393   8.989  14.583   3.906 -0.1530 -0.1875 -0.1478
 8547W        W25394  14.571  13.352  13.047 -0.2717 -0.2285  0.0253
 8548W        W25395  10.977   8.236   2.918  0.0855  0.1323  0.0966
 8549W        W25396   9.776  12.066   2.364  0.0098 -0.4292  0.2857
 8550W        W25397   5.532   0.136  10.612 -0.1948 -0.0536  0.0109
 8551W        W25398   4.626  18.095   4.680 -0.0128  0.0993 -0.1540
 8552W        W25399  13.159   4.063   2.024  0.1456 -0.3957 -0.5435
 8553W        W25400   8.663   7.572   3.194  0.2417  0.1038 -0.0973
 8554W        W25401   2.765   5.628   0.732 -0.2528  0.2498 -0.0808
 8555W        W25402   1.245  13.426  10.189 -0.1378  0.1543  0.1954
 8556W        W25403   2.166  14.868   3.606  0.2451  0.1401 -0.2862
 8557W        W25404  14.313  15.675   2.172 -0.0714  0.1467 -0.1824
 8558W        W25405   8.765  16.150   4.310  0.1587  0.2210  0.1405
 8559W        W25406  14.894   4.448  11.640 -0.2434 -0.0735 -0.1829
 8560W        W25407   6.129   7.669   3.126 -0.2449 -0.0410 -0.3148
 8561W        W25408   8.832   3.346   1.167 -0.0808 -0.1320  0.0478
 8562W        W25409   1.852   5.125   3.046  0.1128  0.2596  0.0643
 8563W        W25410   1.123  12.454  10.742 -0.1567  0.2857  0.2399
 8564W        W25411  13.708   9.104  11.059  0.1593  0.2838 -0.1119
 8565W        W25412   0.531   7.742   2.854 -0.2641  0.3775 -0.0730
 8566W        W25413   6.302   0.997  12.554 -0.1625  0.5360  0.1675
 8567W        W25414   8.731   6.080   4.129  0.0903  0.2675 -0.2115
 8568W        W25415   2.752   3.145  10.645  0.0346 -0.0279  0.0239
 8569W        W25416  12.700  15.645   4.990  0.2207 -0.1901  0.0719
 8570W        W25417   8.026  12.437  11.879  0.0975  0.2223 -0.6528
 8571W        W25418  18.618  16.528  13.139  0.0779  0.3984  0.1403
 8572W        W25419   0.608  18.668   3.128 -0.0834  0.0029  0.0202
 8573W        W25420  12.617   6.680   2.019  0.0941 -0.0833  0.2913
 8574W        W25421  10.994  10.814  13.945  0.1399  0.2628  0.0519
 8575W        W25422   5.086   3.357   9.985 -0.0616 -0.0406  0.0294
 8576W        W25423   3.508   1.478   2.502  0.1910  0.1299 -0.0553
 8577W        W25424   3.015   9.865   3.101 -0.2055  0.2947 -0.1874
 8578W        W25425   8.975  15.188   3.066  0.1768 -0.0970  0.1650
 8579W        W25426   4.775   7.668   0.742  0.2021 -0.2870  0.0366
 8580W        W25427   5.079  14.203  12.064 -0.0494 -0.1968 -0.4104
 8581W        W25428   2.939  19.860  10.314 -0.0647  0.0485 -0.2048
 8582W        W25429   5.538   9.981  13.799 -0.0177  0.1774 -0.0848
 8583W        W25430  13.760  13.530   2.750  0.0402 -0.0781  0.0855
 8584W        W25431  18.785  17.245   1.087  0.1111  0.2264 -0.0263
 8585W        W25432  14.496  12.305  10.772 -0.1146  0.1191 -0.1788
 8586W        W25433  11.546   8.694  10.549 -0.2126 -0.2683 -0.0575
 8587W        W25434   2.141  16.910   9.932  0.0940  0.2413 -0.1132
 8588W        W25435   2.406  10.706   9.139 -0.0679  0.2893 -0.4841
 8589W        W25436   2.189   2.815   4.287  0.3267 -0.0754  0.1711
 8590W        W25437   8.291  17.508   2.880 -0.1599  0.3260 -0.0853
 8591W        W25438   1.146   0.755  10.212 -0.1754 -0.2981 -0.1151
 8592W        W25439   5.207  15.807  10.575  0.1033  0.3074  0.2160
 8593W        W25440   2.612   5.513  13.933 -0.2385 -0.0864  0.1318
 8594W        W25441   9.503  19.437   1.753 -0.0831  0.1379 -0.1120
 8595W        W25442  10.273   8.356   1.866 -0.0187  0.1815 -0.2537
 8596W        W25443  19.718   5.326   4.334 -0.0847 -0.2368 -0.3809
 8597W        W25444   2.915  11.041   9.714 -0.0511 -0.1935 -0.3342
 8598W        W25445  10.638  10.596  10.852 -0.1714  0.0311  0.1434
 8599W        W25446   9.630  16.636   2.079  0.2020 -0.1505  0.1416
 8600W        W25447  14.966  11.932  10.841  0.0100  0.0897 -0.0692
 8601W        W25448   8.641  16.626   1.087 -0.0263  0.1527 -0.2844
 8602W        W25449  15.476   2.708  11.422  0.4161  0.1535  0.2616
 8603W        W25450  17.424  13.886   3.157  0.0707  0.1920  0.1177
 8604W        W25451  16.172   8.334   4.419  0.0561  0.0146 -0.1887
 8605W        W25452   7.508   7.751   0.342  0.3184 -0.1089  0.0498
 8606W        W25453  11.996  11.245   2.985 -0.1809 -0.1018 -0.1544
 8607W        W25454  16.185  19.410  14.239 -0.3560 -0.0717  0.1861
 8608W        W25455   5.411  11.595   1.231 -0.2282 -0.0405 -0.0868
 8609W        W25456   7.221  10.151  13.934 -0.2493 -0.2268  0.3979
 8610W        W25457   5.639  18.004  13.587 -0.1692  0.1039  0.4718
 8611W        W25458  18.675  14.587  13.712  0.4315 -0.3403 -0.0070
 8612W        W25459   4.908  15.665   3.953 -0.2406  0.1169  0.0550
 8613W        W25460  19.601   0.691  13.037 -0.2049 -0.1731  0.2426
 8614W        W25461  18.806   1.435   0.509  0.1484 -0.2283 -0.0920
 8615W        W25462   0.120  11.416   3.145  0.2185 -0.1660  0.0366
 8616W        W25463  15.803   9.524  10.792 -0.0480  0.1710 -0.1080
 8617W        W25464  17.890   6.209   3.525  0.1340  0.2999 -0.1186
 8618W        W25465   4.147  10.007   1.044  0.2888  0.0052  0.2099
 8619W        W25466  14.688  19.269   0.368 -0.3168  0.4098 -0.0235
 8620W        W25467   2.644  14.157  13.289 -0.1428 -0.2765  0.2858
 8621W        W25468   2.506   7.333   4.364  0.0983  0.1526  0.1674
 8622W        W25469  11.404   5.109   1.667 -0.0940 -0.0299  0.2034
 8623W        W25470   8.612   2.482   1.721 -0.2635  0.1848 -0.0109
 8624W        W25471   6.586  18.366  10.125  0.3591  0.0336  0.0496
 8625W        W25472  16.268  15.942   1.195 -0.2670 -0.1158 -0.1641
 8626W        W25473   6.823   3.522  11.612  0.0747 -0.2448 -0.0865
 8627W        W25474   0.873  15.521   0.668 -0.1292  0.0597  0.2047
 8628W        W25475  15.032   5.357   1.859  0.0945 -0.1895  0.0901
 8629W        W25476   4.264  12.798   3.119  0.0706  0.0303  0.0177
 8630W        W25477  15.900   3.409  10.823  0.0291 -0.1632  0.0655
 8631W        W25478   4.608   6.185   1.413  0.0328 -0.0027  0.0752
 8632W        W25479  13.776   4.590  14.184 -0.0421 -0.1712  0.4193
 8633W        W25480  12.432   1.988   2.776 -0.0608  0.0153  0.0080
 8634W        W25481  16.078  18.836  11.181 -0.0932 -0.2068 -0.1561
 8635W        W25482   0.786   2.924   0.584  0.1293  0.2718  0.2447
 8636W        W25483  12.903  10.741   9.921 -0.0461 -0.0619  0.2586
 8637W        W25484  19.659   2.409   2.713  0.0814 -0.3732 -0.2486
 8638W        W25485   6.233   0.759   5.156 -0.2289 -0.0215  0.2304
 8639W        W25486   0.856  11.232   2.523 -0.1102 -0.2469  0.1699
 8640W        W25487   0.409  11.841  13.444  0.0082  0.0691  0.2353
 8641W        W25488   6.821  10.573  11.110  0.1696 -0.1554  0.2483
 8642W        W25489   2.481  14.692   0.621  0.1051 -0.1501 -0.0091
 8643W        W25490   8.637  18.599  11.722 -0.0903  0.1242 -0.0092
 8644W        W25491   4.962  10.675   3.878  0.2069  0.0408 -0.2457
 8645W        W25492   3.820  10.463   3.079  0.1333  0.1126 -0.1913
 8646W        W25493  19.285  15.735   4.684 -0.1135 -0.1356 -0.1081
 8647W        W25494   5.027  15.082   1.946 -0.2206  0.2932 -0.0321
 8648W        W25495   8.522  11.436   3.107  0.2768  0.2240 -0.0944
 8649W        W25496  12.657  10.988   9.531 -0.0281 -0.0415  0.0562
 8650W        W25497   8.022  15.616  12.421  0.0296  0.1382 -0.0014
 8651W        W25498   9.725   6.101  13.462  0.0506 -0.1757  0.1404
 8652W        W25499  10.449   7.565  10.405  0.0509 -0.2328  0.1500
 8653W        W25500   2.834   3.572   0.968  0.0521 -0.1989 -0.6497
 8654W        W25501  18.987   6.766   4.754  0.1160 -0.4315  0.1157
 8655W        W25502  11.755  12.659   1.413  0.1708 -0.0065  0.0280
 8656W        W25503   3.566   3.766  12.590  0.4807 -0.1991  0.1678
 8657W        W25504   8.544   0.603  10.092 -0.1956 -0.0801  0.0770
 8658W        W25505  16.342   4.686   1.412  0.0208  0.0910  0.5645
 8659W        W25506  19.230   0.564   1.288  0.1207 -0.2547 -0.2109
 8660W        W25507  12.960   4.815   3.484 -0.0466 -0.2530  0.1410
 8661W        W25508   5.605   8.118   9.705 -0.1025  0.2032 -0.1242
 8662W        W25509  11.421   8.391   1.142 -0.0351  0.0346 -0.1271
 8663W        W25510   0.540  10.730   2.566  0.3404  0.0310 -0.0108
 8664W        W25511  10.214   7.525   3.163  0.0994  0.2715  0.3681
 8665W        W25512  14.335  10.238  12.408 -0.2060 -0.1382 -0.2118
 8666W        W25513  11.124  12.292   2.110 -0.0301 -0.2462 -0.1361
 8667W        W25514   7.010   5.392   3.586 -0.3171 -0.1423 -0.1095
 8668W        W25515   2.924   2.646  13.206 -0.3271 -0.0270  0.0673
 8669W        W25516   2.889  13.331   3.530  0.1686 -0.1517  0.0075
 8670W        W25517  15.228   1.486  13.717 -0.0492 -0.0600 -0.3421
 8671W        W25518  17.987   2.555  11.503 -0.3128  0.1598 -0.1303
 8672W        W25519   9.669   7.637   0.609  0.2208  0.0116 -0.2186
 8673W        W25520  11.991   3.539   0.463 -0.1749 -0.0545 -0.3383
 8674W        W25521   3.370  10.182  11.284  0.0387  0.0653  0.1594
 8675W        W25522   0.794  19.518  11.271  0.0011 -0.2396  0.1106
 8676W        W25523  12.303   6.936  12.164 -0.0184 -0.6452 -0.1536
 8677W        W25524  16.415  18.043   2.340  0.0159 -0.0156  0.4604
 8678W        W25525   8.181   7.749   1.335 -0.3447  0.1224 -0.2028
 8679W        W25526  16.537  10.888  11.720  0.2366  0.2760  0.2486
 8680W        W25527  10.223   7.240  10.862  0.3406  0.1259  0.1041
 8681W        W25528  11.416   9.360   3.850  0.0015  0.0952 -0.0754
 8682W        W25529  15.812  16.282  10.732  0.0916  0.3423  0.1216
 8683W        W25530  15.423  15.201   9.711  0.1631  0.2730  0.1375
 8684W        W25531  13.356  15.806   3.521  0.0016 -0.1033 -0.0208
 8685W        W25532   7.163   7.969   4.344 -0.2657 -0.0357  0.2125
 8686W        W25533  13.411  16.462   2.660  0.0684  0.3577 -0.2160
 8687W        W25534   5.669   8.559   9.364  0.0896 -0.2336 -0.1005
 8688W        W25535   5.222  14.799  12.711 -0.2509 -0.2969  0.4465
 8689W        W25536   7.464  16.499   2.986 -0.4109 -0.1516 -0.3599
 8690W        W25537   5.318   3.160   0.274  0.1490 -0.2327  0.1310
 8691W        W25538  15.301  15.203   0.304 -0.1297 -0.0150 -0.3567
 8692W        W25539   1.913   8.505  11.277  0.2529 -0.2154 -0.1665
 8693W        W25540  15.759   6.535  10.186  0.2080  0.1866  0.0845
 8694W        W25541  19.755  12.371   2.090  0.0905 -0.1893  0.0539
 8695W        W25542  18.751  15.138   3.671 -0.0623 -0.4213  0.1657
 8696W        W25543  17.230   5.085  13.738  0.4100 -0.0321  0.1791
 8697W        W25544  15.137  15.112   4.579 -0.1980 -0.0325  0.0553
 8698W        W25545  10.266   6.541   1.574  0.2371 -0.2614  0.4453
 8699W        W25546  18.831  12.416   2.947  0.0481  0.3417  0.0876
 8700W        W25547   0.479  12.973  12.634 -0.2156  0.0651 -0.0730
 8701W        W25548  18.955   9.141  10.039 -0.0746  0.1939  0.1275
 8702W        W25549   8.753  10.051   0.247  0.0130 -0.0574 -0.0745
 8703W        W25550  17.810   4.852   0.391  0.1836  0.2302  0.1959
 8704W        W25551   3.769   0.976  11.510  0.1382  0.2216 -0.1307
 8705W        W25552  14.527   7.050   0.297  0.1649  0.2544  0.1969
 8706W        W25553   2.244  15.538  12.871 -0.0643 -0.1359 -0.0545
 8707W        W25554   1.179   4.730   0.806 -0.0529  0.2817  0.2999
 8708W        W25555  14.816   6.756  12.476 -0.0015  0.2008  0.0496
 8709W        W25556  13.591   1.789   0.369  0.0066 -0.0250  0.1563
 8710W        W25557   9.275   7.228  14.217  0.0795  0.1178  0.1028
 8711W        W25558  16.161   5.385   4.299 -0.0388  0.2726  0.0554
 8712W        W25559  19.406  16.369   3.690  0.0535  0.1602  0.0834
 8713W        W25560   5.758  14.827  10.015  0.2278 -0.0658 -0.2060
 8714W        W25561   3.703   6.120   0.755  0.5328 -0.1717 -0.1955
 8715W        W25562   4.783  15.799   0.106  0.4450  0.0927 -0.2965
 8716W        W25563  12.283  14.108  13.674  0.2939 -0.1292  0.1605
 8717W        W25564   7.099  13.783  14.273  0.0106 -0.0626 -0.1029
 8718W        W25565   3.731  10.852  12.545 -0.1722 -0.2427  0.0041
 8719W        W25566  18.990  14.969   1.357  0.0341 -0.3267  0.4181
 8720W        W25567   8.479   6.067   1.334  0.2528  0.2310  0.1357
 8721W        W25568  18.916   9.447  11.942  0.0024  0.0399 -0.3501
 8722W        W25569   8.314  16.878   8.565 -0.2487  0.0738  0.0572
 8723W        W25570  13.939   2.872   2.558  0.2208  0.0120 -0.1523
 8724W        W25571  17.337  11.790   5.301  0.0345 -0.2102 -0.3591
 8725W        W25572   0.549  15.346   1.133 -0.0079  0.0192  0.3127
 8726W        W25573   2.410  10.108   9.490 -0.4295 -0.0425  0.2965
 8727W        W25574   3.539   2.141  11.140 -0.1255  0.1086 -0.1723
 8728W        W25575  15.932   5.069   0.179 -0.0528  0.2138  0.1362
 8729W        W25576  15.858  13.848  13.088  0.2589  0.3037 -0.1235
 8730W        W25577   4.330   2.140   0.361 -0.0585  0.0364 -0.0118
 8731W        W25578  13.675   5.422   1.229  0.1334 -0.2127  0.0606
 8732W        W25579   5.255  11.199   4.018 -0.1718 -0.0902  0.0668
 8733W        W25580   4.427  14.268  11.282  0.0881 -0.1023 -0.0894
 8734W        W25581  14.621   2.677   3.989  0.1003  0.0153 -0.1493
 8735W        W25582   3.189  12.631  10.526  0.0799  0.3013 -0.1918
 8736W        W25583  13.502  18.447  10.297 -0.0722 -0.0601 -0.1232
 8737W        W25584  16.923  15.713  13.707 -0.2337 -0.1118  0.2829
 8738W        W25585  12.343  17.715  14.025 -0.0024  0.0996  0.0485
 8739W        W25586   6.368   1.226   1.026 -0.2827 -0.0076 -0.2298
 8740W        W25587  15.323  12.000   3.307 -0.3239  0.1645 -0.0621
 8741W        W25588  14.975  18.018  11.114  0.0975  0.1600 -0.0152
 8742W        W25589   1.908   3.184   0.823  0.0059  0.1128  0.0708
 8743W        W25590  16.343   3.597  11.032 -0.0141  0.1444  0.4041
 8744W        W25591   7.352   8.089   1.436 -0.1890  0.2979 -0.1236
 8745W        W25592   0.251   8.131   3.875 -0.1727  0.0958 -0.0574
 8746W        W25593   1.922   8.811  12.224  0.0315  0.2527  0.1401
 8747W        W25594  15.094   4.131  10.327  0.0887  0.1554  0.2974
 8748W        W25595   4.576   7.677  12.820 -0.0587 -0.1495  0.1195
 8749W        W25596  11.192   9.799   2.431 -0.1936 -0.2710  0.2046
 8750W        W25597   9.497   9.142   1.333 -0.0406 -0.3179 -0.1622
 8751W        W25598  18.985  11.160   4.529  0.0794 -0.1539  0.0390
 8752W        W25599  18.895  14.854   2.845 -0.2801  0.0953 -0.1402
 8753W        W25600  19.505  16.816  13.124 -0.1594  0.0058  0.2237
 8754W        W25601  11.184  19.359  10.521 -0.2118 -0.0416  0.1258
 8755W        W25602  19.788  19.814  13.139 -0.0622 -0.2022 -0.0958
 8756W        W25603   7.379  18.234  10.300 -0.0639 -0.1865  0.2485
 8757W        W25604  15.816   5.051  12.068  0.2741  0.0549  0.2205
 8758W        W25605   1.066   8.569   0.795 -0.3391  0.1560 -0.0853
 8759W        W25606   3.052  16.988   5.054 -0.2713  0.1259 -0.1724
 8760W        W25607  15.676   0.161  12.779 -0.1913 -0.1254 -0.1439
 8761W        W25608   3.504   3.992   0.680 -0.0052 -0.1976  0.0454
 8762W        W25609  10.780   1.419   1.766 -0.0454  0.0282 -0.0408
 8763W        W25610  16.497   4.770   0.807 -0.2659  0.1131 -0.2010
 8764W        W25611  19.421  13.630   3.354 -0.4416  0.0521 -0.2435
 8765W        W25612   8.008  14.830  11.912  0.1109  0.0734 -0.1072
 8766W        W25613   3.542   5.356   2.019  0.1518  0.0919  0.0606
 8767W        W25614   9.543   7.239   4.313 -0.2567  0.2860 -0.2144
 8768W        W25615  17.587   0.951   1.692  0.1605  0.0065  0.1253
 8769W        W25616  16.495  16.942   0.802  0.1314  0.0582  0.0519
 8770W        W25617  10.911   1.219   2.214  0.1432 -0.0770  0.2990
 8771W        W25618  18.188   9.905   0.304 -0.0348  0.0937 -0.1650
 8772W        W25619  17.994  12.243  10.607 -0.1863 -0.3505  0.2722
 8773W        W25620  16.705  11.086  10.356 -0.3691 -0.1394 -0.0328
 8774W        W25621   3.900  17.337   3.919  0.2181  0.2030  0.2361
 8775W        W25622  17.563  12.950  12.864 -0.1678  0.0988 -0.1398
 8776W        W25623  15.547  11.048  12.303 -0.1221  0.2295  0.1050
 8777W        W25624   3.544  17.086  12.995 -0.1081 -0.0696 -0.1610
 8778W        W25625  13.026  19.117  10.381 -0.0960 -0.0979  0.2319
 8779W        W25626   8.442  17.622  13.003  0.1846  0.0874  0.1467
 8780W        W25627   1.091   2.711   0.289  0.3062  0.0473  0.1758
 8781W        W25628  14.446   3.377  11.245 -0.1678 -0.0590 -0.1565
 8782W        W25629  15.654  18.314   4.522 -0.2377 -0.0969  0.1100
 8783W        W25630   6.645   3.739   1.661  0.1015  0.1446 -0.0026
 8784W        W25631  10.330   5.216  10.683  0.5083 -0.1864  0.0870
 8785W        W25632   1.139   8.783  12.849 -0.0918  0.0565  0.0835
 8786W        W25633   0.919  18.357   4.349 -0.0222 -0.0739 -0.0164
 8787W        W25634  16.835   7.173  11.136  0.3214  0.0021 -0.4022
 8788W        W25635  10.061   7.711  13.154 -0.0184 -0.3360  0.0936
 8789W        W25636  16.004  16.739   0.988 -0.0206 -0.0842  0.1129
 8790W        W25637   3.303  16.738   1.807 -0.0574  0.0899 -0.1332
 8791W        W25638  19.475  17.721   2.915 -0.2204 -0.1524  0.0202
 8792W        W25639  19.892  13.621  14.095 -0.2274  0.4141  0.3653
 8793W        W25640   3.456  19.240   4.236 -0.3270  0.0525 -0.2001
 8794W        W25641  18.475  16.809  12.690  0.1160 -0.0138 -0.1059
 8795W        W25642   7.623   4.381  10.385 -0.0195  0.1922  0.1753
 8796W        W25643  19.098  16.751   3.494 -0.1606 -0.0005 -0.1959
 8797W        W25644   9.617   3.904   1.187  0.0709  0.3717  0.1225
 8798W        W25645  11.558   4.994   9.677 -0.2165  0.0761 -0.0341
 8799W        W25646  12.025  13.304  12.790 -0.2184 -0.1239  0.3108
 8800W        W25647  12.611  18.035   4.260  0.0810 -0.1079  0.2043
 8801W        W25648  15.733  14.348  11.038  0.0707  0.0065 -0.0104
 8802W        W25649  11.676  12.423  11.451 -0.0183 -0.0402  0.1909
 8803W        W25650  12.248  18.713  11.195 -0.4375  0.0221 -0.0761
 8804W        W25651   8.581  12.513   9.840 -0.0664  0.0672  0.0631
 8805W        W25652   4.374  15.803   0.962 -0.2660  0.2034  0.3001
 8806W        W25653  13.329  11.832  12.423 -0.1551  0.0524 -0.1815
 8807W        W25654   0.216   2.549   0.458  0.0111 -0.3591  0.2342
 8808W        W25655  16.658   8.615  12.604 -0.0213  0.1739 -0.1101
 8809W        W25656   8.507  13.201  14.121  0.0361 -0.0397  0.0419
 8810W        W25657  12.519  18.575   9.706  0.1768 -0.0634 -0.2376
 8811W        W25658   5.699   5.206  14.081 -0.2619  0.0697  0.0191
 8812W        W25659  18.337  17.497  12.050  0.0328 -0.1270 -0.2089
 8813W        W25660   5.290   0.819  13.980 -0.2855 -0.5277 -0.1700
 8814W        W25661   0.686   6.157  12.445 -0.2297 -0.3020 -0.0180
 8815W        W25662   9.561  12.749   0.725  0.1250  0.1165  0.2440
 8816W        W25663  15.832   5.148  13.045 -0.2503 -0.0082 -0.0907
 8817W        W25664  12.280   4.236   2.472 -0.1650  0.1317  0.1360
 8818W        W25665   2.737   9.586   3.399 -0.0061 -0.3104  0.1595
 8819W        W25666  10.607  13.476   1.220 -0.1178 -0.1451  0.1176
 8820W        W25667   1.106   2.114  11.738 -0.3086  0.2632 -0.3853
 8821W        W25668   5.067  18.908  10.147  0.0305  0.0648  0.2504
 8822W        W25669   0.922   4.377   8.669  0.0056  0.0301 -0.4000
 8823W        W25670  14.669   1.861  11.604 -0.2321 -0.3335  0.4301
 8824W        W25671  16.540   3.224  11.655 -0.2040 -0.1869 -0.3102
 8825W        W25672   1.462  18.754  11.224  0.0015 -0.0094 -0.0628
 8826W        W25673   0.583   1.733   4.241  0.2873 -0.0566  0.1874
 8827W        W25674  17.620  10.573  11.382  0.0128  0.3500 -0.1661
 8828W        W25675   2.482  13.427  13.708  0.3244  0.2090 -0.3683
 8829W        W25676   4.429   2.921  10.368 -0.0769 -0.0039 -0.3488
 8830W        W25677  18.289   7.028   4.338 -0.0046 -0.1281  0.2055
 8831W        W25678  14.989  15.074   4.113 -0.1230 -0.3170 -0.2013
 8832W        W25679  16.899   8.572   4.321 -0.0629 -0.0813 -0.1890
 8833W        W25680  19.119   9.748  12.987  0.0492 -0.0843 -0.2670
 8834W        W25681   8.303   7.858  10.343  0.2984  0.0018  0.1670
 8835W        W25682  11.250   1.410   0.101 -0.2783  0.2823 -0.2183
 8836W        W25683  19.147   4.866  11.435 -0.2464 -0.0028  0.0682
 8837W        W25684  12.009  17.349   4.485  0.1138 -0.1221 -0.0652
 8838W        W25685  15.589   3.961   3.797  0.0295  0.0647  0.0888
 8839W        W25686   0.800  11.463  10.614  0.0939 -0.0108 -0.0195
 8840W        W25687  18.966   4.652  10.157  0.0338  0.0180  0.2764
 8841W        W25688   8.475  12.569   4.806  0.1203 -0.1193  0.0687
 8842W        W25689  10.009  15.547   1.048 -0.0272 -0.0567  0.2064
 8843W        W25690  19.558  19.136   1.119 -0.0425  0.2029 -0.1923
 8844W        W25691   9.486   0.737  13.300  0.0589 -0.0430  0.0157
 8845W        W25692  19.927  10.850   1.698  0.0035  0.1407 -0.4075
 8846W        W25693   2.299   0.452  10.420  0.0187 -0.1632  0.1243
 8847W        W25694   7.496  17.268  12.860  0.0221  0.0170 -0.1949
 8848W        W25695   2.352   1.511   3.410 -0.2184 -0.0157 -0.2697
 8849W        W25696   9.315   2.917  11.520 -0.1306  0.3592 -0.0796
 8850W        W25697  19.431  13.298   3.854 -0.0378  0.1275  0.1459
 8851W        W25698  15.126  16.399  11.401  0.1844  0.0316 -0.1771
 8852W        W25699   3.045   7.910  13.950  0.2228 -0.1628  0.0773
 8853W        W25700  11.963   9.659   0.259  0.1467  0.0179 -0.3198
 8854W        W25701   4.628  18.560  14.258 -0.1525 -0.0156  0.0838
 8855W        W25702   2.112  14.443   1.596  0.2326 -0.0352  0.3870
 8856W        W25703  17.669  11.968  10.305  0.1849  0.0244 -0.1199
 8857W        W25704   6.406   2.690   9.366 -0.1378  0.2181  0.0748
 8858W        W25705  18.650  11.548   3.502  0.2251  0.4436 -0.1356
 8859W        W25706   4.664  13.865  11.507  0.5174 -0.0813  0.0893
 8860W        W25707   5.601  14.495  12.293  0.2678 -0.1628  0.0870
 8861W        W25708   3.865  16.619  14.209  0.1169  0.0603  0.1999
 8862W        W25709   0.978   7.667   1.828 -0.1382 -0.0677  0.4068
 8863W        W25710  12.000   7.263  11.708 -0.0190 -0.0881 -0.1713
 8864W        W25711   6.183  13.159   9.226 -0.1355 -0.0166 -0.0770
 8865W        W25712   1.564  10.953   5.279  0.0616 -0.0060  0.1926
 8866W        W25713   6.767  18.055  11.355 -0.1607  0.1693  0.0470
 8867W        W25714  10.083   9.183   2.168  0.4016 -0.0697  0.3892
 8868W        W25715  17.807  17.829   3.820  0.0615  0.1618  0.1688
 8869W        W25716  12.045  15.852   0.489 -0.0821  0.1541  0.2227
 8870W        W25717  15.586  17.959  10.388  0.3138 -0.0431  0.0522
 8871W        W25718   7.162  16.814   2.259  0.1355  0.1670  0.0773
 8872W        W25719   9.775   4.884   1.234  0.2008 -0.0729  0.0452
 8873W        W25720  16.058   1.060  10.431  0.3645 -0.0585  0.4754
 8874W        W25721   4.380   1.497   0.355 -0.3462  0.1697 -0.1124
 8875W        W25722   5.562   9.534  10.160 -0.0652 -0.0049  0.0980
 8876W        W25723   6.804  17.485  12.461  0.1120 -0.2622  0.2406
 8877W        W25724  12.746   0.639   9.401 -0.0500  0.1201 -0.0075
 8878W        W25725   8.027  10.159  10.456  0.2902  0.1544 -0.3422
 8879W        W25726   6.887   3.254   0.322  0.3657  0.2174  0.2104
 8880W        W25727   9.317  13.580   3.499  0.0563 -0.0598 -0.0984
 8881W        W25728  12.366  14.641  10.824 -0.1187 -0.3623  0.0379
 8882W        W25729   0.898   7.734   3.747  0.0697 -0.1714  0.0419
 8883W        W25730   5.934  13.040   2.430 -0.0242  0.1718  0.0392
 8884W        W25731  11.755  17.800   4.434 -0.1013 -0.0400 -0.0698
 8885W        W25732  17.462  14.363  10.202 -0.3016  0.2045 -0.0180
 8886W        W25733   8.931   7.002   2.537 -0.1432 -0.0939  0.1988
 8887W        W25734   8.262  18.505   4.540 -0.0610  0.1994  0.1820
 8888W        W25735   7.377  15.007  11.449  0.0733  0.0082 -0.0959
 8889W        W25736   5.325   6.743   1.419 -0.1530  0.0640 -0.0470
 8890W        W25737  19.790   1.265  13.592  0.1768 -0.2303 -0.4385
 8891W        W25738  16.356   7.514   1.688  0.1715 -0.0306  0.1813
 8892W        W25739  19.254   0.963   3.193  0.0243  0.0612 -0.1694
 8893W        W25740  16.544   8.147   4.122  0.2940 -0.3401  0.3711
 8894W        W25741   7.675   0.115  14.230  0.3726 -0.1027  0.1681
 8895W        W25742   9.672   4.793  13.876  0.2748 -0.2196 -0.1968
 8896W        W25743  13.119  12.737  10.685  0.2671  0.1375 -0.1688
 8897W        W25744  14.457  19.905   9.927  0.1802 -0.1336  0.0213
 8898W        W25745  11.617   1.173  11.892  0.1105  0.2900 -0.3678
 8899W        W25746   3.223   1.358  12.836  0.0536  0.0916 -0.0108
 8900W        W25747  15.085  15.348   3.351 -0.0634  0.3280  0.2798
 8901W        W25748   6.341  15.686  10.546 -0.2317 -0.0162 -0.1857
 8902W        W25749  17.640  17.452  12.910 -0.2078 -0.0987 -0.0124
 8903W        W25750  18.846   8.262  12.556  0.1726 -0.1398  0.3970
 8904W        W25751   3.995   4.592  10.884  0.4992 -0.0202 -0.2506
 8905W        W25752   8.510   5.656   2.291 -0.2590  0.3769 -0.3134
 8906W        W25753   0.869  14.967  13.213 -0.3255  0.0128  0.0077
 8907W        W25754   4.143   3.775  12.628  0.2373 -0.3936 -0.0266
 8908W        W25755   9.197   7.922   2.157 -0.3037 -0.0791 -0.1690
 8909W        W25756  12.735   6.325   3.878 -0.3813 -0.2381  0.1530
 8910W        W25757  11.451   3.492   2.675 -0.0021 -0.0054 -0.2265
 8911W        W25758   7.468   6.984  13.214 -0.0982  0.2058  0.3047
 8912W        W25759   0.853   4.992  11.237  0.2673  0.1797  0.0322
 8913W        W25760  17.900   4.047   4.188  0.1377  0.0638 -0.1496
 8914W        W25761   0.758  15.414   1.623  0.2899  0.0192  0.1464
 8915W        W25762  11.808  10.044  13.452 -0.2359 -0.0131 -0.1972
 8916W        W25763   1.886  19.908   4.789  0.1084 -0.0845  0.0853
 8917W        W25764  10.446   2.169  10.658  0.1282  0.0555  0.1015
 8918W        W25765  17.184   1.252   2.974 -0.1365 -0.2608  0.0795
 8919W        W25766   3.836  19.573   1.757 -0.0080 -0.2153 -0.2376
 8920W        W25767   7.396  11.407  12.794  0.1026 -0.0693  0.0281
 8921W        W25768   3.032   9.182   3.787 -0.0814 -0.0531 -0.1285
 8922W        W25769   4.099  17.886  13.588  0.1502 -0.2119 -0.0022
 8923W        W25770  16.749  16.932   4.472  0.0365 -0.0152 -0.2300
 8924W        W25771   9.751   5.292   2.901 -0.1145  0.2006  0.0218
 8925W        W25772   9.899  14.584  10.772 -0.2075 -0.1417 -0.0716
 8926W        W25773   1.385  14.221   4.893 -0.1838 -0.0725  0.2085
 8927W        W25774   7.750  18.399   2.344 -0.0956 -0.0601 -0.3975
 8928W        W25775  16.504  10.089   5.157  0.0785  0.0985 -0.1563
 8929W        W25776   2.034  17.252   9.570  0.1144 -0.1681  0.1379
 8930W        W25777   9.188   6.928   0.333  0.0567 -0.2551  0.0888
 8931W        W25778   2.367   6.153  12.594  0.1950  0.2935  0.2072
 8932W        W25779   6.294  11.297   1.224  0.0873 -0.0835  0.0713
 8933W        W25780   2.338  11.414   1.669 -0.2046 -0.0373  0.0061
 8934W        W25781   1.099  13.280  14.131 -0.0482 -0.2177  0.1200
 8935W        W25782   6.442   1.813   0.814 -0.1770  0.0404 -0.2171
 8936W        W25783   3.801  12.729   0.327 -0.4422  0.0645 -0.2633
 8937W        W25784   2.420   0.792  12.963 -0.3250  0.1766  0.2505
 8938W        W25785   7.238  14.391  13.048 -0.2825 -0.1531 -0.1180
 8939W        W25786  10.524  14.196  11.007  0.4797  0.1271 -0.1577
 8940W        W25787   6.839   2.290   0.064 -0.1933 -0.0769 -0.3269
 8941W        W25788   0.016  19.759   5.474  0.2697 -0.0993  0.1828
 8942W        W25789   9.926   6.490   0.560 -0.0368 -0.1888  0.1113
 8943W        W25790   7.813  18.576   0.465 -0.3858 -0.1261 -0.0707
 8944W        W25791   1.971  19.738  13.443 -0.2076 -0.2783  0.1433
 8945W        W25792  19.526  14.705   1.516  0.1170  0.1465  0.1596
 8946W        W25793  12.799   2.906   3.868 -0.0761 -0.0400  0.0965
 8947W        W25794   7.035  16.737  13.521 -0.1077  0.3269  0.2338
 8948W        W25795   8.049  12.450  13.550 -0.0519  0.2666  0.1150
 8949W        W25796   3.349  15.644  11.748  0.0362  0.0453 -0.1006
 8950W        W25797  15.053  19.412   0.025 -0.1503  0.0912  0.2104
 8951W        W25798   9.201   0.770  13.798 -0.1163 -0.0054 -0.3818
 8952W        W25799  14.409   0.927   2.069 -0.0977  0.1501 -0.0651
 8953W        W25800  16.879   9.219  13.063  0.0693  0.1705  0.1454
 8954W        W25801   0.267  14.011   1.656 -0.2216 -0.4177 -0.1321
 8955W        W25802   3.782  15.756   1.133  0.2286 -0.1173 -0.2332
 8956W        W25803   4.837   6.679  11.303  0.0565 -0.5742  0.2038
 8957W        W25804   7.564  17.449  11.084 -0.1015 -0.0643 -0.0820
 8958W        W25805  15.932   9.130   5.154 -0.0859  0.0733  0.1302
 8959W        W25806   8.609   7.424   3.707  0.2020 -0.2388  0.0867
 8960W        W25807   0.177   4.428   0.780  0.0231 -0.0315  0.2182
 8961W        W25808   5.959  13.170  10.172  0.0756  0.0208 -0.1188
 8962W        W25809  17.682   8.498   1.460  0.0260  0.1738 -0.1693
 8963W        W25810   9.170  16.828   9.694  0.1174 -0.0018 -0.3442
 8964W        W25811  19.631   8.709  10.849  0.1285 -0.1245  0.2149
 8965W        W25812  16.052  17.991  13.656  0.1286  0.0254 -0.0696
 8966W        W25813   4.367   6.942   4.039  0.2981  0.1052  0.0493
 8967W        W25814   9.556  10.158  11.246 -0.4514 -0.1993 -0.1076
 8968W        W25815  15.249   9.053   3.651 -0.2975 -0.0463 -0.3194
 8969W        W25816  15.615  13.660  13.560  0.1100  0.0435 -0.3362
 8970W        W25817  12.098   6.265   1.732  0.0504 -0.1864  0.1989
 8971W        W25818   7.190   7.191  12.688  0.0006 -0.0437  0.1191
 8972W        W25819   9.823   0.919   9.007 -0.0464  0.0379  0.1953
 8973W        W25820   1.064  15.718   4.190  0.1228  0.2268 -0.3418
 8974W        W25821   9.568   9.037   9.673 -0.0385  0.2060 -0.2382
 8975W        W25822   5.541   8.404   1.313 -0.4379 -0.1709  0.1377
 8976W        W25823  12.025  15.136   4.487 -0.0267 -0.3034  0.1074
 8977W        W25824  14.719   4.045   5.287 -0.0430  0.4597  0.1014
 8978W        W25825   4.509  11.684   3.924 -0.1046 -0.0715  0.1061
 8979W        W25826   5.052   9.224   1.153 -0.0482  0.1932 -0.1579
 8980W        W25827  17.328   6.575   3.949 -0.2769 -0.0630 -0.3772
 8981W        W25828  18.729  11.550   1.882  0.4641  0.0034 -0.2127
 8982W        W25829   9.569  15.158  10.926  0.1114  0.1054 -0.0882
 8983W        W25830   9.328   1.954   2.154 -0.2940  0.0465  0.6238
 8984W        W25831   8.245  19.571   1.686  0.1681  0.2203  0.0136
 8985W        W25832  11.646   3.186   5.437  0.0052  0.1366 -0.2325
 8986W        W25833   0.950   8.114   5.081 -0.0665 -0.0189 -0.4758
 8987W        W25834  17.260  11.928   3.444 -0.1683 -0.0102  0.0792
 8988W        W25835  15.234   5.996   5.002  0.0606 -0.0263  0.2385
 8989W        W25836   3.439  15.485   2.665 -0.1761 -0.4304  0.0681
 8990W        W25837   7.797  12.344   3.065  0.0460  0.1866 -0.0814
 8991W        W25838   3.954   5.634  11.937 -0.1412 -0.3002  0.0970
 8992W        W25839  11.139  11.992   1.014 -0.1204 -0.0866  0.2023
 8993W        W25840   9.784  16.319   2.411  0.0954  0.1506 -0.3376
 8994W        W25841   1.876   1.941  12.118 -0.0605 -0.2781  0.2298
 8995W        W25842   1.731  16.454   0.305  0.1020 -0.0288  0.1286
 8996W        W25843  18.378  16.604   0.895  0.0820  0.2594  0.2420
 8997W        W25844  16.889  19.063  11.638 -0.1564 -0.2613  0.4213
 8998W        W25845  11.487  10.148  10.396 -0.3047  0.0491  0.1223
 8999W        W25846   1.491  19.628   4.506 -0.0360  0.1918 -0.0679
 9000W        W25847   5.373  18.806   1.778 -0.3240 -0.1277 -0.0459
 9001W        W25848  17.074   9.032   4.915 -0.0582  0.2716 -0.1752
 9002W        W25849   3.117  12.659   0.446 -0.0572  0.0675  0.4949
 9003W        W25850  19.850   9.122   0.220 -0.1969  0.0170 -0.0304
 9004W        W25851  11.104  13.996   4.092 -0.0638 -0.1460  0.2126
 9005W        W25852  11.024   4.263  11.177 -0.0302  0.0663  0.3252
 9006W        W25853  11.727   4.005  12.530 -0.1776 -0.3160 -0.1572
 9007W        W25854  12.292  14.136   9.966 -0.0617 -0.0574  0.0427
 9008W        W25855   3.622   9.124   1.308 -0.0768  0.2617  0.2636
 9009W        W25856   5.662  17.479   1.591 -0.1264 -0.2509  0.4318
 9010W        W25857  11.892   3.652  12.882 -0.0051  0.2023 -0.0769
 9011W        W25858   1.473   8.436   1.001  0.2210  0.2975 -0.2945
 9012W        W25859  14.388   9.159   4.265  0.2072 -0.5176 -0.1431
 9013W        W25860  10.191   1.441  10.404  0.0483 -0.1980 -0.1055
 9014W        W25861   3.199  17.387  13.921 -0.2070  0.0436  0.0534
 9015W        W25862   2.013  19.427  11.056 -0.1167  0.3630  0.4893
 9016W        W25863  13.901   2.924  12.488  0.0087  0.0217  0.3020
 9017W        W25864  10.153  18.296  13.216  0.2571 -0.1334  0.2774
 9018W        W25865   5.260   2.441  13.068 -0.0452 -0.0076  0.3653
 9019W        W25866  10.537  15.214  12.999 -0.0607 -0.2243  0.1490
 9020W        W25867  10.754  10.299  12.600 -0.0443 -0.0682 -0.1057
 9021W        W25868   1.048   3.956  12.459 -0.0472  0.0510  0.3870
 9022W        W25869  15.174   8.779   4.110 -0.1347  0.0336 -0.2395
 9023W        W25870   0.474   9.026   0.176 -0.1283  0.2676  0.1416
 9024W        W25871  14.286  14.225  13.450  0.2255  0.0130  0.2233
 9025W        W25872  18.115   6.736   0.017  0.2247 -0.1056 -0.2421
 9026W        W25873   0.971  10.495  10.912  0.3344  0.6227 -0.0037
 9027W        W25874  10.274  10.547  12.622  0.2505  0.0550 -0.1598
 9028W        W25875  14.027  18.017   3.511  0.0536  0.3965  0.2731
 9029W        W25876   4.600  18.399  12.952 -0.0018 -0.1929  0.1960
 9030W        W25877  14.035   1.013  10.612  0.2426  0.0924  0.3171
 9031W        W25878   1.728  13.234   1.195  0.1198 -0.0516  0.3462
 9032W        W25879  14.876   0.024  13.137 -0.0233 -0.1745  0.2037
 9033W        W25880   4.179   8.900   3.920 -0.2774 -0.0159  0.0386
 9034W        W25881   8.189  15.944   1.104 -0.3115  0.1168 -0.0876
 9035W        W25882  15.974  17.510   3.415 -0.1336 -0.0384 -0.1931
 9036W        W25883  18.128  10.946   4.066 -0.1226  0.3631  0.0800
 9037W        W25884  15.286   2.381   1.804 -0.3040 -0.0684 -0.1934
 9038W        W25885   9.712  13.220   4.153 -0.0030 -0.5614 -0.1243
 9039W        W25886  11.095   7.396   3.464 -0.2712  0.1357 -0.0006
 9040W        W25887  13.498   4.316  12.451 -0.0452  0.2446 -0.1083
 9041W        W25888  16.810  16.006  11.128  0.1162  0.5593 -0.2654
 9042W        W25889  12.567   7.051   2.778  0.0486 -0.2343 -0.1630
 9043W        W25890   1.498  10.087  12.030 -0.2664  0.2254 -0.2564
 9044W        W25891  13.548   1.454  11.873  0.4030 -0.2391 -0.0064
 9045W        W25892   3.992  19.139  14.189  0.0024  0.0375  0.1895
 9046W        W25893   0.034  13.903  10.788  0.5492  0.2255 -0.3556
 9047W        W25894  14.501   9.367  11.383  0.1878  0.3864  0.2612
 9048W        W25895   9.146   1.292  10.324  0.1158 -0.1839 -0.0588
 9049W        W25896   6.659   6.217  10.927 -0.0362  0.0955  0.1380
 9050W        W25897   1.356  17.172   0.799  0.1614  0.1367 -0.2937
 9051W        W25898  17.051  11.843   3.990 -0.1085 -0.2101  0.0778
 9052W        W25899   3.146   6.231   3.633 -0.0612 -0.2039 -0.0353
 9053W        W25900   5.103   3.310   3.529  0.3565  0.1040 -0.0470
 9054W        W25901  18.653  18.597  14.005  0.0912  0.1355 -0.1464
 9055W        W25902   7.716   0.672  13.695 -0.2896  0.0246  0.0485
 9056W        W25903  11.839  11.582   4.849 -0.1851 -0.1664  0.1010
 9057W        W25904  17.816  15.872  13.909 -0.1350  0.2850 -0.2284
 9058W        W25905   8.106  11.277  11.405 -0.2080 -0.2914 -0.0708
 9059W        W25906   4.694  13.315  10.438 -0.5111 -0.2229 -0.0426
 9060W        W25907  14.465   3.762   0.460  0.1196 -0.1479  0.0524
 9061W        W25908  19.346   9.772   3.166  0.0511 -0.0390 -0.1356
 9062W        W25909   6.842   7.451   0.962  0.0712  0.0196  0.0253
 9063W        W25910   8.373   6.089   4.974 -0.3198  0.1870  0.1771
 9064W        W25911  13.572  18.804   5.184 -0.4108  0.0053  0.3869
 9065W        W25912  14.252   4.872  14.120  0.0053  0.0539  0.0042
 9066W        W25913  14.819   2.481   0.405  0.1105  0.0643  0.1182
 9067W        W25914   2.846   6.082   2.314  0.2843  0.1932 -0.0556
 9068W        W25915  10.707  12.633   1.638  0.1707  0.0454 -0.1301
 9069W        W25916   5.213  11.545  12.878  0.1832 -0.0836  0.0139
 9070W        W25917  19.019   3.317   2.796  0.0231  0.0278 -0.1420
 9071W        W25918  16.208   6.679  13.027  0.1815  0.2420 -0.1360
 9072W        W25919  10.698   9.235   0.827 -0.0869  0.2047 -0.1551
 9073W        W25920  19.803   7.356   3.072 -0.2362 -0.0692  0.1394
 9074W        W25921  10.970   6.504   1.959 -0.1874 -0.0367 -0.0966
 9075W        W25922  11.115   0.718   4.459 -0.0608  0.4883  0.1911
 9076W        W25923   9.661   6.750   1.354  0.1868 -0.1785  0.1585
 9077W        W25924  13.592  14.350   0.674  0.0417 -0.3864  0.1094
 9078W        W25925   8.622  15.879  12.681 -0.1923  0.1692  0.2814
 9079W        W25926   7.835   0.380  12.008  0.2088 -0.3088 -0.0442
 9080W        W25927   5.530  15.610  10.152  0.3471 -0.1651 -0.2650
 9081W        W25928   4.499   4.547  10.482 -0.0661  0.0728  0.3685
 9082W        W25929   2.591  10.968   8.797  0.1026 -0.2672  0.2868
 9083W        W25930   1.862   4.351   3.501  0.4423  0.1492 -0.1074
 9084W        W25931  14.673   7.743   4.566  0.0266 -0.1540  0.0930
 9085W        W25932   2.646  18.729  11.319  0.1081 -0.0134 -0.1721
 9086W        W25933  19.542  16.858  10.952 -0.2258  0.3498 -0.0986
 9087W        W25934   4.471  19.886   0.723  0.1044 -0.1048  0.0684
 9088W        W25935   9.284   6.004  12.647  0.0219 -0.0039  0.0551
 9089W        W25936   1.029  15.686   1.916 -0.3726  0.0815 -0.1041
 9090W        W25937   3.794   5.834   0.247  0.0027  0.0383 -0.0591
 9091W        W25938   9.362  16.158   2.542  0.4415 -0.2377  0.0597
 9092W        W25939   8.149   2.444  12.482 -0.1133 -0.1824  0.1863
 9093W        W25940  13.048   1.024   3.402 -0.0659 -0.1103 -0.1141
 9094W        W25941  15.539  13.166  10.897  0.1220 -0.0798  0.1796
 9095W        W25942   8.743  16.705   2.823  0.0793  0.0090 -0.1118
 9096W        W25943  15.118  15.744   1.351  0.2718  0.2214  0.0670
 9097W        W25944   7.889   4.749  10.258 -0.0945 -0.1369 -0.0881
 9098W        W25945  14.066   7.799  12.829 -0.1914  0.0463 -0.2187
 9099W        W25946   7.735  18.033  13.060 -0.0849 -0.1182  0.2497
 9100W        W25947  11.356  18.601   3.312 -0.1607 -0.0081 -0.1892
 9101W        W25948   5.869   4.284   4.124 -0.1705  0.0341  0.0518
 9102W        W25949  17.651  11.824  14.139  0.3139  0.1110  0.0809
 9103W        W25950   0.263   6.227   5.140  0.2179 -0.2264 -0.0220
 9104W        W25951  10.637   8.645   2.053  0.2456  0.0710  0.0053
 9105W        W25952  15.081   3.772   3.946 -0.3021  0.0289  0.3168
 9106W        W25953  19.741  10.919   2.870 -0.0215 -0.1478  0.0381
 9107W        W25954   8.333  16.908   3.091 -0.2261  0.0746  0.0639
 9108W        W25955  13.948  17.418  13.705 -0.3106  0.0165 -0.1572
 9109W        W25956   4.061   5.112   0.878 -0.0808 -0.3888  0.0576
 9110W        W25957   2.462   9.595  10.823 -0.0761  0.2187 -0.2409
 9111W        W25958  13.756   3.528   0.941 -0.1713 -0.2280  0.2452
 9112W        W25959  18.268  14.820  10.766 -0.3434 -0.0363  0.1803
 9113W        W25960   3.960  19.781  13.320 -0.2102 -0.0232  0.2555
 9114W        W25961  15.711  13.999   3.702  0.2375  0.1452  0.2749
 9115W        W25962  19.637   3.787   0.437 -0.0449 -0.2228 -0.2764
 9116W        W25963   2.534   0.231   4.873  0.3071 -0.1317  0.0309
 9117W        W25964   5.765  13.205  10.713 -0.4446  0.0874  0.2251
 9118W        W25965  19.335   1.038  10.537 -0.2608  0.0007 -0.0152
 9119W        W25966  18.066  12.985   5.012  0.0983 -0.4888 -0.3403
 9120W        W25967   6.932   2.020   1.167 -0.0538  0.0107  0.1100
 9121W        W25968  12.186  18.377   3.494 -0.1221  0.1363 -0.1403
 9122W        W25969   5.944  16.473   3.474 -0.1016 -0.1176 -0.0033
 9123W        W25970  11.443   5.019   3.898  0.0084  0.0179  0.3295
 9124W        W25971  18.931  15.059  10.939 -0.0640 -0.3340 -0.0605
 9125W        W25972  17.071   2.422   4.575 -0.0835  0.0556 -0.3080
 9126W        W25973  17.464   2.318  14.295  0.3202 -0.0319  0.1980
 9127W        W25974  10.703  15.094  12.277 -0.5436  0.4220 -0.0479
 9128W        W25975   7.616  14.610   3.411  0.1041  0.1588  0.2186
 9129W        W25976  11.355  17.374   3.136 -0.0535 -0.0754  0.1256
 9130W        W25977  14.807   7.872  12.236 -0.3568 -0.1150  0.0325
 9131W        W25978  10.992   2.870   2.664 -0.0474  0.3982  0.0676
 9132W        W25979  17.632   2.763   1.543 -0.0095 -0.3034  0.4145
 9133W        W25980  15.030  10.310   4.524  0.0779  0.0884 -0.2195
 9134W        W25981   5.886  14.699   2.600  0.0131  0.1270  0.1893
 9135W        W25982   0.689   8.952   2.348 -0.3089 -0.0658 -0.0124
 9136W        W25983  14.707  10.580   0.458 -0.1776 -0.0378  0.1758
 9137W        W25984  10.742   4.139   4.600 -0.0860  0.1654 -0.1905
 9138W        W25985  10.285   2.450   2.349  0.1519 -0.3343 -0.1062
 9139W        W25986   8.948   6.232  14.078  0.1413 -0.2032  0.1705
 9140W        W25987  15.448   7.811   4.868  0.0843 -0.0924  0.4700
 9141W        W25988   3.682   3.269  10.792 -0.0533  0.0635 -0.3279
 9142W        W25989   3.877  14.045  11.010  0.1796 -0.0448 -0.3821
 9143W        W25990   3.414  17.091   3.236  0.4828  0.2612 -0.0351
 9144W        W25991   2.011   9.485  11.159 -0.0394  0.0218  0.1990
 9145W        W25992   9.453  13.535   0.182 -0.2658  0.2384  0.0832
 9146W        W25993  14.621  13.092   0.552  0.0150 -0.0720  0.2002
 9147W        W25994  14.915   0.408   0.058  0.1157  0.0727 -0.0382
 9148W        W25995  16.048   7.387   3.585  0.2183  0.0091  0.2684
 9149W        W25996  17.675  15.417  10.841 -0.0629  0.3039  0.2869
 9150W        W25997  11.649  16.374   1.140  0.1661  0.0944  0.1442
 9151W        W25998   8.756  10.748   2.521  0.0659  0.3371 -0.2137
 9152W        W25999  15.688   0.660   4.858  0.1630 -0.2042 -0.0474
 9153W        W26000   5.320  17.409  12.634 -0.1630  0.1372  0.0505
 9154W        W26001  15.295   9.213  14.151  0.0339  0.1259  0.5797
 9155W        W26002   8.184  19.783   3.507  0.3336 -0.3302  0.1607
 9156W        W26003   3.932   9.544   2.135 -0.5050  0.1416  0.1280
 9157W        W26004  15.567   9.132   2.838 -0.2165  0.0019 -0.0178
 9158W        W26005  16.201  14.708   3.542  0.4394  0.2214 -0.1324
 9159W        W26006   2.594   2.188   3.550  0.2556 -0.0389 -0.0508
 9160W        W26007   9.955  17.048  14.197 -0.0370  0.1618  0.2917
 9161W        W26008   7.054  18.457   3.817  0.1606 -0.3102 -0.5737
 9162W        W26009  18.225   7.481  13.859 -0.1957  0.3055  0.1001
 9163W        W26010   5.484  19.757   0.691 -0.1521 -0.0088  0.0012
 9164W        W26011  12.816  13.473  11.011 -0.2684  0.4116 -0.1572
 9165W        W26012  11.941   0.520  10.563  0.1564 -0.2548 -0.1257
 9166W        W26013   9.576  10.312   3.762  0.1928 -0.2034  0.0597
 9167W        W26014  13.701  16.830   3.399  0.1654  0.0142  0.3557
 9168W        W26015  19.279   6.745   5.246 -0.1134  0.5836 -0.0865
 9169W        W26016   3.881   0.648   2.808  0.3319  0.3903 -0.0448
 9170W        W26017   7.143   9.743  12.187 -0.1077 -0.0985 -0.0288
 9171W        W26018  12.706  13.710   1.721  0.2240  0.0701 -0.1761
 9172W        W26019  13.515   8.912  10.402 -0.0586 -0.0588  0.2657
 9173W        W26020  15.348   8.594   1.980 -0.0757 -0.1043 -0.0861
 9174W        W26021  14.171   0.262  11.341  0.0092  0.2490  0.0671
 9175W        W26022  19.749  17.094   1.663 -0.1474  0.0211  0.0739
 9176W        W26023   7.752   2.131  11.195 -0.2305  0.1368 -0.1972
 9177W        W26024  14.677   5.951   3.791 -0.1229  0.1909  0.2231
 9178W        W26025   1.415  15.051  13.568 -0.1071 -0.1507  0.1240
 9179W        W26026  11.448   7.770   9.967  0.2501  0.0844  0.5794
 9180W        W26027   8.868  14.750  12.025  0.1604 -0.1919 -0.0981
 9181W        W26028  18.930  11.907  12.828 -0.0499 -0.1366  0.0843
 9182W        W26029   6.813  16.989  11.245 -0.1269 -0.1296 -0.0598
 9183W        W26030   3.071   7.182  12.030  0.2740  0.0164  0.0209
 9184W        W26031  11.106   4.469   2.710 -0.0758  0.2395  0.0926
 9185W        W26032  19.584   0.081   2.187  0.2621  0.0096  0.0178
 9186W        W26033   4.896  11.933  13.881  0.1010 -0.0378  0.0486
 9187W        W26034   0.318  19.861  12.993  0.2822 -0.0620  0.1676
 9188W        W26035   2.490   7.152   5.242  0.2919  0.1203 -0.1248
 9189W        W26036   3.328  17.949  12.814 -0.1439 -0.1237 -0.1067
 9190W        W26037  17.741   7.273  12.420 -0.1591  0.0642 -0.0541
 9191W        W26038   8.504  13.524  10.559 -0.2055  0.2462 -0.3779
 9192W        W26039  17.914  18.042   4.768  0.0607 -0.1997  0.1047
 9193W        W26040   8.665  17.627  14.065 -0.0650 -0.0090  0.2145
 9194W        W26041   6.741  16.210   9.662 -0.1875  0.3711  0.0492
 9195W        W26042   6.498  11.619   5.473  0.1097 -0.1044  0.1134
 9196W        W26043   5.181   1.089  11.067  0.0711  0.1794  0.4930
 9197W        W26044   4.219  15.699   3.174  0.0063  0.2107  0.0340
 9198W        W26045  13.985  15.976  14.038 -0.4148  0.0624  0.3668
 9199W        W26046  17.696  11.744   0.347  0.0246 -0.0314  0.0710
 9200W        W26047   7.693   0.406   4.969 -0.1274 -0.2740  0.4881
 9201W        W26048   6.101   4.082  10.355  0.2544 -0.3826 -0.0132
 9202W        W26049   2.122   9.526  12.422 -0.1233 -0.4516  0.1144
 9203W        W26050  14.749  19.153   3.244  0.3091  0.1586  0.2605
 9204W        W26051   4.296   6.253  13.147 -0.0361 -0.1843 -0.0619
 9205W        W26052  12.869  17.647   4.196  0.1656  0.1520  0.3399
 9206W        W26053  16.586  15.783   2.866 -0.1766  0.1676 -0.0211
 9207W        W26054  10.167   6.589   2.761 -0.0231  0.0419 -0.4334
 9208W        W26055  18.719   3.953  10.473  0.0205  0.0613  0.2947
 9209W        W26056   4.204  12.848   2.050  0.0582  0.0372  0.1400
 9210W        W26057  17.575  18.572   0.855  0.0566 -0.1773  0.2683
 9211W        W26058  11.304  15.558   4.348 -0.1063 -0.0847  0.0515
 9212W        W26059  18.579  10.233   0.229  0.1981 -0.1314  0.4218
 9213W        W26060   0.108   3.703   2.435  0.0674 -0.1436  0.2386
 9214W        W26061   1.104   2.601  11.841  0.0880 -0.1474  0.1059
 9215W        W26062   2.031   6.567   2.062  0.0990 -0.3314  0.0480
 9216W        W26063   3.481   7.039   3.993 -0.1908 -0.1220 -0.1765
 9217W        W26064  15.677   6.976   9.912  0.1145  0.0883  0.3388
 9218W        W26065   6.401  17.267  11.106 -0.1723  0.2262 -0.1174
 9219W        W26066  18.857   7.743  10.602 -0.1768 -0.0893 -0.0528
 9220W        W26067  12.451  13.792  11.612  0.2751  0.0747 -0.5495
 9221W        W26068  14.611   8.932   1.896 -0.0193 -0.1238  0.0956
 9222W        W26069  14.297  19.618  12.261 -0.2836  0.4069 -0.1624
 9223W        W26070  15.026  10.627   1.900 -0.1539  0.1864 -0.1255
 9224W        W26071  16.977   9.382   0.794  0.3710 -0.2362  0.1008
 9225W        W26072  17.709  11.413   3.434  0.0785 -0.2317  0.1476
 9226W        W26073   4.933  18.954   0.546 -0.2576  0.0482  0.2035
 9227W        W26074   3.845   4.513   3.876 -0.0678  0.2299  0.1452
 9228W        W26075   3.066  15.826   2.180  0.1562 -0.0166 -0.1847
 9229W        W26076   9.619   3.520   1.553  0.0550  0.1350  0.0265
 9230W        W26077  14.021  11.590  10.566  0.1710  0.2137  0.3899
 9231W        W26078  11.486  12.614  10.018  0.0736  0.0684 -0.3838
 9232W        W26079  10.818   5.671   3.358  0.0660 -0.1425 -0.2042
 9233W        W26080  12.787  17.219   2.297 -0.1057  0.1016  0.1528
 9234W        W26081  16.564  11.499   2.850 -0.1259 -0.1017 -0.0520
 9235W        W26082  10.967  16.155   0.302 -0.2597 -0.2994 -0.0578
 9236W        W26083   0.518   3.395  14.154 -0.3113  0.1807  0.0364
 9237W        W26084  14.663  14.217  13.823 -0.1895  0.0687 -0.0817
 9238W        W26085   0.454   8.401   3.451  0.0206 -0.2701  0.0354
 9239W        W26086   9.653  17.208  12.225 -0.1954  0.3459  0.0646
 9240W        W26087  14.882  18.048   3.134  0.1789 -0.0039 -0.0651
 9241W        W26088  16.453  18.225   9.419 -0.1080  0.1130  0.1722
 9242W        W26089  19.819  18.972   3.282 -0.2465 -0.1069  0.0586
 9243W        W26090   4.309  10.443   0.818 -0.1755 -0.0423  0.2265
 9244W        W26091   8.705  13.630  13.914 -0.1177 -0.2422  0.2334
 9245W        W26092   5.799   8.597   3.020  0.3173  0.1059 -0.2767
 9246W        W26093   0.773  19.072  13.129  0.1574 -0.0132 -0.1602
 9247W        W26094   1.446   9.294   4.557  0.2550  0.2364  0.3373
 9248W        W26095   5.653  12.072   1.200 -0.4416  0.1333  0.1310
 9249W        W26096   2.660  19.837   3.989  0.2794  0.2097  0.3334
 9250W        W26097  12.404   1.583   4.479  0.0264  0.1811  0.0376
 9251W        W26098  19.388  19.033   2.861  0.0705  0.0819 -0.0812
 9252W        W26099   9.474  15.922  13.707  0.3336 -0.0628  0.0256
 9253W        W26100  11.230  15.398  14.027 -0.2960 -0.7532 -0.2857
 9254W        W26101  11.928  17.544   0.002 -0.0628  0.0809 -0.2132
 9255W        W26102  14.365  19.898  12.876 -0.0106 -0.1536 -0.0435
 9256W        W26103  15.571  18.693   4.167  0.4985 -0.1688 -0.0116
 9257W        W26104  10.172  18.754  12.916 -0.0664 -0.2218 -0.3872
 9258W        W26105   7.592   0.097  12.784  0.0950  0.0739 -0.1065
 9259W        W26106  15.740  11.918   4.956  0.0857  0.1797  0.0729
 9260W        W26107  19.107  15.242   4.218 -0.2375 -0.0788  0.0434
 9261W        W26108   4.546   0.730   1.774  0.1708  0.0505 -0.1347
 9262W        W26109  13.712   6.524   0.614 -0.0517  0.0750  0.1255
 9263W        W26110   1.295   6.835  13.111 -0.1002  0.1714  0.1181
 9264W        W26111   2.617   6.909  12.130  0.2890  0.0135  0.0960
 9265W        W26112  18.330  19.177   3.934 -0.1688 -0.0404  0.0099
 9266W        W26113   3.761   5.694   4.490 -0.0280  0.4089 -0.0025
 9267W        W26114  11.460  17.471  11.630 -0.3047 -0.1511  0.0308
 9268W        W26115  10.117   9.557  12.759 -0.0030 -0.1854 -0.3512
 9269W        W26116  14.153   9.705   1.324  0.0737  0.1930  0.1669
 9270W        W26117  11.255  10.779   4.085 -0.6389  0.1816  0.0156
 9271W        W26118   2.504   7.637  14.005 -0.4547  0.0511 -0.1690
 9272W        W26119  17.194  11.090   1.770 -0.0316  0.1152 -0.4434
 9273W        W26120   9.804  13.855   4.719  0.0336 -0.0165  0.0332
 9274W        W26121   2.542  13.975   9.896  0.1951  0.1150 -0.1820
 9275W        W26122  15.709  10.894   1.234 -0.1865  0.3493 -0.0745
 9276W        W26123  15.467  10.123   5.250 -0.2139 -0.0672 -0.3139
 9277W        W26124  13.631  15.253  11.876  0.4792 -0.4400 -0.0624
 9278W        W26125   8.404   1.072   0.607 -0.5956  0.2713  0.1254
 9279W        W26126  17.069   8.026   2.538  0.1384  0.0737  0.0665
 9280W        W26127  11.758   5.720  12.075 -0.0142  0.5096  0.1322
 9281W        W26128  17.761  11.341  14.278  0.2410  0.3151 -0.3018
 9282W        W26129   5.883  19.071  13.677  0.1501  0.1982  0.3086
 9283W        W26130   4.908  13.983  13.485  0.3299  0.1027 -0.1220
 9284W        W26131   9.635  19.533  10.439 -0.2325 -0.0597  0.2971
 9285W        W26132  16.614   0.429  12.575  0.2005  0.0343  0.0256
 9286W        W26133  10.746   0.876   3.155  0.2284  0.0776  0.2623
 9287W        W26134   6.874   3.654   0.073  0.2472  0.0734 -0.0937
 9288W        W26135   7.684  17.573   1.447 -0.0999  0.2918 -0.0499
 9289W        W26136  12.909  11.902  13.116  0.2060  0.0250  0.0289
 9290W        W26137  17.203   5.507   0.579  0.0067 -0.1480  0.0586
 9291W        W26138  18.447   1.828  11.727  0.4549 -0.1421  0.1625
 9292W        W26139  10.900  17.540   4.167  0.1765  0.1891 -0.0513
 9293W        W26140   1.976   9.181   8.808  0.1521 -0.1096 -0.1012
 9294W        W26141   6.266   4.757  11.014 -0.1089  0.3449  0.2460
 9295W        W26142   2.543   6.147  13.566 -0.0674  0.1350 -0.4773
 9296W        W26143   7.613  16.118  12.599 -0.0668 -0.1493 -0.1431
 9297W        W26144  13.987  18.539   3.452 -0.1698 -0.1351 -0.1000
 9298W        W26145   2.078  13.634   3.802  0.0026 -0.0515 -0.3014
 9299W        W26146  17.610   6.645   2.795 -0.0210 -0.1531  0.1641
 9300W        W26147  17.742   9.037   1.235  0.1514 -0.0892 -0.1396
 9301W        W26148  18.575   8.195  10.548 -0.0381  0.2280 -0.3541
 9302W        W26149  12.305   6.442   3.582 -0.1202 -0.0815 -0.4264
 9303W        W26150  19.155   7.176   1.830  0.2252 -0.0646  0.1546
 9304W        W26151  10.196   7.636  13.684 -0.0806 -0.0438 -0.0222
 9305W        W26152  13.516  10.499   2.458 -0.0255  0.1072  0.1813
 9306W        W26153  13.076  18.601  10.477 -0.2076  0.0709 -0.0369
 9307W        W26154   5.964   7.433   1.274 -0.4757  0.0904  0.0398
 9308W        W26155   3.307  15.844  12.348  0.2166  0.1166  0.0675
 9309W        W26156  17.199  15.021  11.027 -0.0744  0.4431 -0.0997
 9310W        W26157   7.381  17.063  11.767  0.2725 -0.1283 -0.0075
 9311W        W26158   6.824   3.745  12.054 -0.0407  0.4349  0.0583
 9312W        W26159   6.110  13.118  14.139  0.0001  0.1347 -0.1107
 9313W        W26160  16.256   3.692  11.536  0.1406  0.0484  0.3737
 9314W        W26161   3.402  19.148   0.197 -0.3116 -0.3307 -0.0146
 9315W        W26162   7.633  10.078  11.685 -0.3687 -0.2612  0.0238
 9316W        W26163   2.778  13.580  11.254  0.1676  0.3588  0.0575
 9317W        W26164  11.994  17.197   1.007 -0.0895  0.0971  0.2168
 9318W        W26165  11.754  11.071   2.477 -0.0106  0.0885 -0.0030
 9319W        W26166   6.733  16.078  11.267  0.3022  0.2574  0.3332
 9320W        W26167  13.846  14.044   2.327  0.1944  0.0262  0.2686
 9321W        W26168  19.798   6.575  13.539  0.1019  0.3773 -0.0547
 9322W        W26169  17.020   4.946   1.835 -0.0295  0.1459 -0.0008
 9323W        W26170  10.874   7.552   0.868 -0.2089  0.3579  0.0544
 9324W        W26171   2.742   2.555   2.709  0.1412 -0.1052  0.0689
 9325W        W26172   3.173  11.465   3.887  0.1045  0.3889  0.0506
 9326W        W26173  16.837   4.801   5.058  0.1623  0.1889 -0.1315
 9327W        W26174   2.381  12.654  12.638  0.1847  0.0947 -0.0285
 9328W        W26175  16.480  10.125  12.250 -0.1422 -0.0318 -0.1353
 9329W        W26176  18.124  12.196  12.174 -0.1492  0.1748 -0.3968
 9330W        W26177  12.237   0.550   2.599  0.0298 -0.1019 -0.2942
 9331W        W26178   0.187   5.583   1.280  0.1484 -0.0706  0.0379
 9332W        W26179  14.083  18.450  13.130 -0.3472 -0.1678 -0.2357
 9333W        W26180  18.166  14.657   2.054 -0.2492 -0.0654  0.0340
 9334W        W26181  16.860   4.114   4.267  0.1561 -0.2385 -0.1320
 9335W        W26182  15.331  10.415   3.772  0.1693 -0.0161 -0.2034
 9336W        W26183   3.508  16.192  11.323  0.0908  0.0557 -0.0845
 9337W        W26184  12.069  15.700   3.548 -0.0336 -0.0200 -0.0239
 9338W        W26185  17.262  19.902  11.935 -0.3577 -0.2029  0.2746
 9339W        W26186   8.996  19.374  11.031  0.1052 -0.3089 -0.2165
 9340W        W26187   4.783   8.027  10.913 -0.3271 -0.0218 -0.1680
 9341W        W26188  18.272  14.375  13.013 -0.1588  0.3904 -0.1236
 9342W        W26189  18.518  16.438   3.146  0.0281  0.1519 -0.0466
 9343W        W26190  11.768   2.941  13.495  0.0526 -0.1755 -0.1520
 9344W        W26191  16.875   5.067  11.492 -0.1364  0.0515  0.2024
 9345W        W26192  11.930  14.951  10.321 -0.2307  0.0184  0.2371
 9346W        W26193  19.848   6.440   0.077  0.1430  0.4009 -0.1412
 9347W        W26194   5.636   6.094   3.838  0.2423 -0.1337 -0.0381
 9348W        W26195   8.323   8.349   0.611  0.0176 -0.1636  0.1029
 9349W        W26196  19.396   3.727   3.046  0.0400  0.0730  0.1838
 9350W        W26197   4.609   8.384  13.523 -0.1780 -0.1237  0.3712
 9351W        W26198   8.973   4.169   1.428  0.3037 -0.3364 -0.0233
 9352W        W26199   6.284   9.167   1.257 -0.0562 -0.0673  0.3407
 9353W        W26200   1.090   9.992  12.738 -0.1736 -0.0423  0.1456
 9354W        W26201  12.786  18.768   4.204  0.1242 -0.1492 -0.3312
 9355W        W26202  12.607  17.939   9.822 -0.1487  0.1145  0.1785
 9356W        W26203  15.065  19.696   2.912 -0.0623 -0.1989 -0.1952
 9357W        W26204  14.985  11.410  12.680 -0.0851 -0.0146  0.0983
 9358W        W26205  18.366   8.305   1.588  0.2903  0.0379 -0.2943
 9359W        W26206   3.543   9.742   2.997 -0.2557  0.1864  0.1406
 9360W        W26207   2.530   5.977  11.175 -0.0774 -0.2444  0.1150
 9361W        W26208   0.469   0.426  13.732  0.2210  0.0588 -0.0059
 9362W        W26209   7.774  17.668  14.187  0.0375  0.0718 -0.1873
 9363W        W26210   8.666   6.932   3.904  0.0061 -0.2131 -0.1117
 9364W        W26211   6.037   7.450  10.039  0.3175  0.1161  0.1375
 9365W        W26212  10.067   6.434  10.506  0.3830  0.2823 -0.0760
 9366W        W26213   3.448  16.318  12.316  0.3294 -0.0872  0.1465
 9367W        W26214  10.714  15.186  11.694  0.0800 -0.1835 -0.1248
 9368W        W26215  16.969  18.766   5.667  0.1451 -0.0172  0.2130
 9369W        W26216  11.064  15.004   4.162 -0.0840 -0.2346 -0.3755
 9370W        W26217  10.909  19.808   3.917  0.0337  0.0927 -0.0780
 9371W        W26218  10.590  14.021  13.181 -0.4442 -0.3449  0.3503
 9372W        W26219   0.758  13.618  10.267 -0.3982 -0.1286 -0.1638
 9373W        W26220  16.436   6.069   1.405 -0.0052  0.0440  0.2683
 9374W        W26221   3.035   8.340   1.245 -0.1190 -0.5027 -0.5933
 9375W        W26222  18.204   8.663   2.765  0.0709 -0.4105 -0.0010
 9376W        W26223   9.933   7.521  10.416  0.1497  0.1647 -0.1730
 9377W        W26224   5.676   9.967   3.417  0.2256 -0.2430 -0.2028
 9378W        W26225  18.590   2.076   0.732 -0.0843  0.0086  0.0781
 9379W        W26226   4.149   7.334  13.536 -0.1212  0.0686  0.1409
 9380W        W26227   6.062  11.190   2.430  0.2912 -0.0652  0.0328
 9381W        W26228   1.007  18.492  12.431  0.0693 -0.0533 -0.1322
 9382W        W26229  17.194  11.334   4.668  0.1221  0.1427  0.0058
 9383W        W26230  19.394   9.268   4.363  0.0947  0.0395  0.1389
 9384W        W26231   6.114   7.784  12.087  0.3346 -0.2969  0.1531
 9385W        W26232   5.615   0.910  10.263 -0.1149  0.0916  0.3274
 9386W        W26233  17.323  14.574  11.237  0.2914 -0.1681 -0.0405
 9387W        W26234  13.580   7.181   5.168  0.2598 -0.0181  0.0304
 9388W        W26235  16.812  18.334  10.804 -0.1269  0.4974 -0.2025
 9389W        W26236   2.672  15.073   2.508 -0.4543  0.0717 -0.1539
 9390W        W26237   4.188   8.998   8.992 -0.1263  0.2307 -0.5314
 9391W        W26238   1.839  10.965   4.849 -0.3302  0.0715  0.0622
 9392W        W26239   8.722  17.216  12.711 -0.1676 -0.2572 -0.1319
 9393W        W26240   9.557   0.799  10.382 -0.0701  0.0834 -0.0085
 9394W        W26241  17.755   1.495   2.043  0.4890  0.0037  0.0379
 9395W        W26242  17.117  18.543   4.031  0.1361 -0.3737  0.0482
 9396W        W26243  14.918  16.486   4.339  0.1129 -0.0258 -0.0538
 9397W        W26244   9.457  15.577   2.068 -0.0492 -0.0156 -0.2601
 9398W        W26245  19.795   0.414   4.862  0.0170  0.1337  0.1357
 9399W        W26246   1.306   1.144   0.898  0.2915 -0.3530  0.0130
 9400W        W26247   0.476   1.654  12.359  0.0011 -0.0163 -0.1219
 9401W        W26248  18.556   8.538  11.400  0.1019  0.0130 -0.2183
 9402W        W26249  13.840  13.206   3.103 -0.1975 -0.0480 -0.0907
 9403W        W26250  12.442  15.701   3.154 -0.3571 -0.0932  0.2065
 9404W        W26251  19.040   4.077  14.300  0.4150 -0.0317 -0.0280
 9405W        W26252   5.901  13.044   3.677  0.1178  0.4389  0.3002
 9406W        W26253  12.153  13.203   4.702  0.1131  0.1932  0.2223
 9407W        W26254   6.536  15.565   4.173  0.5260  0.0466 -0.3306
 9408W        W26255   1.713   2.252   0.239  0.2748  0.1255  0.0195
 9409W        W26256   3.017  10.582  14.088  0.2807  0.1616 -0.1536
 9410W        W26257   4.292   8.714  13.101  0.2579 -0.0444 -0.0016
 9411W        W26258   3.353   7.051  14.249  0.3362  0.0005  0.0495
 9412W        W26259   6.852  12.139  10.208  0.3633  0.1080 -0.0758
 9413W        W26260  16.990   4.542   4.026  0.2679  0.0732 -0.2341
 9414W        W26261  13.359   0.572   3.988  0.0344  0.0097 -0.2536
 9415W        W26262  11.120  14.091  11.999  0.0121  0.0589  0.1897
 9416W        W26263  16.996  19.786   2.790  0.5563  0.3955 -0.1606
 9417W        W26264   1.409   7.907   3.931 -0.0461 -0.0284 -0.0231
 9418W        W26265  12.718  15.990  10.534  0.0514 -0.1795 -0.2651
 9419W        W26266   1.692  13.177  12.173 -0.0701 -0.3916  0.3275
 9420W        W26267  14.761   8.456   1.997  0.3804 -0.4519  0.2227
 9421W        W26268  17.503   4.624   1.696 -0.1205 -0.0679  0.0083
 9422W        W26269  12.349  19.629  10.998 -0.0795 -0.0238  0.1204
 9423W        W26270  17.870  19.086   3.899  0.1708  0.3552  0.3298
 9424W        W26271   2.588   3.847   2.233 -0.2459 -0.1392 -0.0337
 9425W        W26272   3.262  12.650   2.395 -0.2649 -0.1475 -0.1611
 9426W        W26273  13.032   4.180  11.559 -0.0962  0.0840  0.0483
 9427W        W26274   5.892   8.364   4.555  0.1133  0.2854 -0.0051
 9428W        W26275   5.882   1.032  12.771  0.1612 -0.0829 -0.0660
 9429W        W26276  18.828   9.843  11.006  0.0768 -0.1956 -0.1709
 9430W        W26277   5.610  18.159   3.689 -0.0094 -0.2857 -0.0692
 9431W        W26278   9.743   5.211   2.025  0.2285  0.2496  0.0851
 9432W        W26279  14.978   9.189  12.396  0.0170  0.2919  0.3393
 9433W        W26280   3.253   7.388  13.366  0.0583 -0.0418 -0.1816
 9434W        W26281  17.016  17.210   1.561 -0.1037  0.0256  0.1403
 9435W        W26282   8.016   1.203   0.255 -0.3252  0.2233  0.1255
 9436W        W26283   9.420  11.864   2.707  0.0499  0.4072  0.1561
 9437W        W26284   6.771  12.067   3.384  0.1755 -0.2243  0.2266
 9438W        W26285  17.488  12.248   2.218  0.1570 -0.2546  0.3248
 9439W        W26286  13.734  17.987   4.048  0.0263 -0.0559 -0.1500
 9440W        W26287  11.089  10.336   3.795 -0.0380 -0.1211  0.1306
 9441W        W26288   5.623   2.823   0.100 -0.0428  0.0190 -0.0802
 9442W        W26289   9.608   0.004  10.847 -0.1855 -0.2545 -0.0701
 9443W        W26290   6.610   3.049   4.967  0.1408 -0.1215  0.1605
 9444W        W26291   5.947   5.459  10.809  0.2943  0.0549  0.2726
 9445W        W26292  10.225   0.834   0.443  0.0252 -0.0353 -0.3828
 9446W        W26293  13.447   0.164   0.720  0.1401  0.0613  0.2479
 9447W        W26294  16.440  14.466   5.071 -0.1878 -0.0645  0.0388
 9448W        W26295   8.246   3.963   2.022  0.1480  0.1703  0.1837
 9449W        W26296  18.811   4.413   0.372 -0.0425  0.0332 -0.2733
 9450W        W26297   4.781   8.146   2.477  0.0018  0.2023  0.2004
 9451W        W26298  10.593  14.715   9.953 -0.2056 -0.0378 -0.0675
 9452W        W26299  14.361  18.967   0.779 -0.0541  0.1567  0.2194
 9453W        W26300   9.501  13.701  11.132  0.0336 -0.3421 -0.0580
 9454W        W26301   5.725  18.800   4.284  0.2028 -0.1219 -0.1340
 9455W        W26302   6.265  18.406  11.934  0.0222 -0.2135  0.2860
 9456W        W26303   3.479   2.699  13.275 -0.0359  0.2838 -0.1086
 9457W        W26304  18.900   3.982  12.435 -0.0098 -0.0988 -0.3062
 9458W        W26305   9.419  15.664  11.484  0.1642 -0.0543  0.0471
 9459W        W26306  19.324  19.044  11.612 -0.0951 -0.0158  0.0224
 9460W        W26307   8.126   8.622   1.376 -0.1781  0.2660  0.0943
 9461W        W26308   6.236  16.481   2.157  0.3246  0.1033  0.3202
 9462W        W26309  18.297   1.033   2.881  0.1792  0.1537  0.1056
 9463W        W26310   4.277   3.229  14.234 -0.1380  0.0937 -0.1094
 9464W        W26311  13.398  11.362   2.201 -0.2744 -0.0370 -0.3767
 9465W        W26312   2.492   1.126   2.361 -0.4240  0.2135 -0.0706
 9466W        W26313   1.980  18.176   4.462 -0.1770  0.1719  0.1015
 9467W        W26314  17.749  17.314  10.913  0.0742 -0.2780 -0.0526
 9468W        W26315  14.139  16.011  10.004 -0.1142  0.2071  0.1720
 9469W        W26316   9.035   2.189   1.555 -0.1493  0.1450  0.0181
 9470W        W26317  15.224  16.920   4.417 -0.0164  0.2227  0.1467
 9471W        W26318   5.710  17.265  12.884 -0.0285 -0.3311 -0.2842
 9472W        W26319  14.363  10.416  13.323 -0.1439 -0.0914  0.1032
 9473W        W26320  16.466  17.589  10.222  0.1008  0.0020  0.0580
 9474W        W26321   4.622  16.157  12.391  0.0560  0.1086  0.0229
 9475W        W26322   4.705   3.849   3.795 -0.0007 -0.1232  0.0512
 9476W        W26323  18.223   9.139  13.966 -0.0701  0.2685 -0.2021
 9477W        W26324  12.054   1.128   9.782  0.1072  0.5195 -0.0515
 9478W        W26325   6.525  17.897   0.299 -0.2309 -0.3185 -0.0432
 9479W        W26326  19.801  14.838  11.956 -0.2224 -0.0389  0.0227
 9480W        W26327  13.531  10.509   1.900 -0.3490 -0.2798  0.3737
 9481W        W26328  14.775  13.279  13.467  0.2238  0.0925  0.2405
 9482W        W26329   5.281  10.244   3.720  0.0940  0.3017 -0.0480
 9483W        W26330   9.044   9.044   2.065 -0.1569  0.2063 -0.0682
 9484W        W26331   4.202   5.956   4.215  0.0676  0.0002  0.1342
 9485W        W26332   7.167  12.990  11.131 -0.0733 -0.0379  0.1510
 9486W        W26333  16.388  11.695   1.284  0.2068 -0.0052  0.0294
 9487W        W26334   6.400  18.605   1.956 -0.2080 -0.2752  0.2458
 9488W        W26335  18.566   1.619   1.116  0.2343 -0.1059 -0.1995
 9489W        W26336  18.843  14.276  13.261  0.0114 -0.0118  0.0655
 9490W        W26337  12.218   9.458  10.853 -0.2089 -0.2441  0.1086
 9491W        W26338  12.055   6.478   2.669 -0.1707  0.3031 -0.0224
 9492W        W26339  17.293   9.708   4.234  0.3582 -0.1601  0.0336
 9493W        W26340  12.655  16.797   0.177  0.1704 -0.1154 -0.1532
 9494W        W26341  14.759   5.988  14.252 -0.2329  0.2547 -0.1183
 9495W        W26342  17.918  15.792  13.434  0.1761 -0.1670 -0.0157
 9496W        W26343   9.321  19.855   0.680  0.1230 -0.0901 -0.1145
 9497W        W26344  16.117  11.213   4.549 -0.0873 -0.1222  0.0567
 9498W        W26345   9.357  14.328  12.631 -0.5650  0.0304 -0.0933
 9499W        W26346   7.232  18.886  12.729  0.1172  0.1796  0.0318
 9500W        W26347  16.588   9.582   1.794 -0.2845  0.2836  0.1930
 9501W        W26348  11.263   9.889  13.972  0.2776  0.2381 -0.1759
 9502W        W26349   4.651  19.087   1.097  0.0440 -0.1779  0.0146
 9503W        W26350  13.617   0.420   9.953 -0.0462 -0.1297 -0.1449
 9504W        W26351   9.813   5.563  12.566  0.2037 -0.2470 -0.0870
 9505W        W26352  17.323  10.913   0.828  0.1325  0.1323  0.0828
 9506W        W26353   9.610  13.241  14.011  0.0002  0.0816  0.0044
 9507W        W26354   1.622   6.256   2.031  0.3310 -0.0829 -0.0924
 9508W        W26355   8.147  13.711  10.926 -0.1670  0.1081 -0.1068
 9509W        W26356   8.540  18.654   0.034  0.0860  0.0785  0.0940
 9510W        W26357  19.103   7.984   1.201 -0.1548 -0.3164 -0.1388
 9511W        W26358   4.541  18.721  10.456 -0.2757  0.0184  0.2907
 9512W        W26359  16.288  19.289  10.571  0.0141 -0.4504 -0.2312
 9513W        W26360  12.927  17.761   0.335  0.0526 -0.0766  0.1051
 9514W        W26361   0.783   3.266  10.969  0.1837 -0.2221 -0.1070
 9515W        W26362   2.983  17.614   0.054 -0.0334  0.0229  0.2221
 9516W        W26363   5.764  18.660  12.522 -0.1498  0.0438 -0.2273
 9517W        W26364   9.359  19.044  11.263 -0.2687  0.3298 -0.0396
 9518W        W26365  16.355   3.881   4.289  0.0350 -0.1426  0.0224
 9519W        W26366   1.427  17.177  10.774  0.0289 -0.1090  0.4491
 9520W        W26367  10.244  10.773   1.902 -0.3792  0.0376 -0.1685
 9521W        W26368   8.667  15.194  11.181  0.0546  0.0554 -0.0769
 9522W        W26369   6.423   8.218  12.008  0.3892  0.0878  0.0138
 9523W        W26370   8.032   2.506  11.387  0.0036  0.1566 -0.0272
 9524W        W26371   9.976   5.809  11.231  0.0360 -0.0142  0.4252
 9525W        W26372  12.823   0.548  11.239  0.1496 -0.0592 -0.2246
 9526W        W26373  14.375  17.387   1.033 -0.0330  0.0827 -0.0416
 9527W        W26374   8.281  18.494  10.078  0.3694 -0.1898 -0.3758
 9528W        W26375  19.335  14.807   0.959 -0.1840 -0.3987 -0.2226
 9529W        W26376  10.551  12.938   1.265  0.0258  0.1656 -0.0184
 9530W        W26377   7.710   2.586  10.978 -0.1935 -0.0647  0.2971
 9531W        W26378   0.287  19.457   3.609  0.0844 -0.0769  0.1805
 9532W        W26379   7.355   1.621   1.187 -0.4801  0.3710  0.0651
 9533W        W26380  15.841   1.398  10.829 -0.3613 -0.1336 -0.0072
 9534W        W26381   4.135  12.402   1.258 -0.0966  0.1502  0.3782
 9535W        W26382  14.587  10.133   3.351  0.2524 -0.0637  0.1697
 9536W        W26383  16.262  12.358   3.495  0.2876  0.2427 -0.1817
 9537W        W26384  16.206   0.708  11.240  0.4296 -0.2855 -0.2074
 9538W        W26385   3.234   8.161   9.613  0.3542  0.1830  0.1079
 9539W        W26386   4.525   8.424  10.270  0.1045  0.3979  0.0816
 9540W        W26387   7.577  19.535  12.797  0.0847 -0.0894 -0.4300
 9541W        W26388   8.279  16.263   3.582 -0.1092 -0.1872 -0.2840
 9542W        W26389  14.320  19.586   0.562  0.1228 -0.2250 -0.0663
 9543W        W26390  13.949  17.287   9.844 -0.1532  0.2183  0.3408
 9544W        W26391   3.150  12.867   4.964  0.1856 -0.0028  0.2335
 9545W        W26392  18.623   9.190  13.623  0.2382  0.0401 -0.1419
 9546W        W26393   8.499   9.396  14.051 -0.1009 -0.3222  0.1430
 9547W        W26394   3.189   5.795   1.154 -0.1236  0.2145  0.2664
 9548W        W26395  14.604  15.896  12.768 -0.0350  0.3039  0.0249
 9549W        W26396  16.245  10.077  11.018  0.0511  0.1045  0.2222
 9550W        W26397   8.691   9.532   0.551 -0.2026 -0.0870  0.2275
 9551W        W26398   4.574   5.664  11.942 -0.1757  0.1420 -0.1118
 9552W        W26399   0.798  17.465   0.965 -0.4822  0.1143  0.1570
 9553W        W26400   0.594  12.623   0.454  0.0190 -0.1067  0.2500
 9554W        W26401   0.723   7.289   4.015 -0.1418  0.1120  0.3012
 9555W        W26402   0.274  10.293  11.103 -0.0346  0.1112  0.0384
 9556W        W26403   3.452   6.330  13.339  0.1207 -0.3443  0.1239
 9557W        W26404   7.762  17.493  10.615  0.1912 -0.3289  0.2775
 9558W        W26405   6.363   2.216   3.997  0.0470  0.0940  0.0669
 9559W        W26406  18.724   5.604  10.439  0.1406 -0.0819 -0.1045
 9560W        W26407   5.271  17.879  12.533  0.2268  0.4200  0.0093
 9561W        W26408  14.420   6.576  12.126  0.0617  0.0227 -0.2842
 9562W        W26409   0.382  15.256   3.864  0.4203  0.1177  0.3548
 9563W        W26410   7.827  12.805  10.785 -0.1346 -0.3265 -0.3001
 9564W        W26411   4.364   8.577   4.283 -0.0819 -0.2221 -0.3658
 9565W        W26412   9.146  16.549   3.591  0.3280 -0.4038  0.1026
 9566W        W26413   1.070  17.881   4.348  0.0964  0.1376 -0.0933
 9567W        W26414   8.490  13.196  13.019  0.1239  0.2476 -0.0402
 9568W        W26415  19.553   9.725   0.918 -0.5720 -0.1294  0.0967
 9569W        W26416   0.384  14.656   1.842 -0.1803 -0.0390  0.1436
 9570W        W26417   0.480  11.776  10.925 -0.0259 -0.0165  0.1214
 9571W        W26418  19.036  13.746  10.770 -0.2759 -0.0207 -0.2747
 9572W        W26419  16.862  19.759   1.292 -0.0419 -0.0387 -0.1670
 9573W        W26420   8.652   7.551   1.077  0.2718  0.0337  0.0451
 9574W        W26421  17.910  12.474   2.288  0.0526  0.0835 -0.0444
 9575W        W26422   1.849  17.732  11.209 -0.5475 -0.0360 -0.1160
 9576W        W26423   0.237   4.235  12.448  0.2146 -0.0181  0.0733
 9577W        W26424   3.924  15.361   9.956  0.1796 -0.3410 -0.1099
 9578W        W26425   8.158  19.007  10.012 -0.1167 -0.3742  0.1306
 9579W        W26426  12.521   4.175   4.105  0.1399  0.2065  0.0630
 9580W        W26427   0.608  11.370  13.421  0.0229  0.1795 -0.1787
 9581W        W26428   0.430   3.892  14.036 -0.4793 -0.1578 -0.0668
 9582W        W26429  11.124   1.948  14.311 -0.2430  0.0899  0.2412
 9583W        W26430   9.686  14.798  11.874 -0.2840  0.0269  0.0195
 9584W        W26431  12.718  16.899   1.146 -0.0923  0.0313 -0.0039
 9585W        W26432   9.011  10.456  12.333 -0.0387  0.3820  0.1110
 9586W        W26433  15.901  13.612   2.578 -0.0600  0.0603 -0.1784
 9587W        W26434   9.279  11.734  12.690  0.4591  0.1038 -0.1558
 9588W        W26435   6.149  16.928  12.940  0.3337 -0.0020 -0.1780
 9589W        W26436  10.051   7.355   0.501  0.2144  0.0388  0.0790
 9590W        W26437  15.161  17.448  10.848 -0.4195  0.2272 -0.3055
 9591W        W26438  11.027  16.858  13.352  0.0023 -0.1464 -0.0530
 9592W        W26439   0.904   2.574   1.823 -0.0713 -0.0030  0.3587
 9593W        W26440   9.362  14.502   0.492  0.0880 -0.2427  0.0737
 9594W        W26441   8.324  11.937  14.079  0.0556 -0.2079  0.0945
 9595W        W26442   5.308   6.773  11.995  0.3269 -0.1495 -0.1098
 9596W        W26443   0.144  14.412  10.734 -0.1183 -0.2398 -0.4304
 9597W        W26444  11.111   9.175   0.054 -0.1204 -0.1390  0.0923
 9598W        W26445   9.111  18.388  11.054  0.0440 -0.1228 -0.0064
 9599W        W26446  11.675   0.837  12.476  0.1082 -0.0041 -0.1608
 9600W        W26447   4.361   1.303   0.843 -0.1200 -0.2230 -0.1025
 9601W        W26448  17.402  19.436   2.476  0.3212  0.1019  0.2096
 9602W        W26449  19.144   8.322  10.537  0.0572  0.2470  0.0424
 9603W        W26450   7.276  13.621  11.433  0.2547  0.3382 -0.4181
 9604W        W26451  16.342   9.308  14.284 -0.3440  0.0617  0.0774
 9605W        W26452   2.509   2.087   4.345 -0.2482  0.3083 -0.1251
 9606W        W26453   7.567   8.775  12.629 -0.0913 -0.0800 -0.2080
 9607W        W26454  13.614   3.206   2.014  0.1108  0.0713  0.4132
 9608W        W26455   2.207   5.921  13.884 -0.2584  0.2505  0.0279
 9609W        W26456   4.752   7.767   4.980  0.0103  0.0580 -0.2968
 9610W        W26457  15.857   2.947   4.995  0.2420 -0.2146 -0.0830
 9611W        W26458  14.061  10.215  11.889  0.1745  0.0102 -0.0705
 9612W        W26459   6.205   3.364   9.923  0.2349 -0.1578 -0.1173
 9613W        W26460   9.710   5.088  13.396  0.2016  0.0208  0.4238
 9614W        W26461  11.063  11.571  12.598 -0.0188 -0.2363  0.1898
 9615W        W26462   7.344   8.821   0.985  0.1009 -0.1272  0.3407
 9616W        W26463  15.602  12.024   9.967 -0.0460  0.1436  0.1418
 9617W        W26464   4.502  17.407  12.930 -0.0792  0.1789 -0.1259
 9618W        W26465   1.062  19.730   2.498 -0.1780 -0.2101 -0.0183
 9619W        W26466  14.939   9.586   0.207 -0.1810  0.1679  0.4159
 9620W        W26467  18.613   3.065  12.184 -0.0706 -0.2064 -0.1976
 9621W        W26468   6.053  19.665   9.700  0.1365 -0.1411 -0.3496
 9622W        W26469   7.496   1.443   5.055 -0.5057  0.0852  0.0470
 9623W        W26470   8.146   5.128   2.846 -0.0982  0.0221  0.3018
 9624W        W26471  16.866   9.928   4.864 -0.0052 -0.1415  0.1592
 9625W        W26472   4.056  15.075   1.085 -0.0888 -0.0665  0.1154
 9626W        W26473   0.789  17.639   3.093 -0.0581 -0.0403  0.3269
 9627W        W26474   2.651  14.907  14.245  0.1130 -0.2496 -0.1351
 9628W        W26475  12.599  17.059   8.853 -0.0543  0.3677  0.1032
 9629W        W26476   1.209  14.293  13.115 -0.1114 -0.3094  0.2327
 9630W        W26477   8.683  14.544   9.526  0.3158  0.2189  0.0126
 9631W        W26478   7.874  13.445  10.516  0.0333  0.1800 -0.3425
 9632W        W26479   2.281   3.589   1.219  0.2576 -0.0908  0.1864
 9633W        W26480  14.042   6.532  10.824  0.0702  0.3876 -0.0776
 9634W        W26481   0.609  11.518   1.538  0.0210  0.4182  0.2847
 9635W        W26482   5.212   8.125  14.100  0.0461  0.1690  0.0546
 9636W        W26483  18.529  19.437   0.070 -0.1819 -0.0850  0.2520
 9637W        W26484   6.126   2.485   2.228 -0.2007 -0.1137 -0.1542
 9638W        W26485   9.625  17.773   2.504  0.3604  0.1155 -0.1893
 9639W        W26486  16.128  12.705   3.780  0.0456  0.2306  0.2441
 9640W        W26487  16.906  15.185   4.761  0.1186 -0.4100  0.0886
 9641W        W26488   3.526   9.261  13.804 -0.0125  0.0782  0.0670
 9642W        W26489   2.282   9.981  10.467 -0.0614 -0.0034  0.3395
 9643W        W26490  10.079   1.583   4.033  0.1223 -0.0533  0.0267
 9644W        W26491  19.408  16.018  13.237 -0.0070  0.0089 -0.2182
 9645W        W26492  14.423  15.358  12.780 -0.0774  0.0125  0.0366
 9646W        W26493   9.210  17.608   0.548 -0.1009 -0.0505 -0.1050
 9647W        W26494   1.354   7.974   1.507  0.1120  0.3198  0.1092
 9648W        W26495  18.942  15.596  12.597  0.0210 -0.0087  0.2242
 9649W        W26496   0.474   7.910   3.393 -0.1485 -0.0632  0.3411
 9650W        W26497  15.539   3.754   1.526 -0.0711  0.0867 -0.0498
 9651W        W26498  13.672   2.061   4.858 -0.0388 -0.2235  0.2633
 9652W        W26499   4.856  18.119   0.989 -0.2529 -0.3925 -0.1184
 9653W        W26500   9.079   7.384  13.152  0.0668  0.0970 -0.1128
 9654W        W26501  19.623  11.260  12.822  0.3317 -0.2070 -0.0690
 9655W        W26502   1.130  16.280   9.571  0.0231 -0.4905 -0.0011
 9656W        W26503   3.210  18.833   0.847  0.0820 -0.0852 -0.1090
 9657W        W26504   2.863  10.158   3.440  0.0601 -0.1520  0.1325
 9658W        W26505  16.833  11.054   1.087  0.4986  0.1255  0.2265
 9659W        W26506  19.820  16.412  13.030  0.1771  0.1828  0.2445
 9660W        W26507  17.449   1.500   0.235 -0.0220 -0.1738 -0.0114
 9661W        W26508  19.070   6.585   2.766  0.3246 -0.2300  0.1121
 9662W        W26509  13.346   3.636   0.663 -0.1205 -0.2310 -0.1033
 9663W        W26510  12.325  13.080  14.073 -0.1661 -0.2345  0.0682
 9664W        W26511  16.805  19.908   3.272 -0.2443  0.1433  0.0089
 9665W        W26512  12.646   9.081   3.289 -0.1649  0.0663 -0.1605
 9666W        W26513   9.986   8.760   0.695  0.1368  0.1515 -0.2367
 9667W        W26514   1.331  16.489   1.532  0.0170 -0.2109 -0.2720
 9668W        W26515   7.221   4.605  10.615  0.2381  0.1700  0.0544
 9669W        W26516  17.132   5.098  13.096  0.2887 -0.0790  0.4111
 9670W        W26517   4.688   6.242  11.777  0.1233 -0.2981 -0.2176
 9671W        W26518  16.908   5.199  14.307 -0.0318 -0.3000 -0.0489
 9672W        W26519  12.947  15.646   4.434 -0.3873  0.3520  0.3958
 9673W        W26520   4.310  15.766   1.909  0.1184 -0.2920  0.0144
 9674W        W26521   0.065  12.824   2.024 -0.0042  0.1924  0.0721
 9675W        W26522  18.042  14.352   3.245  0.2448  0.0832 -0.0387
 9676W        W26523   1.251   5.617   3.571 -0.0983  0.0828 -0.0860
 9677W        W26524  10.702  11.939   4.039 -0.1261 -0.2163  0.0536
 9678W        W26525  16.995   7.669  12.190  0.0685  0.1526  0.2013
 9679W        W26526  15.096  13.538   5.165  0.0205 -0.0440  0.0387
 9680W        W26527   8.114   7.669   2.386 -0.2915  0.1016 -0.0620
 9681W        W26528   7.334   2.619  10.503 -0.0348 -0.0417  0.0104
 9682W        W26529   7.559   0.018   4.219  0.0658  0.3421 -0.1146
 9683W        W26530   0.234   8.748  12.713 -0.2969  0.2842  0.0409
 9684W        W26531   8.534   1.132  12.485  0.2021  0.0420 -0.1587
 9685W        W26532  17.645   8.704   3.820 -0.1846 -0.2073 -0.1810
 9686W        W26533   6.355   6.886   0.313 -0.0688  0.2021  0.1008
 9687W        W26534   8.808   0.486  11.863 -0.1900  0.1943  0.0546
 9688W        W26535  18.695   3.394   0.359 -0.0461 -0.2563 -0.1924
 9689W        W26536  17.242  13.914  11.425 -0.2536  0.1183  0.0163
 9690W        W26537   0.413   3.784   2.895 -0.0329 -0.1547  0.2582
 9691W        W26538  13.719   9.183  13.080  0.1616 -0.4470 -0.1167
 9692W        W26539   4.834  15.952  10.870  0.0701 -0.0919  0.0311
 9693W        W26540  18.167  18.375  13.987  0.2489 -0.1639  0.0556
 9694W        W26541   6.310   4.181  12.462  0.1707 -0.4376  0.0458
 9695W        W26542   7.086  14.603   3.599 -0.1027 -0.0061  0.0347
 9696W        W26543  10.378   8.887   9.872 -0.0673 -0.4103 -0.1277
 9697W        W26544   0.560  12.291   0.952  0.1080 -0.1715  0.1717
 9698W        W26545   1.232  16.226   4.133  0.3605 -0.1210 -0.2168
 9699W        W26546  16.498  19.902   1.583 -0.1280  0.1286 -0.4136
 9700W        W26547  13.551   3.766  13.211  0.3626  0.0291  0.0812
 9701W        W26548   3.058  17.049   8.549  0.0548 -0.5986  0.0153
 9702W        W26549   7.158   8.462  13.673  0.0730 -0.0115 -0.2629
 9703W        W26550   9.164   6.931   2.139  0.2068  0.0150  0.3053
 9704W        W26551  13.030   9.988   3.195  0.0390 -0.1311  0.2517
 9705W        W26552  18.280  14.510  13.481 -0.1230 -0.2037 -0.2037
 9706W        W26553   3.290  15.450  13.381  0.0893 -0.3857 -0.0589
 9707W        W26554  14.213   4.397  14.286 -0.3759 -0.2572 -0.1319
 9708W        W26555   9.634  11.995   0.359  0.1513  0.0791  0.0223
 9709W        W26556  16.668  11.691   0.678 -0.2710  0.1014 -0.0310
 9710W        W26557  17.175  12.116  13.123 -0.1961  0.0341 -0.4050
 9711W        W26558   0.054   1.937  12.597 -0.1241  0.0847 -0.0364
 9712W        W26559   0.714   8.524   0.383  0.4513 -0.0858  0.3024
 9713W        W26560   6.049  19.389   2.448 -0.1385 -0.3008 -0.0482
 9714W        W26561   9.954  19.587  11.198  0.0663 -0.1336 -0.2275
 9715W        W26562  17.848  12.633   3.085  0.2700  0.3015 -0.2657
 9716W        W26563   5.736  13.524   3.083 -0.1181 -0.1665 -0.5893
 9717W        W26564   0.203  16.747   1.774 -0.2702  0.0619 -0.2732
 9718W        W26565   1.860  16.887  10.770 -0.4980  0.1547 -0.2543
 9719W        W26566  17.636   6.492   0.066 -0.1223  0.0846 -0.0142
 9720W        W26567  16.519  17.833   4.643 -0.0016  0.0395  0.0952
 9721W        W26568   8.047  19.395  10.396  0.0423  0.0127 -0.1795
 9722W        W26569  13.500  18.104   3.583  0.1407 -0.1867 -0.0082
 9723W        W26570   5.288  16.189  10.908  0.1353 -0.2799  0.1274
 9724W        W26571   7.193  10.769  11.761  0.0006 -0.1177  0.1797
 9725W        W26572   7.148  16.973  10.533 -0.0887  0.5043  0.0835
 9726W        W26573  16.748   0.324   2.587 -0.0229  0.1233 -0.1368
 9727W        W26574   4.841   6.602   1.340 -0.4734 -0.1747 -0.2218
 9728W        W26575   9.667   4.852   3.156  0.2043 -0.1436 -0.2274
 9729W        W26576  17.537  11.386   2.345 -0.1602 -0.2612  0.1334
 9730W        W26577  11.858  10.563  12.584  0.2126  0.2228 -0.2120
 9731W        W26578   0.241   3.112   3.763 -0.1960  0.2095  0.1185
 9732W        W26579   3.723  15.904   4.116 -0.3632 -0.2051  0.0929
 9733W        W26580   9.496  14.666   2.074  0.1203  0.3669 -0.2021
 9734W        W26581   5.276   1.635  11.148 -0.4238 -0.1388  0.0706
 9735W        W26582   0.816   3.303  10.363  0.1168  0.0079 -0.1205
 9736W        W26583  13.231  18.786  10.933 -0.1930  0.1619  0.0490
 9737W        W26584  16.250   9.430   2.166 -0.2549  0.0823  0.0510
 9738W        W26585   1.132  19.285   4.787 -0.2466  0.0899  0.2938
 9739W        W26586  17.207   7.994  10.122 -0.0148  0.0128  0.2206
 9740W        W26587   4.548   0.306   0.310 -0.0204 -0.0308 -0.3022
 9741W        W26588  12.912  14.432   0.075  0.0178  0.3109 -0.2326
 9742W        W26589  11.309   3.044  13.862 -0.0808 -0.0936  0.0760
 9743W        W26590  19.849   4.257   4.854 -0.0733  0.0135  0.0852
 9744W        W26591  19.077   0.425  12.985  0.2324  0.1026 -0.2525
 9745W        W26592  11.434  14.663   0.263 -0.3489  0.0320 -0.2461
 9746W        W26593   8.045  11.029   4.047  0.2731  0.2486 -0.0139
 9747W        W26594  12.847   8.529  13.181 -0.2356  0.0294  0.0534
 9748W        W26595  17.217   8.969   3.461  0.2348 -0.0192 -0.1749
 9749W        W26596   3.012  17.830   0.716 -0.0532 -0.1438 -0.0708
 9750W        W26597  10.637  11.498   4.985  0.3082 -0.2762  0.3224
 9751W        W26598   2.014   4.481   2.693 -0.1230 -0.1943 -0.1627
 9752W        W26599  18.295   3.759   2.428 -0.1677  0.1667  0.1463
 9753W        W26600  17.023  12.453   3.498  0.1354 -0.1708  0.1851
 9754W        W26601  15.827   9.868  11.177  0.1431 -0.2279  0.2666
 9755W        W26602  18.236   5.361  12.462  0.2941  0.0629  0.1370
 9756W        W26603  13.481  14.708   1.982  0.0973  0.0850 -0.2161
 9757W        W26604   0.776  14.203   1.570  0.0089  0.1750 -0.0328
 9758W        W26605   0.968   9.513  11.016  0.2598 -0.0033 -0.2640
 9759W        W26606   4.149  15.182  13.026 -0.2561  0.2940  0.1289
 9760W        W26607   5.045   1.037   1.631  0.0914 -0.1356  0.3613
 9761W        W26608  16.547  13.072   5.333  0.1245  0.0312  0.0106
 9762W        W26609   8.341   0.391  11.956 -0.4667  0.2697  0.4321
 9763W        W26610   1.537  19.835   9.790  0.0778  0.1464 -0.0442
 9764W        W26611  15.039   6.810  11.156 -0.0082 -0.2217 -0.1384
 9765W        W26612  12.598   6.806  10.619 -0.0253 -0.1136 -0.1426
 9766W        W26613  10.643  16.791  14.059  0.0464 -0.1355  0.1391
 9767W        W26614  19.773   2.106  11.475  0.1176  0.3820 -0.1652
 9768W        W26615   8.083   2.162  10.193  0.3122 -0.1798 -0.0686
 9769W        W26616  12.577   9.320  11.762 -0.0396 -0.1242  0.2109
 9770W        W26617   9.813  13.420  11.416 -0.2178  0.1596  0.2317
 9771W        W26618  19.900   1.914   2.937  0.1709 -0.3434 -0.0820
 9772W        W26619  13.055  12.872   0.752 -0.3561 -0.1265 -0.0400
 9773W        W26620   0.442   8.488  11.076 -0.0315  0.0317 -0.0100
 9774W        W26621   9.817  13.952   0.036 -0.2111  0.1645 -0.1179
 9775W        W26622   9.947   9.389  14.049  0.0825 -0.1333 -0.1723
 9776W        W26623  11.451   1.901  10.146  0.1783 -0.0374  0.3137
 9777W        W26624  18.256  17.669   2.098 -0.0116 -0.2089 -0.1747
 9778W        W26625  14.227   3.605  12.909  0.0919  0.3424  0.0117
 9779W        W26626   3.621   9.968   0.652 -0.1736  0.1147 -0.3217
 9780W        W26627   5.665   9.423   2.679 -0.0776  0.3224 -0.3032
 9781W        W26628  14.324   8.144   4.022 -0.0056  0.4366 -0.2198
 9782W        W26629   2.688   5.507   3.353 -0.2085  0.1767 -0.0652
 9783W        W26630   8.267  19.545  11.579 -0.2703  0.0869 -0.2469
 9784W        W26631  13.560  13.585   0.392  0.0052  0.0103 -0.0855
 9785W        W26632  10.561  19.737   4.970  0.0495  0.0317  0.2251
 9786W        W26633  14.761   1.153   1.602 -0.0833  0.0082 -0.1138
 9787W        W26634  13.318  18.574   0.055 -0.2441  0.2560  0.1191
 9788W        W26635   2.159  18.020   2.354 -0.3112  0.0410 -0.1636
 9789W        W26636  17.368  10.152   0.457  0.2411 -0.1776 -0.2521
 9790W        W26637   6.656   1.802   4.007  0.1925  0.3999  0.1348
 9791W        W26638   4.757   1.679  12.282 -0.1548  0.1111 -0.3022
 9792W        W26639   9.638  12.746   3.479 -0.0792  0.1672  0.0475
 9793W        W26640  16.883  17.503   2.828  0.1467 -0.0786  0.1105
 9794W        W26641   2.663   2.730   0.687  0.1019 -0.1362  0.0900
 9795W        W26642   3.431  17.747   1.023 -0.1392  0.1112  0.1708
 9796W        W26643   2.701   6.011   3.633 -0.0289  0.0175  0.0420
 9797W        W26644  17.669  19.060   1.429 -0.0458  0.0188  0.2969
 9798W        W26645   8.930  17.679   4.168  0.1517  0.5179 -0.0489
 9799W        W26646   6.016   4.024   0.689 -0.1915 -0.0572 -0.3264
 9800W        W26647   5.892  18.360   1.851 -0.0322  0.2544  0.0144
 9801W        W26648  18.066   4.450  11.180 -0.1571 -0.0576  0.0228
 9802W        W26649   9.950  10.105   0.693  0.1230 -0.1891 -0.0252
 9803W        W26650  18.679   4.848   2.535 -0.0427  0.1114  0.1964
 9804W        W26651   9.647   6.817  12.448 -0.0361  0.2480 -0.0917
 9805W        W26652  11.756  11.446   2.171  0.0594 -0.0613 -0.3064
 9806W        W26653  19.028   9.492   0.143 -0.3241 -0.4556  0.0722
 9807W        W26654   7.321  15.258   1.675  0.2172 -0.2438 -0.0100
 9808W        W26655   6.939   6.443   2.259 -0.1043  0.4147  0.2115
 9809W        W26656   8.685  11.116   2.094  0.1648  0.0609 -0.2417
 9810W        W26657   9.328  10.839  12.267  0.2022  0.0606  0.0673
 9811W        W26658   0.978  10.044  11.628  0.0270  0.1367  0.2220
 9812W        W26659  13.854   8.205  10.810  0.3026 -0.1758 -0.0756
 9813W        W26660  11.949   2.224   1.560 -0.0989  0.2428 -0.1878
 9814W        W26661  16.338   9.659  13.824  0.3694 -0.2129  0.0917
 9815W        W26662   2.137  14.359  12.535  0.0260  0.2772  0.0707
 9816W        W26663   3.878   3.590   4.048  0.2851  0.0760  0.1690
 9817W        W26664   1.631  17.036   2.154  0.4671  0.0895  0.4716
 9818W        W26665  16.377   1.268   2.316 -0.0946  0.3028  0.1398
 9819W        W26666   3.274   2.513  12.702  0.2540 -0.1636 -0.4645
 9820W        W26667   7.919   5.958  11.195  0.4107 -0.0010  0.4011
 9821W        W26668  12.639  10.244  12.890  0.2993  0.0576  0.2234
 9822W        W26669   5.326   9.618  13.444 -0.1178 -0.0185 -0.1212
 9823W        W26670   4.687  18.456   3.396  0.3601  0.1469 -0.4169
 9824W        W26671   1.017   8.121   9.488 -0.0286  0.1926 -0.0152
 9825W        W26672  18.093  16.158   0.918 -0.0331 -0.2857 -0.1982
 9826W        W26673  11.793   5.288   0.979 -0.2930  0.1306  0.0232
 9827W        W26674  17.136   4.067  11.803  0.0872 -0.0977 -0.0720
 9828W        W26675  10.403   3.366   0.548 -0.1749 -0.0161 -0.1745
 9829W        W26676   6.471  13.985  13.127 -0.0279 -0.0645  0.1891
 9830W        W26677  15.041  11.242  13.126 -0.0408  0.2119 -0.2707
 9831W        W26678  11.632  16.875   1.267 -0.0544  0.0166 -0.1803
 9832W        W26679   3.744  18.805  11.042  0.0543 -0.1356 -0.1338
 9833W        W26680  16.924  17.849  14.089 -0.1218  0.0995  0.1123
 9834W        W26681   8.238  19.836  10.606  0.2366 -0.1613 -0.2178
 9835W        W26682  15.196  15.119  11.371 -0.0439  0.1207  0.1925
 9836W        W26683   0.435  17.468   4.144 -0.0283  0.0385  0.0870
 9837W        W26684   5.187  16.073   9.549  0.0642 -0.2620 -0.2559
 9838W        W26685   6.964  15.895   2.911  0.0590  0.0289  0.2284
 9839W        W26686  13.460  18.261   9.000  0.1025  0.2293 -0.2956
 9840W        W26687   9.453   3.049   1.975 -0.0188 -0.3816 -0.1585
 9841W        W26688   3.904   9.076   2.137  0.2119  0.1821  0.0967
 9842W        W26689   7.100   9.818   3.106 -0.2584 -0.3072 -0.0021
 9843W        W26690  13.311   1.931   0.912 -0.0823  0.0175 -0.0397
 9844W        W26691   4.029  11.395  13.942  0.1520  0.4758  0.1394
 9845W        W26692   3.460  11.818  10.783  0.1904  0.1718 -0.0700
 9846W        W26693  10.493  12.185   0.066  0.0630  0.1147  0.1744
 9847W        W26694   6.169   9.009  11.512  0.0066 -0.2775 -0.2317
 9848W        W26695   7.364  19.431  10.337 -0.2303  0.0406 -0.2918
 9849W        W26696   1.886   2.132  11.290 -0.1595 -0.0443  0.1676
 9850W        W26697  15.751  10.556   2.482  0.2534  0.3366 -0.0289
 9851W        W26698   6.518   8.494   9.605 -0.1808 -0.0588 -0.1701
 9852W        W26699  12.299  13.135  10.209 -0.0397 -0.0048 -0.3198
 9853W        W26700  12.383   2.354  14.083 -0.4421  0.1718  0.3435
 9854W        W26701   6.265  11.296   1.912  0.1770 -0.0328 -0.0734
 9855W        W26702  14.484  11.064   2.657  0.1139  0.1389  0.2437
 9856W        W26703   3.291   3.089  13.075 -0.3094 -0.5057 -0.0350
 9857W        W26704  12.451   3.485   4.712  0.2672 -0.1598  0.0185
 9858W        W26705  15.303  17.327  12.775 -0.0537  0.0311 -0.1390
 9859W        W26706  10.325  19.644   9.917 -0.3930 -0.1060 -0.3512
 9860W        W26707   1.691   7.544   2.144  0.0086 -0.1842 -0.0663
 9861W        W26708   0.773   5.220  10.311 -0.2070 -0.1399 -0.0756
 9862W        W26709  11.496  18.189   4.121 -0.3331  0.1011 -0.1753
 9863W        W26710   5.524  13.319  10.200  0.0175 -0.0961  0.2269
 9864W        W26711   9.033  17.952  10.315  0.0842  0.2048 -0.5010
 9865W        W26712  15.163   7.200  12.535 -0.2041 -0.1196  0.0552
 9866W        W26713  13.118  14.736   1.254 -0.0655  0.0621 -0.0308
 9867W        W26714  16.134   8.920   3.578 -0.2556 -0.0241 -0.2687
 9868W        W26715  10.436  17.616  11.626  0.0205 -0.6382  0.0753
 9869W        W26716   9.463   9.295   8.985 -0.0071 -0.3049 -0.0909
 9870W        W26717  13.603  10.441   1.414 -0.2073 -0.1100  0.0710
 9871W        W26718   1.531  14.296   0.863 -0.0062 -0.2277  0.0720
 9872W        W26719   8.963   2.930  12.759 -0.2148  0.0181 -0.2600
 9873W        W26720  17.155   3.760   0.449 -0.1310  0.1648 -0.0950
 9874W        W26721   5.423  18.276  12.117  0.1416 -0.0193  0.0661
 9875W        W26722   4.629   2.859   2.153  0.0187  0.1385 -0.4261
 9876W        W26723  13.970   2.986   0.262  0.0841  0.4791 -0.1958
 9877W        W26724  11.128   9.369  12.595  0.0556  0.0107  0.0534
 9878W        W26725  16.007  16.560   0.011  0.0867  0.3327  0.1862
 9879W        W26726  11.032   5.488  11.745  0.1922  0.2772 -0.1835
 9880W        W26727   6.312   1.665   3.479 -0.3561 -0.0950 -0.2844
 9881W        W26728   9.823   4.878  10.910 -0.0724  0.2213 -0.2173
 9882W        W26729   1.000   6.143   0.083  0.0400 -0.2269 -0.0923
 9883W        W26730   3.962   5.561   2.345 -0.0983 -0.0952 -0.1031
 9884W        W26731   5.321   9.505   0.752  0.4037 -0.0030 -0.1716
 9885W        W26732  19.600  15.843   3.834  0.0689 -0.2457 -0.2179
 9886W        W26733  14.092   0.223   3.987 -0.2254  0.1143 -0.0979
 9887W        W26734  12.469  13.894   4.596 -0.2346 -0.3788  0.0300
 9888W        W26735  12.280  11.718   3.596 -0.0301  0.2378 -0.0525
 9889W        W26736  15.156  17.157  11.383  0.2410  0.0114 -0.1583
 9890W        W26737  13.450  12.191  12.948 -0.1193 -0.0486  0.0810
 9891W        W26738  12.503   8.167   3.944  0.0072  0.0959  0.1234
 9892W        W26739   8.028   9.205   0.052  0.1757  0.0108  0.6643
 9893W        W26740  17.956  12.006   4.009  0.1638 -0.0573  0.1222
 9894W        W26741   8.487   2.470  11.128  0.0112  0.3665 -0.0910
 9895W        W26742   7.905  12.560   1.074  0.1967 -0.1684 -0.0389
 9896W        W26743   8.908  19.037   0.301  0.0347  0.0800  0.0022
 9897W        W26744   3.633  15.068   1.841 -0.2351 -0.0307  0.0487
 9898W        W26745  11.969  15.146   3.251 -0.0825  0.2167  0.4156
 9899W        W26746  10.718   6.273  12.278 -0.1807 -0.2298  0.2292
 9900W        W26747   7.516   8.556  11.240 -0.1649  0.4171  0.4178
 9901W        W26748   1.136   0.028   1.272 -0.0225 -0.0702  0.1595
 9902W        W26749  15.159  10.272   1.343 -0.1303  0.0362 -0.1412
 9903W        W26750   1.977   3.418   4.144 -0.2272  0.3151  0.0197
 9904W        W26751  10.863  15.607  12.856  0.0146  0.4113  0.0148
 9905W        W26752  11.901  19.782   0.150  0.1164 -0.0042  0.1173
 9906W        W26753  12.695  10.256   2.900 -0.0601 -0.4777  0.0837
 9907W        W26754   8.113  15.108  11.031  0.0025 -0.0664 -0.1773
 9908W        W26755   7.068  10.881   3.999 -0.0545  0.0779 -0.2037
 9909W        W26756   2.686  10.327  10.251  0.4322 -0.0101  0.2885
 9910W        W26757  11.083  15.474   3.928  0.0066 -0.1106 -0.1031
 9911W        W26758  19.455  10.911  10.626 -0.3046 -0.0407  0.0619
 9912W        W26759  10.360  16.840   2.949  0.2023 -0.2376  0.2546
 9913W        W26760  19.745  15.640   4.932 -0.0954 -0.0229 -0.2181
 9914W        W26761  13.856   2.303  10.740  0.2352  0.2666  0.1769
 9915W        W26762  16.495   6.046   0.739  0.0830  0.2127 -0.0943
 9916W        W26763  11.056   3.250  12.620  0.0314 -0.1156 -0.0398
 9917W        W26764  11.564  13.181  11.778  0.0514  0.1934  0.2326
 9918W        W26765   0.820   9.452   1.056  0.2168 -0.2617  0.0314
 9919W        W26766  15.202   7.379   4.401  0.0355 -0.1986 -0.0779
 9920W        W26767  17.366  10.796   2.829 -0.0692 -0.3751  0.0356
 9921W        W26768  16.128   5.664   4.728  0.0068 -0.1433 -0.0728
 9922W        W26769  10.833   8.187   1.952  0.2043  0.3916  0.0138
 9923W        W26770  11.659   7.035   1.387  0.1629  0.2256 -0.0219
 9924W        W26771  10.678   6.446   4.035  0.0694  0.1872 -0.1681
 9925W        W26772   1.385   7.146  12.474  0.1081  0.2881 -0.2049
 9926W        W26773  16.822   6.966  10.686  0.2902  0.0112  0.0280
 9927W        W26774   7.388   7.147  13.677  0.0002  0.2017 -0.0345
 9928W        W26775   0.009  15.829  10.332 -0.0092 -0.1360  0.0070
 9929W        W26776  17.908  13.310   4.225  0.2330  0.2377  0.3003
 9930W        W26777   8.073  15.499   0.545  0.2195  0.1587 -0.1253
 9931W        W26778  13.427  18.957  10.089 -0.3106  0.2375 -0.1983
 9932W        W26779  12.079  17.700   4.929  0.3514 -0.0512 -0.1322
 9933W        W26780  17.436  10.912   4.806  0.0426  0.0239  0.1867
 9934W        W26781   4.169  18.199  13.060 -0.3820 -0.1633 -0.2281
 9935W        W26782   7.350   0.663   1.570 -0.0265 -0.0395 -0.0663
 9936W        W26783   4.818  16.275   0.299  0.0905  0.1105 -0.0156
 9937W        W26784   8.928   5.950  10.236  0.1712 -0.0271  0.1470
 9938W        W26785   2.427  14.513  12.110  0.0037  0.0645 -0.0686
 9939W        W26786  16.366   4.637  10.610  0.0825 -0.0468  0.2613
 9940W        W26787  11.646   3.044   4.465 -0.0069 -0.0706 -0.0645
 9941W        W26788  17.872  17.670   5.433  0.0728 -0.0710 -0.4184
 9942W        W26789  13.335  16.664   0.463  0.1505 -0.0910  0.2722
 9943W        W26790  11.401  19.915   3.593 -0.1702 -0.2004  0.1393
 9944W        W26791  12.295   3.450  11.990 -0.1695  0.2396  0.0085
 9945W        W26792   8.230  19.223  13.594  0.0918 -0.0585  0.1814
 9946W        W26793   0.809  10.097  10.221 -0.0921 -0.0144 -0.1725
 9947W        W26794  17.519  10.310   2.920  0.1030 -0.0028 -0.2655
 9948W        W26795  10.345  10.018  12.719 -0.0551 -0.1807  0.0546
 9949W        W26796  12.369   7.406   2.168 -0.2243  0.0841  0.2176
 9950W        W26797  14.415  16.622  10.632 -0.0489 -0.1477  0.0594
 9951W        W26798   1.685  15.843  12.093 -0.2295 -0.0034  0.3010
 9952W        W26799   8.743  19.193   1.107  0.0688 -0.1636 -0.0737
 9953W        W26800   7.894  13.119   2.711  0.1793 -0.3542 -0.1363
 9954W        W26801  15.621   1.151   3.863  0.1945 -0.1243  0.0714
 9955W        W26802   3.128   2.182   1.061 -0.2744 -0.0304 -0.1267
 9956W        W26803  11.810   8.287   0.261  0.0273  0.1485  0.1922
 9957W        W26804   6.195   7.942  10.968  0.0870  0.0769 -0.1925
 9958W        W26805  15.341  12.835   1.745 -0.0940  0.3632 -0.1828
 9959W        W26806  14.309  18.258   3.892 -0.1381 -0.1309 -0.1547
 9960W        W26807  15.938   7.983   3.286 -0.0386 -0.3053  0.0246
 9961W        W26808   3.262  11.790  13.536 -0.2744  0.1127 -0.0246
 9962W        W26809  13.259   1.822  11.349  0.0424 -0.2142  0.0327
 9963W        W26810  10.621  11.264   1.100  0.3470  0.0552  0.0286
 9964W        W26811   9.848   5.544   3.742  0.1984 -0.1136 -0.0076
 9965W        W26812   1.235  17.366  11.207 -0.3320 -0.2830 -0.3543
 9966W        W26813  17.570   5.829   4.477 -0.1245 -0.1152 -0.2990
 9967W        W26814   9.132  16.317  13.253 -0.0379  0.0293 -0.2175
 9968W        W26815   9.516   9.838  10.777 -0.1286  0.0262  0.0278
 9969W        W26816  10.424   3.109   1.621  0.2640  0.1669  0.0107
 9970W        W26817  18.313  17.997  12.145  0.1383  0.2202  0.0294
 9971W        W26818  15.592   7.032  12.906 -0.2028  0.4250 -0.0621
 9972W        W26819  13.762   7.867  13.656 -0.2247 -0.0161  0.1712
 9973W        W26820  18.136   7.098   3.372  0.3284 -0.1749  0.5237
 9974W        W26821  13.065   7.866  11.473  0.0666  0.1142  0.0683
 9975W        W26822  11.420  13.508  13.060  0.0822 -0.3152 -0.0330
 9976W        W26823  11.681   7.556  12.452 -0.2047  0.1248  0.2164
 9977W        W26824   8.090   6.438   2.199 -0.3185 -0.1311  0.0162
 9978W        W26825   5.853   0.863   4.602  0.2555 -0.0450  0.0708
 9979W        W26826   9.889   7.410   1.596  0.3318 -0.2636 -0.2235
 9980W        W26827  12.739  11.651   0.282  0.1184  0.1471  0.1281
 9981W        W26828  18.863   5.744   3.730 -0.5825  0.1042  0.4451
 9982W        W26829  12.608   2.517  10.844  0.1604  0.2113  0.1888
 9983W        W26830  16.843   3.873  12.540 -0.0948 -0.0878  0.0838
 9984W        W26831   8.059  15.322   3.777 -0.0967  0.0550  0.0035
 9985W        W26832  10.925  14.659  11.007 -0.0148  0.1048  0.0810
 9986W        W26833   0.764   0.772   4.663 -0.0368  0.2888  0.2639
 9987W        W26834  10.298   5.910   2.136 -0.0017 -0.1574 -0.2732
 9988W        W26835   6.960   5.934  14.187 -0.0555  0.0872 -0.1280
 9989W        W26836  18.130   0.899  11.525  0.6452  0.1740 -0.3307
 9990W        W26837   1.518  15.556  11.647 -0.2716 -0.2348  0.1611
 9991W        W26838   3.642   1.155   2.866  0.1402  0.0825  0.0304
 9992W        W26839   3.506  13.938   0.598  0.1621 -0.1487  0.0394
 9993W        W26840  16.713  10.206  13.674  0.0615 -0.3312  0.1088
 9994W        W26841   6.802  15.487  10.427  0.0352 -0.2369  0.4689
 9995W        W26842  11.701   3.040   0.706  0.2374 -0.3010  0.1481
 9996W        W26843   9.084  11.567  10.946 -0.0991  0.1216  0.6376
 9997W        W26844  16.538   9.344   1.295 -0.0708  0.0794  0.5130
 9998W        W26845   6.989   8.994   5.055  0.2283 -0.0771 -0.2284
 9999W        W26846   5.803   5.273   3.465 -0.1225  0.2961  0.0612
10000W        W26847  15.374  11.658  10.900 -0.0506 -0.2713  0.0996
10001W        W26848   9.698   1.211  11.614  0.2806  0.2160 -0.0684
10002W        W26849  17.982   3.860   3.723  0.3496 -0.0825 -0.1763
10003W        W26850   8.444   0.428  14.120 -0.1186 -0.5060 -0.1062
10004W        W26851   5.381  10.790   4.621  0.2299 -0.0814 -0.2718
10005W        W26852  15.139  18.498   1.266  0.0681 -0.3097 -0.2475
10006W        W26853   9.577   7.905  10.418 -0.0982  0.2134  0.2031
10007W        W26854   3.439   5.803  11.856 -0.1299 -0.1769 -0.0339
10008W        W26855  10.130  12.353   2.699  0.0760  0.4934 -0.0132
10009W        W26856  12.888  19.242   2.709  0.0516  0.3026  0.3218
10010W        W26857  10.050   8.391   3.501 -0.0024 -0.1629  0.1965
10011W        W26858  17.588  11.730   3.784  0.2403 -0.0451 -0.0338
10012W        W26859  16.728   3.375  10.198 -0.0143  0.0705  0.0781
10013W        W26860  14.929  19.882   4.425 -0.3492  0.2416  0.1033
10014W        W26861  14.192   5.159  10.119  0.0979  0.1724  0.1080
10015W        W26862   2.474  10.642  14.119 -0.1080  0.1159  0.1106
10016W        W26863   3.771  13.550  10.766  0.4034 -0.3605 -0.2119
10017W        W26864   3.604  16.649   3.122  0.2153 -0.0017  0.1534
10018W        W26865   8.150   7.503  13.093  0.0854 -0.2469 -0.3052
10019W        W26866   7.513  10.815  10.121  0.0916 -0.0383  0.0858
10020W        W26867  11.358  15.121   1.265  0.2274  0.1367  0.1126
10021W        W26868   9.128  10.268  10.376 -0.0633  0.2622  0.4865
10022W        W26869  19.818   4.832  11.244 -0.0277 -0.0652  0.3274
10023W        W26870  11.908  12.365  10.391 -0.2658  0.2482 -0.2024
10024W        W26871  16.870   2.859   2.441 -0.1741 -0.3183  0.1419
10025W        W26872  11.075  15.699   0.647  0.1656 -0.0690  0.0017
10026W        W26873  17.849   9.732  11.221 -0.0991 -0.3142  0.0523
10027W        W26874   0.632   4.811   3.771  0.0408 -0.0262 -0.2304
10028W        W26875  19.760   4.041   0.855  0.0201 -0.3601  0.0576
10029W        W26876  18.501  17.851  12.746 -0.1979 -0.0207 -0.0814
10030W        W26877  15.455   7.302  13.942  0.0770  0.2048 -0.1014
10031W        W26878   2.243  17.355  10.107 -0.1713 -0.0178 -0.3073
10032W        W26879  11.097   2.191   4.574  0.3064 -0.0960  0.0297
10033W        W26880  14.084  17.560  10.707  0.0287  0.3659  0.1018
10034W        W26881   7.120  13.325   4.514  0.1039  0.1683  0.3079
10035W        W26882   6.458  19.807  13.147 -0.0491  0.0003  0.3922
10036W        W26883   6.247   3.480   2.961  0.1352 -0.0038 -0.3207
10037W        W26884  16.725   1.274   4.954 -0.1868 -0.1459 -0.0852
10038W        W26885   2.665  11.420  12.841  0.1658 -0.0803  0.3176
10039W        W26886  12.314   5.550  10.082  0.1860  0.2565  0.4747
10040W        W26887   2.450  16.025   9.224 -0.3296  0.0072 -0.0361
10041W        W26888   9.913   3.317   1.887 -0.1194 -0.1273 -0.2979
10042W        W26889  16.840  11.499   0.262  0.2654 -0.1003 -0.1132
10043W        W26890   9.025  11.427  12.382  0.0490  0.0496  0.1593
10044W        W26891   9.950  17.757   3.457  0.1744 -0.3548 -0.2221
10045W        W26892  12.467   9.214  10.529  0.0824 -0.1797 -0.0253
10046W        W26893   3.977   7.979  12.795 -0.1819 -0.0682 -0.1303
10047W        W26894  11.509  12.326   0.239  0.0980  0.0732  0.0171
10048W        W26895  14.104  15.686   1.256  0.1853 -0.0569 -0.1884
10049W        W26896   1.217  10.202  10.534 -0.4061  0.2180  0.1176
10050W        W26897   7.361  10.512   2.135 -0.0406 -0.0473  0.1129
10051W        W26898  11.129   7.548  13.340 -0.2674 -0.1271  0.1006
10052W        W26899   8.851   9.562   1.993  0.0496  0.0294 -0.2352
10053W        W26900   7.532   1.636  11.587 -0.2643  0.1384 -0.1762
10054W        W26901  12.791   3.358  11.850 -0.0851 -0.1058 -0.0668
10055W        W26902   3.550   1.230  10.688 -0.0589 -0.1240  0.1694
10056W        W26903  17.898  10.499  14.027 -0.3295  0.0499 -0.1698
10057W        W26904  13.505   9.219  11.521 -0.3080  0.2558 -0.0299
10058W        W26905  10.283   9.053   4.696  0.2267 -0.1146  0.0637
10059W        W26906   2.121  12.798   9.819  0.0774  0.1925  0.0396
10060W        W26907   2.463  18.243  10.655 -0.1577 -0.4255  0.1547
10061W        W26908  17.698   2.496   2.762  0.0440 -0.0231 -0.2157
10062W        W26909  13.973  19.341  13.534  0.1448  0.1381  0.2068
10063W        W26910  15.215   9.798  12.904  0.2030 -0.0611 -0.2472
10064W        W26911  10.899  18.026   4.333 -0.2054  0.1656  0.0031
10065W        W26912  17.566   2.856  11.367  0.0815  0.0670 -0.0592
10066W        W26913  16.405   0.413   5.735  0.0207 -0.0123  0.2277
10067W        W26914  17.893  18.053   0.690 -0.0995  0.0603 -0.3235
10068W        W26915   2.467  13.767   1.279 -0.1090 -0.0043  0.2415
10069W        W26916   3.390   3.883  10.473 -0.1272 -0.1192  0.0692
10070W        W26917   9.483   5.360   4.027 -0.1800  0.0178  0.1930
10071W        W26918  11.000   3.834  11.889 -0.0116  0.0538  0.3102
10072W        W26919   3.941   9.172  10.264  0.4144  0.1336  0.4995
10073W        W26920  14.722   4.575   9.437 -0.0137  0.0323 -0.2249
10074W        W26921   1.750  12.405   3.176 -0.0465 -0.3967  0.0292
10075W        W26922   4.812   4.358   0.767 -0.1644  0.0129 -0.1017
10076W        W26923   9.336   5.208   9.456 -0.0095 -0.3851  0.2154
10077W        W26924   4.779   3.273   0.006  0.0634  0.1346  0.2472
10078W        W26925   3.840  18.744   0.108  0.2234  0.1009  0.4497
10079W        W26926   3.150  11.346  10.097 -0.0267 -0.0524  0.1545
10080W        W26927  18.147  19.119   3.441  0.0461  0.2411 -0.2430
10081W        W26928  12.108   3.322   4.365 -0.0198  0.4581 -0.0337
10082W        W26929   5.651  14.113   0.924  0.1108  0.1899 -0.1342
10083W        W26930  16.448  18.081   3.894  0.0655 -0.0764  0.0884
10084W        W26931  13.678   0.554   5.121  0.1561  0.1239  0.0784
10085W        W26932  12.354   8.693  12.233  0.0727  0.0893  0.0533
10086W        W26933   2.657  10.252  12.129 -0.0156  0.0272  0.0915
10087W        W26934   6.886  10.700   3.573  0.1984 -0.4398  0.0898
10088W        W26935   8.944  18.569  12.173 -0.1776  0.0617 -0.0932
10089W        W26936   5.635  17.544  11.975 -0.2447 -0.2469  0.2103
10090W        W26937   4.246   1.590  12.654  0.0739 -0.0958  0.2245
10091W        W26938  11.421  11.596   4.579  0.0108 -0.1304  0.0351
10092W        W26939   4.859   0.011   0.083  0.2941 -0.1802  0.0506
10093W        W26940   5.529   6.284  10.813  0.2965  0.0432 -0.0919
10094W        W26941   4.619   4.783   0.508 -0.1107  0.2562 -0.1726
10095W        W26942   6.147  12.234   2.743 -0.0532 -0.2390  0.0239
10096W        W26943  15.177  13.075  10.559 -0.1297  0.1829  0.1105
10097W        W26944  13.989  13.949  11.663  0.0490  0.0337 -0.3988
10098W        W26945  14.102  12.534  13.741 -0.1109 -0.0167  0.2365
10099W        W26946  14.294   3.599  12.010 -0.2932  0.0404 -0.0145
10100W        W26947   8.130  17.112  10.980 -0.2370  0.2794 -0.1689
10101W        W26948  15.511   0.439  13.533 -0.2457  0.4873 -0.2152
10102W        W26949  13.919   6.079   4.350  0.1858 -0.0646  0.2241
10103W        W26950   7.346   1.941   2.968  0.2156  0.1925  0.2169
10104W        W26951  13.555  18.383   5.370 -0.0544  0.1443 -0.0249
10105W        W26952  11.166  10.713   8.987  0.4825 -0.3345  0.0725
10106W        W26953   2.408   1.094   1.281 -0.0725 -0.0769 -0.1408
10107W        W26954  11.298  17.653  12.196 -0.5227  0.0648  0.0003
10108W        W26955  16.605   8.054  14.181  0.0376 -0.1521 -0.2069
10109W        W26956   1.745   7.123  12.990 -0.7111  0.0324 -0.1137
10110W        W26957  13.315  19.871  10.584 -0.2779 -0.0811 -0.0125
10111W        W26958  12.478  11.382  14.184 -0.1681  0.1636  0.3355
10112W        W26959   9.743  15.714  12.887  0.2725 -0.0308  0.1509
10113W        W26960  13.902  19.289   0.700 -0.0574  0.1236 -0.3847
10114W        W26961  17.344   2.443  10.966  0.2089  0.1280 -0.2668
10115W        W26962  19.287  14.360  12.921 -0.1367 -0.4678  0.1655
10116W        W26963  18.669  19.487   0.611 -0.1775  0.1594  0.1470
10117W        W26964   1.518  18.833   3.933 -0.1968  0.0275 -0.1339
10118W        W26965  13.353  16.434   4.802  0.2781 -0.0648  0.0080
10119W        W26966  13.160   1.882  12.733  0.1757 -0.0670 -0.2714
10120W        W26967  12.692  14.904   2.107 -0.0636  0.0041  0.2879
10121W        W26968   3.879  16.256  11.915  0.0179 -0.1650  0.0074
10122W        W26969  11.057  13.908   2.695 -0.2517 -0.1130 -0.2949
10123W        W26970  14.579   5.878  13.312 -0.2411  0.1645 -0.3208
10124W        W26971  17.406   7.538  13.824 -0.1944  0.3419  0.1932
10125W        W26972   5.217   9.227  13.743 -0.0603  0.0270  0.4949
10126W        W26973  10.264  15.525   0.377  0.1780  0.0805  0.1401
10127W        W26974  16.944   7.491   1.330 -0.1547 -0.2342 -0.0680
10128W        W26975  11.302   7.027  13.531 -0.0430  0.2764  0.0972
10129W        W26976   7.729   0.419  13.260 -0.0402 -0.0717  0.0872
10130W        W26977   9.213   9.377  10.968  0.5922 -0.2547  0.0046
10131W        W26978  14.303   0.213   0.492  0.1117 -0.2446 -0.5340
10132W        W26979  10.686  17.209  11.569  0.1372  0.2187  0.1317
10133W        W26980  16.148  11.808  13.415 -0.3917 -0.0998  0.0248
10134W        W26981  16.302   1.171   0.970 -0.0570 -0.3248  0.0436
10135W        W26982   6.831   6.443   2.995 -0.0763 -0.0619  0.2680
10136W        W26983   7.769  15.815   9.880 -0.1611  0.2658  0.0813
10137W        W26984  14.200  18.859  11.390  0.0786 -0.0505 -0.0945
10138W        W26985   6.349   3.324   2.431 -0.1083 -0.4665 -0.0254
10139W        W26986  13.595   3.685   0.051 -0.0042  0.5813 -0.1426
10140W        W26987   3.968   7.313   1.695 -0.2045 -0.1350 -0.0463
10141W        W26988   6.256  13.839  13.537  0.0513 -0.2070  0.2182
10142W        W26989  13.675  19.837  11.465 -0.1722  0.0447  0.2031
10143W        W26990   9.537   5.309  12.196  0.1778  0.4631 -0.0150
10144W        W26991  18.180   9.843  12.280  0.1872  0.0998 -0.0634
10145W        W26992   8.457   4.194   4.516 -0.0272 -0.1628  0.0014
10146W        W26993   3.612   8.381   1.402 -0.0066 -0.1208  0.1028
10147W        W26994   5.316   1.628   0.766  0.0584  0.1534  0.0532
10148W        W26995  14.436   0.468   0.065 -0.1876  0.0290 -0.1015
10149W        W26996   6.145   6.372  10.930 -0.0318  0.0657 -0.0081
10150W        W26997  17.004   5.591   3.441  0.0211 -0.0419  0.0252
10151W        W26998  16.799   8.872   2.506  0.3109 -0.3465  0.2634
10152W        W26999   9.083  10.826  11.425  0.2144  0.0000 -0.1484
10153W        W27000   9.815  18.773   1.696 -0.2502 -0.1403  0.0237
10154W        W27001  13.954  14.982  12.700 -0.5052  0.1514  0.0134
10155W        W27002   2.543   4.572  12.092  0.4142  0.0102  0.4525
10156W        W27003  18.910   5.968   9.193 -0.2194 -0.1070 -0.0218
10157W        W27004   3.439   8.217   4.493 -0.2971  0.3654  0.2793
10158W        W27005  17.604   3.218   1.891 -0.0025 -0.2757 -0.0795
10159W        W27006   7.408   0.276  13.843  0.0230  0.1349  0.3650
10160W        W27007  17.590  19.615   0.020 -0.3192 -0.1568 -0.3649
10161W        W27008  15.348   9.745  12.092  0.1530  0.1472  0.0657
10162W        W27009  18.202   4.557   1.842  0.2450  0.1421 -0.1856
10163W        W27010  17.136   0.327   3.585  0.4024 -0.0482 -0.0607
10164W        W27011   3.082   9.774  10.101  0.3292  0.1307  0.3017
10165W        W27012  15.120   3.429   1.491 -0.1408 -0.2605 -0.0714
10166W        W27013  17.757  14.667   5.070 -0.0046 -0.0232  0.1660
10167W        W27014  15.985  16.340   1.373 -0.2502 -0.0548 -0.1500
10168W        W27015  14.226   2.034  10.951  0.0581  0.4172  0.0442
10169W        W27016   0.973  16.840  14.073  0.1236  0.0267  0.0731
10170W        W27017  14.147  17.633  11.851  0.0965  0.4147 -0.0474
10171W        W27018   4.634  12.068   0.474  0.0391 -0.0654  0.1736
10172W        W27019  13.328   8.225  11.660 -0.1302 -0.1410  0.1130
10173W        W27020  15.039  16.959  12.507  0.2577 -0.3212  0.1475
10174W        W27021  17.958  12.070   2.789 -0.1510  0.3209 -0.1079
10175W        W27022   6.752   8.905   3.374 -0.1156  0.0833  0.2772
10176W        W27023  18.526  15.266   5.076  0.1097  0.1033  0.1292
10177W        W27024   7.766  15.317  13.743 -0.0806 -0.2491 -0.1596
10178W        W27025   2.450  14.588  12.991  0.3183 -0.0525 -0.2134
10179W        W27026   1.827  11.713  10.716  0.0456 -0.2776  0.0278
10180W        W27027   0.016  18.546   2.471  0.2797  0.2220 -0.3829
10181W        W27028   2.312  15.010  13.186  0.0607 -0.3215  0.0744
10182W        W27029   8.847   3.017  11.532 -0.0866  0.2488  0.0566
10183W        W27030  19.690   2.571  11.344  0.1191  0.0937  0.1295
10184W        W27031  13.269   9.807  11.399 -0.0030  0.0824  0.1784
10185W        W27032   9.692   4.830   2.608 -0.1408 -0.1121  0.0564
10186W        W27033  14.607  12.759  12.276 -0.3975  0.1611 -0.2416
10187W        W27034   2.901  12.305   9.906  0.3442  0.2750 -0.2697
10188W        W27035   0.951   7.359   9.665  0.0999 -0.2925 -0.3571
10189W        W27036   0.696   8.618   1.590  0.1008  0.3264  0.2654
10190W        W27037  16.224   0.059   3.506 -0.0822 -0.0545 -0.1259
10191W        W27038  15.343  16.070  11.747 -0.0756 -0.1969 -0.0527
10192W        W27039  12.833   6.264   9.817  0.0161  0.0764  0.1010
10193W        W27040   8.744  13.109  12.069  0.0201  0.0054  0.0324
10194W        W27041  13.219   2.236   4.962  0.3620 -0.0469  0.1179
10195W        W27042  14.833   5.131  12.016  0.0036 -0.1278 -0.1113
10196W        W27043  10.536   4.574   4.480 -0.0721  0.0781 -0.2484
10197W        W27044  18.388   4.152   3.863 -0.2198  0.2328  0.1693
10198W        W27045   7.085   7.033   0.937 -0.0255  0.0041  0.0240
10199W        W27046   0.760   2.753  12.173  0.1207  0.2371  0.1450
10200W        W27047   2.948  13.303  12.962  0.3890  0.1119 -0.0736
10201W        W27048  18.887   3.910  13.836  0.1376 -0.0808 -0.3354
10202W        W27049  19.220   8.337   4.195  0.0938  0.0721  0.0673
10203W        W27050   0.978  19.605  13.875  0.0023 -0.2815  0.1063
10204W        W27051   5.459   7.968  13.679  0.1154  0.0799 -0.2634
10205W        W27052   6.886  13.058  13.343 -0.0687  0.1148  0.1995
10206W        W27053   8.121   4.960   1.866  0.3568  0.1344 -0.0338
10207W        W27054  19.283   0.001   1.306  0.0018 -0.1008 -0.4553
10208W        W27055  13.895   1.546  13.383  0.1585  0.1276  0.2193
10209W        W27056  19.534   8.550   0.249 -0.3577 -0.0661  0.1127
10210W        W27057   9.870   5.621   2.381  0.3771 -0.0689 -0.1519
10211W        W27058  10.740   0.896   1.448 -0.0190  0.1993  0.0845
10212W        W27059  10.502   1.306   3.976  0.0287 -0.0875 -0.2238
10213W        W27060  18.802  16.944  13.887  0.1282 -0.1216  0.0339
10214W        W27061   8.786   1.816  10.640 -0.0877 -0.2053 -0.1213
10215W        W27062  12.807   3.937   1.017 -0.1616 -0.1597  0.1791
10216W        W27063  17.472  16.785   2.924 -0.0393  0.1679 -0.3405
10217W        W27064   6.928   0.323   9.901  0.0029  0.2333 -0.3625
10218W        W27065   6.082  19.175   4.234 -0.0959  0.0930 -0.1170
10219W        W27066  10.513  10.708  11.361  0.1039  0.1150 -0.5788
10220W        W27067  19.649   3.236   2.451  0.2199  0.2441 -0.1437
10221W        W27068   5.397   8.020   1.592  0.3034  0.1629 -0.3176
10222W        W27069   6.680  17.600   4.145 -0.1566  0.2308 -0.0166
10223W        W27070   0.837  11.164   0.287  0.1008  0.0026  0.1078
10224W        W27071   2.502   2.978   9.168 -0.1701  0.1263  0.0809
10225W        W27072   9.076   3.785  10.918  0.1764 -0.2205  0.0974
10226W        W27073  19.428   6.206   0.849 -0.0788  0.0056 -0.0550
10227W        W27074  18.198  16.369   3.643  0.4416  0.0380 -0.0558
10228W        W27075  17.097   4.438   4.598  0.1437  0.0381 -0.0747
10229W        W27076   2.713   0.740   2.784 -0.0161  0.1779  0.4748
10230W        W27077  10.169   8.080  13.431 -0.0690  0.1053 -0.0097
10231W        W27078   9.991   9.922   1.554  0.0921  0.2235  0.1912
10232W        W27079   5.856   6.690  14.137 -0.0235 -0.2833  0.0098
10233W        W27080  13.190  16.907   1.961  0.2092  0.0455  0.3279
10234W        W27081  18.787  12.044   2.593  0.0163 -0.0661  0.1082
10235W        W27082   5.871   7.006   0.275  0.0347  0.0563 -0.1440
10236W        W27083  15.797   1.006   1.369 -0.1247  0.0963 -0.2818
10237W        W27084  15.735  13.223  12.612 -0.2753  0.2674 -0.0006
10238W        W27085  19.396   7.892  12.825  0.2874  0.0430 -0.0432
10239W        W27086  14.337   1.716   1.464 -0.0367  0.4047  0.0183
10240W        W27087   1.253  18.324  13.409 -0.2254 -0.1982  0.0025
10241W        W27088   8.550  18.106   2.332 -0.0063  0.0612  0.0522
10242W        W27089  16.728  16.335   3.758 -0.0908  0.1463 -0.0855
10243W        W27090  11.024  10.198  10.944  0.1039 -0.0178  0.0597
10244W        W27091   0.509   7.401   1.492  0.2875  0.1106 -0.1737
10245W        W27092   6.754   0.720   9.607  0.2695  0.0066 -0.2936
10246W        W27093  10.196   6.350  13.631 -0.2957  0.3433  0.0027
10247W        W27094  12.606  19.815  12.031  0.1560 -0.0200 -0.0581
10248W        W27095   6.412  17.144   4.032  0.2916  0.1329  0.1255
10249W        W27096   6.086   0.307   4.372  0.0522  0.0111  0.1954
10250W        W27097  12.542   9.143   9.691 -0.2437 -0.5297 -0.0168
10251W        W27098  13.026   6.648   2.320  0.1263 -0.2432 -0.3686
10252W        W27099  19.870   8.338   2.728 -0.3550 -0.0361  0.2205
10253W        W27100   8.882  17.559   1.608  0.0055  0.1576  0.0845
10254W        W27101   4.026   4.944  10.132  0.0469 -0.2678  0.1153
10255W        W27102   2.952   4.467   2.704  0.1386 -0.1641  0.1147
10256W        W27103   8.882   6.527  11.426  0.0466  0.0827  0.0442
10257W        W27104  15.493   8.947  13.322 -0.0364  0.0960  0.0112
10258W        W27105  17.905  13.516   4.947  0.0162 -0.0655  0.2331
10259W        W27106   6.810   7.119   2.559  0.0137 -0.0642  0.2090
10260W        W27107   3.282   2.232   3.686 -0.1800 -0.0184 -0.0988
10261W        W27108  19.484  13.795   4.223  0.3497  0.2384  0.2729
10262W        W27109   9.702   9.157   3.537 -0.1653  0.5483  0.0789
10263W        W27110   9.885   6.346   2.055  0.0025  0.3472  0.2152
10264W        W27111  12.209   0.350  13.045  0.2407 -0.0544  0.0498
10265W        W27112   6.957   4.021   2.657 -0.0261 -0.2472 -0.0283
10266W        W27113   4.494   1.160  10.631 -0.2389 -0.2125  0.1429
10267W        W27114  18.470  13.196   3.594 -0.1011  0.0408  0.0959
10268W        W27115   1.983  15.943  13.705 -0.4154 -0.1883  0.0282
10269W        W27116   7.083  12.305   2.316  0.0777 -0.0323 -0.1082
10270W        W27117  18.371   8.706   3.802  0.0793  0.0138  0.2166
10271W        W27118   8.723   4.889  10.145 -0.1384  0.4397 -0.2282
10272W        W27119   6.319  17.532  10.612 -0.0449  0.0012 -0.1321
10273W        W27120  17.248   4.199  13.619 -0.3037  0.2083  0.0867
10274W        W27121   3.091  16.707  11.878  0.0510 -0.2617 -0.3128
10275W        W27122  15.226  18.410   4.800  0.3340  0.2261 -0.0108
10276W        W27123   4.115   0.752   1.955 -0.2281 -0.0019 -0.0589
10277W        W27124  18.559   4.476   4.241 -0.4885 -0.0205  0.0951
10278W        W27125   9.753  12.258  10.794 -0.0734 -0.1632 -0.1788
10279W        W27126   5.774  13.947  13.650  0.0982  0.0572 -0.0868
10280W        W27127  10.178  12.879   2.649 -0.2969  0.1241 -0.0040
10281W        W27128  15.878   9.366   0.173 -0.1262 -0.0394 -0.2113
10282W        W27129   8.329   3.773  11.442 -0.0407 -0.0398 -0.3877
10283W        W27130  13.025  19.277   1.320 -0.0612  0.0579 -0.3283
10284W        W27131  14.043  19.537   3.208  0.2289 -0.1321  0.1879
10285W        W27132   9.841   2.050  11.326 -0.2216  0.2863 -0.0502
10286W        W27133  18.364  13.686   4.924  0.0526  0.0280  0.0817
10287W        W27134   0.125  11.877   0.857 -0.1301  0.0824  0.0186
10288W        W27135   0.484   6.024  10.022  0.1243 -0.0496  0.0666
10289W        W27136   3.981  19.170   4.291 -0.2913  0.0686 -0.3382
10290W        W27137   8.655  14.634   4.815  0.1447 -0.0185  0.1591
10291W        W27138  14.044   9.750  10.591  0.0053 -0.0233  0.1123
10292W        W27139   6.462   9.638   1.029 -0.0078  0.2961 -0.1864
10293W        W27140  16.797  11.986   1.100  0.0426  0.0597  0.0818
10294W        W27141  13.873  15.033  13.660 -0.3356  0.0167 -0.0803
10295W        W27142   7.468  11.890  11.410 -0.0903  0.0901 -0.1513
10296W        W27143   8.906   5.275   4.455  0.1047  0.0427 -0.1137
10297W        W27144   9.798  12.831   1.834 -0.0658  0.1138  0.2272
10298W        W27145  18.154   8.922  11.463 -0.3192  0.3251 -0.1343
10299W        W27146   1.068   1.936  10.268  0.0186 -0.0173 -0.1958
10300W        W27147   3.010  18.088   0.297  0.0649  0.0722  0.0548
10301W        W27148   1.606   5.960   3.783  0.1762 -0.4533  0.0348
10302W        W27149   9.042   2.873   2.813 -0.0954 -0.1712 -0.1877
10303W        W27150   5.685  19.259   3.052  0.0579 -0.2339  0.1348
10304W        W27151  17.504  15.558  10.351 -0.2095 -0.0156 -0.0320
10305W        W27152  14.909  17.532  12.505  0.2086 -0.2561 -0.0260
10306W        W27153  14.538  17.953  13.102  0.0438 -0.1849  0.2444
10307W        W27154   8.407  11.908   1.034  0.0267 -0.3295 -0.1593
10308W        W27155  15.104  14.218   2.526 -0.0348  0.4813  0.1773
10309W        W27156   1.001   7.006   2.774 -0.0190  0.1534 -0.1200
10310W        W27157   8.900   3.658   2.135  0.1066  0.2047  0.0278
10311W        W27158  19.555  18.982   0.651 -0.4437 -0.1996  0.1576
10312W        W27159  17.553  12.507   3.546  0.2412  0.0699  0.0017
10313W        W27160  13.518  19.121  13.742 -0.1247  0.3995 -0.0842
10314W        W27161   3.098  18.543  12.164  0.3116  0.4122  0.0135
10315W        W27162   7.285  13.948  10.728 -0.2114 -0.0589  0.5009
10316W        W27163   5.212  14.026   2.422  0.0304  0.1622  0.1468
10317W        W27164  15.054   8.383   2.430  0.1331  0.0704  0.0730
10318W        W27165  14.189  16.781  12.339  0.0808  0.0463  0.1804
10319W        W27166  13.651   1.770   3.377 -0.1176 -0.0699 -0.0922
10320W        W27167   1.515  11.722  13.007  0.0121 -0.0922  0.2266
10321W        W27168  12.021   7.971   0.585 -0.0045 -0.2011 -0.0688
10322W        W27169   1.352  12.390   1.108  0.2903  0.1171  0.3933
10323W        W27170   3.210  17.704   3.731 -0.0752 -0.1288  0.2703
10324W        W27171  17.604  15.103  13.138  0.1377 -0.1909  0.1283
10325W        W27172   9.279  12.011   0.805  0.0606  0.0703 -0.3301
10326W        W27173  11.777   7.193   0.840  0.3320  0.0270  0.1089
10327W        W27174   8.836   0.649   2.167 -0.0060  0.3946 -0.3946
10328W        W27175  10.162  17.349   0.349 -0.3678 -0.1135 -0.0407
10329W        W27176   2.851  16.637   2.041  0.0740  0.2846 -0.1534
10330W        W27177  19.889   0.217  11.204 -0.0376 -0.1467 -0.2300
10331W        W27178  18.048  12.874  10.670  0.1200  0.1302  0.3758
10332W        W27179  16.572  13.617  12.134 -0.1102  0.3318 -0.2401
10333W        W27180  18.095  15.741  14.285  0.0806  0.0608 -0.0351
10334W        W27181   2.735   9.135  13.473  0.1200 -0.3335  0.0650
10335W        W27182   3.228   6.056   2.731 -0.0511  0.1571  0.1289
10336W        W27183  19.253   2.738  11.125  0.0219 -0.1009  0.2834
10337W        W27184   1.269  11.407  10.828  0.3229  0.0225  0.3061
10338W        W27185  10.139   6.939  11.466 -0.3142  0.0234 -0.0699
10339W        W27186  15.350  13.169  13.470 -0.2029 -0.0633 -0.3094
10340W        W27187  15.648  10.250   1.376  0.1294 -0.2790  0.1814
10341W        W27188   2.466   8.067   3.811 -0.1488 -0.2168 -0.0879
10342W        W27189   7.082   8.970   1.596 -0.0883  0.3603 -0.3952
10343W        W27190  13.072   3.880  13.189  0.1468  0.0314 -0.1736
10344W        W27191   3.462  10.510  13.827  0.1484  0.0477  0.0830
10345W        W27192   2.043   2.654   0.175 -0.1213  0.0937 -0.0594
10346W        W27193  16.577   1.603   4.619 -0.0375  0.1974  0.0973
10347W        W27194   3.679  14.969   5.183  0.1406 -0.3383 -0.1471
10348W        W27195  19.679   1.841  10.199 -0.0732 -0.1154  0.1093
10349W        W27196   2.387   5.137   3.520 -0.0004  0.1336  0.2234
10350W        W27197  10.133   9.022  11.027 -0.1200 -0.2320 -0.2094
10351W        W27198  10.239  13.992   0.556  0.0840 -0.0726  0.1357
10352W        W27199  12.488  14.213   0.168  0.4791 -0.1917 -0.0995
10353W        W27200   1.028   0.632  11.883  0.2957 -0.2601  0.0553
10354W        W27201   8.418  15.543   4.244 -0.1967  0.1171 -0.3204
10355W        W27202   9.488   3.445   3.983  0.0163 -0.0135  0.1230
10356W        W27203  12.478  16.684  10.416 -0.0053 -0.0400  0.1615
10357W        W27204  10.584   8.689   0.455 -0.1125  0.4424 -0.1341
10358W        W27205   6.687  15.308  11.818 -0.2171 -0.0473 -0.0828
10359W        W27206   4.626   0.505  11.793  0.1443 -0.0470  0.0957
10360W        W27207  11.342   2.643   4.607 -0.1435 -0.0659 -0.2484
10361W        W27208  13.027  10.296   4.163  0.1750 -0.2351  0.3074
10362W        W27209   2.859  17.478   5.288  0.1406  0.1393  0.0574
10363W        W27210   4.990   4.054  12.745 -0.1595 -0.0824 -0.0604
10364W        W27211  16.262   7.669   2.482  0.0481  0.0877  0.1952
10365W        W27212   2.644  10.259  13.715 -0.3032 -0.0949  0.0981
10366W        W27213   4.011   6.985   1.320 -0.0978 -0.0301  0.1132
10367W        W27214   4.971  17.730   3.964  0.1020 -0.3341 -0.1296
10368W        W27215  12.650  13.777   1.189  0.1551 -0.2133  0.1329
10369W        W27216   1.164  11.159   3.172 -0.1903  0.2404 -0.1724
10370W        W27217  14.960   9.822   4.676  0.1390  0.0732 -0.1755
10371W        W27218   2.839   5.224  10.030 -0.0296 -0.1095  0.0837
10372W        W27219   7.491   4.985  10.459 -0.2046 -0.2488  0.0998
10373W        W27220  11.318  12.810   0.033  0.2654  0.1234  0.1610
10374W        W27221  10.967   2.308   3.581  0.1052  0.2077 -0.1016
10375W        W27222   7.185  16.342   2.626  0.0967  0.1357 -0.2186
10376W        W27223  17.985  16.050   1.600 -0.1030  0.0017  0.4410
10377W        W27224  15.146   9.425  13.252  0.3974  0.1544 -0.1001
10378W        W27225  13.408   5.692   1.568 -0.2749  0.0235 -0.0836
10379W        W27226   9.784  10.496  13.376  0.1600 -0.1558 -0.1564
10380W        W27227   2.909  10.697   3.945 -0.0444  0.4288 -0.2506
10381W        W27228  18.605   2.457   0.321  0.0502  0.1008 -0.1203
10382W        W27229   7.708   2.908   1.424 -0.0487 -0.2492  0.2713
10383W        W27230   3.826  10.412   0.737 -0.1345 -0.0344  0.0162
10384W        W27231   4.753  11.427   4.734  0.0318 -0.0283  0.0476
10385W        W27232  16.867  11.067   2.630  0.1945 -0.2057  0.1961
10386W        W27233  17.000  17.011   3.077 -0.1904  0.0866  0.1498
10387W        W27234   8.354  14.065   4.364  0.5126  0.4528 -0.2098
10388W        W27235   5.578  17.998  10.502  0.2647 -0.1100 -0.4683
10389W        W27236   1.754  18.209   0.654 -0.2928  0.2226  0.2488
10390W        W27237   8.356   4.018   3.405 -0.0956  0.0096 -0.1055
10391W        W27238   6.920  10.289   1.862  0.2545 -0.0754 -0.0701
10392W        W27239  18.760   5.709   2.624  0.0122 -0.1020 -0.0505
10393W        W27240   0.947   2.397  13.135  0.1978  0.4799 -0.3016
10394W        W27241   4.651  13.271  12.209 -0.2793 -0.3967  0.0690
10395W        W27242   6.392  19.306  10.951  0.1835 -0.0527 -0.2434
10396W        W27243  10.677  18.813   3.938 -0.0353  0.1859 -0.2070
10397W        W27244  11.375   0.951   2.350 -0.3054 -0.1043 -0.3878
10398W        W27245   2.944  17.994  11.576  0.0017 -0.1199  0.1039
10399W        W27246  16.857   9.099  14.102 -0.5597  0.0241 -0.0163
10400W        W27247   8.687  13.535   0.631  0.2905 -0.1467  0.0584
10401W        W27248   9.480  18.601  10.036  0.0685 -0.0203 -0.1258
10402W        W27249   2.120  10.453   0.734  0.0165  0.0592 -0.0386
10403W        W27250  11.545   6.266   2.753 -0.1579  0.0050 -0.1837
10404W        W27251  10.782  11.174  12.310 -0.2004  0.2456  0.2058
10405W        W27252  18.988   4.489   2.789 -0.0926  0.2574  0.0355
10406W        W27253   7.966   0.190  13.827 -0.3031 -0.0751  0.2911
10407W        W27254   9.059   4.939  14.071  0.2608 -0.0476  0.1248
10408W        W27255   8.572   2.110  10.220  0.0931  0.1033  0.2882
10409W        W27256   5.697   7.082   9.165  0.3271  0.2106  0.0430
10410W        W27257   8.089  14.358   3.487  0.0647  0.0953  0.0238
10411W        W27258  15.031   8.731   0.578 -0.1089  0.3847 -0.3710
10412W        W27259  16.523   2.773  11.348  0.1585  0.1108 -0.2022
10413W        W27260   1.550   5.728  12.785  0.1527  0.1805 -0.1068
10414W        W27261  16.106   7.397   4.112 -0.3696  0.2047 -0.0566
10415W        W27262   6.020  14.858   3.991  0.5781 -0.1843 -0.4440
10416W        W27263  15.464   0.132   1.326 -0.2035  0.0267 -0.0408
10417W        W27264   3.513   0.441  12.687  0.0699  0.0974  0.1440
10418W        W27265  12.657  14.592   0.508  0.1816  0.3747  0.0918
10419W        W27266   8.260  15.047   4.224  0.5418  0.1134  0.3575
10420W        W27267  16.664  10.036   1.621 -0.0359 -0.0159 -0.2497
10421W        W27268   1.656   2.067  10.407  0.1016  0.0938 -0.5194
10422W        W27269  19.228   9.329  11.482 -0.5047 -0.0768 -0.2817
10423W        W27270  17.663  19.308   3.437  0.1699  0.3448 -0.3833
10424W        W27271  17.787   1.924   1.352 -0.1451 -0.2642  0.2254
10425W        W27272  16.100   7.264   1.266 -0.1066  0.1483 -0.2410
10426W        W27273   6.701  16.868   1.594  0.1900 -0.0421 -0.3808
10427W        W27274   8.998   2.495  11.358  0.1244 -0.1986  0.2415
10428W        W27275   6.394   7.254  12.677 -0.1335  0.0180 -0.2334
10429W        W27276   5.958   7.879   4.048 -0.0291  0.1656 -0.2568
10430W        W27277  19.294   4.054  13.082  0.1043 -0.1879  0.2038
10431W        W27278   7.612  11.410   4.266 -0.1895 -0.0556 -0.1253
10432W        W27279   2.496  10.407   3.736 -0.1318 -0.0858  0.2143
10433W        W27280   1.881   7.079  10.070 -0.0086  0.0642  0.0532
10434W        W27281   7.873   7.536   0.603 -0.2680 -0.3282  0.0975
10435W        W27282  17.466   1.953  11.754 -0.1020  0.4789 -0.2388
10436W        W27283   4.423   3.685   1.370 -0.3273  0.1073 -0.1400
10437W        W27284   9.236   5.572  12.476 -0.1145 -0.0301 -0.1120
10438W        W27285   2.721  16.415  12.944 -0.3417 -0.3952  0.0338
10439W        W27286   7.570  15.226   0.758  0.3489  0.4607  0.1100
10440W        W27287   7.326  10.470  12.999  0.0881  0.1193  0.0465
10441W        W27288  10.653   8.446   9.888  0.0284 -0.1335 -0.0201
10442W        W27289   8.984   5.262   3.940 -0.0458  0.1655 -0.3729
10443W        W27290  15.173   0.897  13.685  0.2291 -0.2573  0.3846
10444W        W27291   6.222  16.703   1.596  0.0377  0.1732  0.2801
10445W        W27292  10.700  18.445   2.390  0.4218  0.1060 -0.1673
10446W        W27293  10.033   5.949  10.259  0.0013  0.0672 -0.3421
10447W        W27294  19.230   7.328  14.005  0.0934  0.0936 -0.2012
10448W        W27295   2.324  10.262  11.617  0.1961  0.2793 -0.1868
10449W        W27296  17.084  13.535   4.139  0.3303 -0.0385  0.0237
10450W        W27297   8.313   7.186  14.182 -0.3075  0.2958  0.0168
10451W        W27298  12.107   0.167   9.834 -0.2197  0.0309  0.2483
10452W        W27299   8.448  19.370   9.719  0.5751  0.1508  0.4210
10453W        W27300  11.009  14.612   3.195 -0.1309  0.2134  0.2465
10454W        W27301  12.855  11.306   1.993  0.1045  0.1033 -0.2271
10455W        W27302  14.364  19.045   1.290  0.1096  0.0945 -0.3384
10456W        W27303  15.064  18.451  11.861 -0.2237  0.2241  0.0728
10457W        W27304  11.364  10.370   4.392 -0.0007 -0.3090  0.3202
10458W        W27305   4.927  17.007   2.067  0.0203  0.0037  0.1159
10459W        W27306   9.988  19.561   1.707 -0.0022  0.0082 -0.0030
10460W        W27307  12.894   3.612   5.222  0.0754  0.1549 -0.1391
10461W        W27308  15.524  15.339  13.601 -0.0800 -0.0147 -0.0232
10462W        W27309   5.790  17.150  13.795  0.2013 -0.0607  0.0983
10463W        W27310  17.146   2.673   1.599 -0.2457 -0.1497  0.1857
10464W        W27311  13.787  17.180  10.836  0.2365  0.2529  0.0312
10465W        W27312  14.652   9.140  13.320 -0.0707  0.2317  0.1208
10466W        W27313  18.462   6.089  13.156 -0.0561  0.1329  0.4197
10467W        W27314  18.983   8.734  10.744  0.0377 -0.2288  0.2044
10468W        W27315   3.402   8.220   2.279 -0.3098  0.0735  0.0657
10469W        W27316   9.859   1.087  13.058  0.0791  0.1372 -0.0416
10470W        W27317   5.603   4.107   1.806 -0.2326  0.0773 -0.0185
10471W        W27318   1.682  13.158   2.883 -0.0341  0.0054 -0.0511
10472W        W27319   2.885   0.362   1.060  0.2124  0.2375 -0.1039
10473W        W27320  17.543  17.107   3.918  0.0931 -0.0612 -0.0545
10474W        W27321  17.218  12.417   0.989  0.0046  0.2710  0.0361
10475W        W27322   1.059  11.559  12.147 -0.1103 -0.3613  0.0277
10476W        W27323  15.780   5.458   0.928  0.1640  0.2319  0.4032
10477W        W27324   1.051  15.130  12.723  0.2454 -0.3271  0.0121
10478W        W27325  15.578  13.789  12.229 -0.1304  0.0324  0.5173
10479W        W27326  19.454  18.372  12.703  0.1199  0.2931 -0.1808
10480W        W27327  15.195   7.672   1.302  0.0834  0.0163 -0.1943
10481W        W27328   6.139   6.403  13.194 -0.1374 -0.3246 -0.0095
10482W        W27329  11.255   1.759   1.411 -0.1946  0.0484  0.0163
10483W        W27330  14.087   9.346  14.274  0.0356 -0.0046 -0.0695
10484W        W27331   8.363  14.627   0.771 -0.1413  0.1580 -0.2051
10485W        W27332  10.626   0.333   5.129 -0.0700  0.0077  0.2241
10486W        W27333   4.633  16.182   0.782 -0.4048 -0.0098 -0.1413
10487W        W27334  13.467   7.367  10.301  0.4923 -0.0599  0.2039
10488W        W27335   5.326  10.578  13.894 -0.1023  0.2708 -0.1445
10489W        W27336  10.688   8.628   1.487 -0.0224 -0.0385 -0.2392
10490W        W27337   1.449  17.907   8.723  0.2123  0.1779  0.2453
10491W        W27338   5.713  10.969   4.144  0.0967 -0.1216  0.1684
10492W        W27339   1.014  15.005   0.127 -0.0801  0.0560 -0.1808
10493W        W27340   5.895  12.670   1.841 -0.2638  0.0785  0.2212
10494W        W27341  11.928   8.790   0.195  0.2340  0.3361  0.3481
10495W        W27342   9.718  15.711   2.539  0.1739 -0.0314 -0.1255
10496W        W27343  16.595   3.000   3.492  0.1904  0.0119 -0.1461
10497W        W27344   1.526  13.133   1.749  0.1687 -0.0353  0.1585
10498W        W27345  10.046   3.015  11.215  0.0090 -0.1309  0.0620
10499W        W27346  18.920  11.652   4.479 -0.0761 -0.3150  0.1993
10500W        W27347  19.145  17.625  13.232  0.0726 -0.0692  0.2110
10501W        W27348   2.879   0.765  11.930  0.1118 -0.3495 -0.0028
10502W        W27349  16.653  12.771   3.606  0.2290  0.0476  0.0494
10503W        W27350  18.833  10.336   1.712  0.2122  0.2969 -0.2307
10504W        W27351   1.872   8.766   0.781 -0.2052  0.0643 -0.0898
10505W        W27352  15.030  10.350  10.268 -0.3167 -0.1992 -0.0557
10506W        W27353  17.759   7.246   4.156  0.1083 -0.0144  0.2888
10507W        W27354   1.313   0.868   1.375  0.1881  0.0881 -0.0770
10508W        W27355   7.544  16.927   1.988 -0.1727  0.0607  0.3206
10509W        W27356   3.440   5.087  10.317  0.1853  0.0908  0.2335
10510W        W27357  17.940   2.464  14.218 -0.1456 -0.3856  0.2716
10511W        W27358   8.188   6.629  10.763 -0.3172  0.0961 -0.2426
10512W        W27359   8.822   8.258  10.761 -0.0262  0.2341 -0.1365
10513W        W27360  19.078   9.212  13.345  0.0478 -0.1285 -0.2203
10514W        W27361   4.236  13.199   0.928  0.2745  0.0944 -0.1457
10515W        W27362  12.548   8.507   4.346  0.0717  0.1718  0.0823
10516W        W27363   7.589   7.196   0.985 -0.2014 -0.1869 -0.3566
10517W        W27364   0.041   9.042   4.805 -0.1324 -0.0419 -0.2457
10518W        W27365   4.417   1.347  11.342  0.0473  0.0111 -0.1667
10519W        W27366  17.083   1.300  12.475 -0.0210  0.0431 -0.0512
10520W        W27367   5.810  11.370   4.897 -0.1617 -0.0128 -0.1105
10521W        W27368  17.323  17.019  12.094 -0.4229  0.0604 -0.0272
10522W        W27369   8.761   0.736  10.763 -0.5584  0.1541  0.0943
10523W        W27370   2.518   2.517  13.731  0.0882  0.0088 -0.2305
10524W        W27371  11.069   4.282   1.212  0.0662 -0.2355  0.1160
10525W        W27372  16.962  17.890   3.268  0.0877  0.0371 -0.1559
10526W        W27373   0.383  11.170  10.679  0.0757 -0.0315 -0.1502
10527W        W27374  14.762   1.629   1.725 -0.0403 -0.1445  0.1272
10528W        W27375  11.508   8.606   4.464 -0.1657 -0.0521 -0.0638
10529W        W27376   9.975  11.785  13.208  0.0784  0.1540 -0.1774
10530W        W27377   6.558  12.654   1.632 -0.0311  0.2325  0.1767
10531W        W27378   5.118  19.232  14.215 -0.1064 -0.3026 -0.2013
10532W        W27379  18.380  18.276   1.020  0.0186 -0.1772  0.1204
10533W        W27380  16.300  18.997  13.807 -0.0206 -0.2206  0.1226
10534W        W27381  15.033   5.624   4.120 -0.1241  0.0495 -0.0017
10535W        W27382  19.232   8.425  14.201  0.1674 -0.2924  0.0772
10536W        W27383  12.651  17.693  10.228 -0.3183  0.1628  0.0259
10537W        W27384   0.680   9.069  12.891 -0.3160  0.4745  0.0721
10538W        W27385   1.825  16.577   1.173  0.0496 -0.0955  0.3360
10539W        W27386  17.516   3.690   2.069 -0.1024 -0.2915 -0.0052
10540W        W27387  14.150   5.954   3.141  0.0066 -0.3988 -0.2974
10541W        W27388   6.349   0.060  12.288  0.1495 -0.0516  0.3199
10542W        W27389  14.326  16.577   0.853  0.2510  0.1424 -0.0700
10543W        W27390   8.129   6.081   4.129 -0.3394 -0.4856  0.1149
10544W        W27391  18.573  18.684  11.383  0.3734 -0.0705  0.0273
10545W        W27392  15.966   4.190   5.217  0.0755 -0.0828 -0.1066
10546W        W27393   4.837  18.931  12.749 -0.2209 -0.0137 -0.1009
10547W        W27394  11.183   4.644  12.384 -0.3504 -0.1571 -0.0495
10548W        W27395   3.241   1.864   4.885  0.0360  0.1837 -0.3967
10549W        W27396   0.693   4.376  13.201 -0.1219 -0.2864 -0.2301
10550W        W27397   1.628  14.684   1.775 -0.0066 -0.0088  0.0464
10551W        W27398  16.892   7.727   9.807 -0.1191 -0.1225 -0.1361
10552W        W27399  16.005  15.088   2.478 -0.1371  0.1613  0.1197
10553W        W27400   8.601  13.694   0.094 -0.1029  0.0134 -0.0908
10554W        W27401   8.197  12.912   0.629 -0.1159  0.1545 -0.1586
10555W        W27402  16.456  18.837   4.284 -0.3115  0.3562 -0.0033
10556W        W27403   6.813  15.377   2.917  0.2515 -0.0606 -0.2710
10557W        W27404  17.630   0.338   3.788  0.1261 -0.0296  0.0026
10558W        W27405  19.673   6.727   1.109 -0.0339  0.1094  0.2491
10559W        W27406   4.217  14.524   4.860  0.1442 -0.0620  0.1822
10560W        W27407   0.187   9.456  13.543  0.2943 -0.0989  0.0290
10561W        W27408   9.403  16.665   4.134 -0.0267 -0.3582  0.0715
10562W        W27409   4.349   6.298  11.231 -0.1179  0.1276 -0.0512
10563W        W27410  14.959  14.236  10.241  0.1920 -0.0990  0.0866
10564W        W27411   4.532  11.091  10.298 -0.0502  0.2593  0.0173
10565W        W27412   0.572   4.936   4.382 -0.2441 -0.1986  0.0468
10566W        W27413  16.301   8.638   1.016  0.0264 -0.2434  0.0896
10567W        W27414  11.749   1.196   4.297 -0.1670 -0.0384  0.0290
10568W        W27415  13.657   0.255  14.049  0.0319 -0.2374  0.0533
10569W        W27416  16.524   2.025   4.141 -0.2998 -0.0389 -0.1908
10570W        W27417   5.010   3.146  13.203 -0.0168 -0.3933  0.1006
10571W        W27418   1.809  16.556  10.143 -0.0798 -0.1143  0.1647
10572W        W27419   5.473  19.132   0.626  0.0005 -0.2248 -0.4457
10573W        W27420  13.522  13.131  12.663  0.2995 -0.0367 -0.0009
10574W        W27421   4.541   5.926  10.852  0.2275 -0.0528 -0.4325
10575W        W27422   2.892  11.026  11.387  0.0051 -0.2367 -0.0577
10576W        W27423   4.534   4.237  12.837  0.0391  0.0954  0.0636
10577W        W27424  10.160  11.213   0.898  0.0517  0.1804  0.1472
10578W        W27425   3.578   7.814   4.668  0.0120 -0.1469  0.1578
10579W        W27426  17.079   3.058   5.632 -0.1138 -0.1010  0.0381
10580W        W27427   5.860  14.835   1.503 -0.1689 -0.0992 -0.0316
10581W        W27428  16.533  15.633   0.741  0.2427 -0.1191 -0.1636
10582W        W27429  19.240   2.272  12.971  0.5361 -0.2832 -0.1801
10583W        W27430   6.831   2.618   3.689 -0.1692  0.0518 -0.0479
10584W        W27431  13.040  10.149  13.304  0.3038 -0.0829  0.2250
10585W        W27432  13.560  15.892  13.082 -0.0616  0.3250  0.3997
10586W        W27433  15.407  16.598   2.552  0.1880  0.1838 -0.1412
10587W        W27434  19.901  11.172  10.406 -0.0818  0.0504  0.1999
10588W        W27435   0.007  17.588  11.924  0.2760 -0.1337 -0.1209
10589W        W27436  13.135  17.210   2.783  0.0391  0.3517  0.0207
10590W        W27437  12.613   5.437  11.282  0.1927  0.1547 -0.1596
10591W        W27438  10.402   3.615   1.413  0.0665  0.0737  0.2508
10592W        W27439   4.819   6.922   3.402  0.2044  0.1170  0.0079
10593W        W27440  13.855  17.302   0.208  0.0993  0.1328 -0.0382
10594W        W27441  11.678  16.513   3.956  0.1226 -0.3039  0.0385
10595W        W27442   0.798   1.037   3.032 -0.4048  0.1291 -0.1054
10596W        W27443   7.078   8.819  11.944  0.1736  0.0545  0.1050
10597W        W27444   9.300  14.730   9.156 -0.0805 -0.0874  0.0907
10598W        W27445   3.855  15.856  12.211  0.2206  0.2820 -0.1149
10599W        W27446  12.182   6.598   1.297  0.0210 -0.2681  0.2277
10600W        W27447  13.458  10.286  13.056 -0.1678 -0.2275 -0.0207
10601W        W27448   6.270   3.459   0.108 -0.2247  0.3082 -0.0476
10602W        W27449   0.957   5.851  13.147  0.1087 -0.0157  0.3508
10603W        W27450  12.738  10.037   1.651 -0.1100 -0.0798  0.1678
10604W        W27451   1.867  11.361  13.921  0.0652  0.1620 -0.0547
10605W        W27452  14.143   8.679   9.402  0.1265  0.6289 -0.2057
10606W        W27453   3.067   6.657   3.325  0.0019 -0.0542  0.3566
10607W        W27454  15.234  14.378  11.745  0.1516 -0.0177 -0.0839
10608W        W27455   0.012  10.184  12.515 -0.0978 -0.1621  0.0862
10609W        W27456   0.638  16.770   2.100  0.0748 -0.2989  0.1729
10610W        W27457   6.069  18.557   1.034 -0.1700  0.1193 -0.1104
10611W        W27458   1.087   4.235  10.787  0.3052  0.0290 -0.0524
10612W        W27459  19.383   2.021   2.872 -0.1750  0.0273  0.1834
10613W        W27460  19.216  11.943   3.597  0.1082 -0.1487 -0.1329
10614W        W27461   9.184   6.836  13.306 -0.2896 -0.1128 -0.3543
10615W        W27462  18.921   0.642   9.992 -0.0341 -0.0649  0.1661
10616W        W27463   6.320  18.750  12.322 -0.1564  0.1025  0.2318
10617W        W27464  19.592  14.215  14.228 -0.0014 -0.0553 -0.2555
10618W        W27465  13.915  18.395   0.859 -0.1781  0.2633  0.1267
10619W        W27466  19.329  18.941  12.122 -0.2810  0.4706  0.0300
10620W        W27467   4.773  14.096  12.474  0.0665 -0.3544  0.0181
10621W        W27468  12.030   8.089  13.087  0.0229 -0.4327 -0.1938
10622W        W27469   2.765   6.140   0.885  0.0898  0.0457 -0.1058
10623W        W27470  13.380  16.790  13.839  0.3984 -0.0045  0.1165
10624W        W27471   0.585  16.763  11.912 -0.0481  0.0209  0.0334
10625W        W27472  15.989   0.917   4.235 -0.0021  0.0990 -0.0945
10626W        W27473  16.299  12.565  12.091  0.0768 -0.1306 -0.0495
10627W        W27474   9.916  15.026   9.687 -0.0020  0.0319  0.2148
10628W        W27475  12.423   2.873   2.746  0.2482 -0.0132 -0.2940
10629W        W27476   1.584  14.004   3.328 -0.0784 -0.3927  0.0538
10630W        W27477   7.694   3.187  11.027 -0.0915  0.0466 -0.0663
10631W        W27478   4.256   5.394   0.046  0.1036  0.1734  0.1089
10632W        W27479   4.499  12.663  11.260  0.0754 -0.2455  0.1096
10633W        W27480   2.722  15.198  11.061 -0.3161  0.3069  0.1625
10634W        W27481   1.724   9.370  11.626 -0.4923 -0.0243  0.1702
10635W        W27482   4.688  10.256   1.027 -0.2215 -0.1160  0.1013
10636W        W27483   2.506   6.161  10.738 -0.0262  0.3428 -0.3242
10637W        W27484  15.544   6.020  10.878 -0.0621  0.2229 -0.4109
10638W        W27485  10.697   1.237   3.524 -0.0926  0.2206 -0.1160
10639W        W27486   0.645  11.926   1.904  0.0732  0.0358 -0.2874
10640W        W27487  16.025  15.620  13.974  0.2185  0.0152 -0.0989
10641W        W27488  14.303  17.527   3.356  0.0217 -0.3144  0.3056
10642W        W27489   2.361  16.234  12.119  0.1484  0.0778 -0.0123
10643W        W27490   4.846   5.259   2.456 -0.2467 -0.0968  0.0396
10644W        W27491  10.683   2.058   1.872  0.0062 -0.1676 -0.1951
10645W        W27492  17.647   5.374   4.643  0.3213  0.1857 -0.1680
10646W        W27493  16.079  11.727  11.633 -0.1779 -0.4657 -0.0063
10647W        W27494   3.559   0.177  11.819 -0.0980 -0.1675 -0.1322
10648W        W27495   1.241   6.792  13.840  0.1252  0.0529  0.0095
10649W        W27496  12.397   6.517  10.075  0.2991  0.1705 -0.0502
10650W        W27497   7.271   9.327   4.530 -0.2025 -0.2037 -0.3066
10651W        W27498   2.733   8.358   9.743  0.2243 -0.2344 -0.0473
10652W        W27499  11.504   2.995   1.928  0.1486 -0.0504 -0.2124
10653W        W27500   5.084  12.513   3.414  0.0615  0.2696 -0.0439
10654W        W27501   3.666  15.562  10.324  0.0349 -0.0654 -0.0578
10655W        W27502  11.130   6.409   3.793  0.1323 -0.0785  0.2864
10656W        W27503  13.731   1.302   2.509 -0.0843 -0.3567  0.0197
10657W        W27504   5.643   3.113   9.033  0.0258  0.3291  0.0556
10658W        W27505   3.108   4.450   1.362  0.0201  0.0899 -0.1809
10659W        W27506  18.504   2.443   1.073  0.0370 -0.1597 -0.1822
10660W        W27507  13.707   6.625  12.857 -0.0104  0.3431  0.1651
10661W        W27508  15.397  19.699   4.657  0.0831 -0.1492 -0.2762
10662W        W27509  14.756   7.800   0.761  0.1494  0.1862 -0.0659
10663W        W27510  19.055   0.783  11.091  0.1588  0.1492 -0.2113
10664W        W27511   6.723  12.409   3.782  0.5459  0.3233  0.1967
10665W        W27512  18.828   8.943  11.728 -0.0535 -0.2150 -0.0285
10666W        W27513  19.573   7.005   0.116  0.1511  0.1037  0.0444
10667W        W27514  14.229  12.045   3.442  0.4328  0.0427 -0.2164
10668W        W27515   0.483  16.814  10.825  0.0920 -0.1124  0.0959
10669W        W27516  10.209   9.017  11.865 -0.0153 -0.0462  0.0279
10670W        W27517   2.736   6.256   3.229 -0.3239 -0.1298 -0.0860
10671W        W27518  11.417  11.974   3.135 -0.0279 -0.1159  0.2025
10672W        W27519   0.070   7.869   9.469  0.2346 -0.0547 -0.1486
10673W        W27520  17.484  15.890   1.697 -0.0923  0.0029 -0.1348
10674W        W27521   9.628   8.024   0.948 -0.2267 -0.1479  0.1570
10675W        W27522   2.111  16.010   5.069 -0.1257 -0.0940  0.3330
10676W        W27523   0.962  16.979  10.715 -0.2673  0.1445  0.1332
10677W        W27524   2.102  12.533   4.051  0.2237  0.2028 -0.0969
10678W        W27525  19.010   4.801   4.707  0.0692  0.0153 -0.3111
10679W        W27526   4.644  19.074   9.985  0.2867 -0.1355  0.0142
10680W        W27527  13.570   3.211   0.592 -0.0923 -0.0486  0.1543
10681W        W27528   5.309  16.724   1.029 -0.0028  0.0591 -0.1737
10682W        W27529  13.186  17.930  12.109 -0.1057 -0.1166 -0.2562
10683W        W27530   5.489  12.645  11.825  0.3519  0.1917 -0.3583
10684W        W27531   0.584   0.735   4.197  0.2225 -0.3233  0.0275
10685W        W27532  17.801  14.433  14.177 -0.0505  0.1119 -0.1943
10686W        W27533  10.594   1.639  12.631 -0.1819 -0.2466 -0.1164
10687W        W27534   9.903  17.140  13.740 -0.0794 -0.3088 -0.2248
10688W        W27535   8.422   2.847  10.603  0.4299  0.2062  0.3707
10689W        W27536   5.733  15.274  14.229 -0.1987  0.2184 -0.0096
10690W        W27537   8.997  15.528   2.182  0.4594  0.0009 -0.1113
10691W        W27538   8.386  12.194  10.518 -0.1207  0.0671 -0.5525
10692W        W27539  14.282  17.124  10.866  0.1080 -0.0014  0.2122
10693W        W27540  17.562   8.044   2.563  0.1904 -0.2538 -0.0217
10694W        W27541  19.490   8.009   0.842  0.0128  0.1561 -0.0434
10695W        W27542  14.597  15.539  12.308 -0.2258 -0.0346  0.1384
10696W        W27543   2.952   2.303   1.615 -0.0830  0.0594 -0.0436
10697W        W27544   9.550  17.692  11.973 -0.1200  0.1691 -0.2091
10698W        W27545   8.688   1.057   4.329  0.4120 -0.2438  0.2697
10699W        W27546  14.291   1.132  13.671  0.2893 -0.1929  0.1244
10700W        W27547   0.978  12.510  11.907  0.0672  0.0018 -0.0531
10701W        W27548   5.942  10.825  13.163 -0.0631  0.0877 -0.1569
10702W        W27549  10.817   2.853   0.294 -0.0555  0.3561  0.2185
10703W        W27550   5.690   5.246   4.670 -0.0458 -0.0548  0.3206
10704W        W27551  17.769   6.252  13.884 -0.1436  0.0083 -0.4115
10705W        W27552  14.122   9.092   0.367 -0.0850 -0.1893  0.1838
10706W        W27553  14.149  15.228   3.047  0.0525  0.1376  0.4184
10707W        W27554   9.773  11.838  12.725  0.3234  0.0936 -0.0140
10708W        W27555  18.681   5.068  14.103  0.0377  0.2151  0.1410
10709W        W27556   7.290  15.109  13.611 -0.0410  0.1892 -0.2726
10710W        W27557   3.341   9.770  10.813 -0.0492  0.0440  0.0878
10711W        W27558   0.759   9.627  11.454 -0.1003  0.3266  0.0521
10712W        W27559  11.076   0.951  12.974 -0.1792  0.0862 -0.0390
10713W        W27560   5.856   8.749  10.429 -0.1565 -0.0317  0.3108
10714W        W27561   9.184   2.972   3.870  0.1935  0.1376  0.0177
10715W        W27562   9.721   7.485  13.930  0.3333  0.1433 -0.3482
10716W        W27563   6.630  10.148  13.660  0.1785 -0.3043 -0.0432
10717W        W27564   8.201  16.886   0.838  0.1351  0.3511 -0.1380
10718W        W27565   7.735   3.254  13.452 -0.1038  0.2297  0.1406
10719W        W27566   4.000  12.941  12.204 -0.2586 -0.0267 -0.0988
10720W        W27567   9.151  18.408   0.807  0.1517 -0.1215 -0.1209
10721W        W27568   1.009   2.447   3.623 -0.1188  0.1051  0.1154
10722W        W27569  11.751  13.983   4.160  0.0181  0.1315  0.2681
10723W        W27570   8.328  10.390   0.598  0.0111 -0.1067  0.0934
10724W        W27571   7.379  15.364   9.655 -0.4260  0.2241 -0.0816
10725W        W27572  10.781  14.186   4.410 -0.0088 -0.2117  0.0975
10726W        W27573   2.489   0.992   1.838 -0.1288 -0.3292  0.0019
10727W        W27574  14.897   3.248   0.460 -0.0567  0.3427 -0.1104
10728W        W27575  19.685  18.348   0.949 -0.2724 -0.2544 -0.3115
10729W        W27576   5.678  16.207  11.462  0.0621 -0.1477  0.0603
10730W        W27577   4.240   6.918   4.883 -0.1600  0.5802  0.5386
10731W        W27578   9.206   4.816  13.593 -0.0196 -0.2104  0.3252
10732W        W27579   6.031   7.362  13.421 -0.0338  0.0726 -0.0225
10733W        W27580   1.239  13.368   1.235 -0.1249 -0.3560 -0.2203
10734W        W27581  19.692  19.091   4.248 -0.2039  0.5169 -0.1593
10735W        W27582  17.980   2.445   1.338  0.0429 -0.0609  0.2892
10736W        W27583  16.740  12.976   0.369 -0.1131  0.1378 -0.2890
10737W        W27584  15.407  10.681   1.565 -0.0536  0.1474  0.0566
10738W        W27585  10.460  12.769  11.240 -0.0575 -0.4089 -0.1080
10739W        W27586   1.862   7.023  11.491  0.2922 -0.1487  0.2472
10740W        W27587  10.921   8.449   4.134 -0.2187  0.0433 -0.0800
10741W        W27588   7.295   2.025   4.279 -0.1350  0.0966  0.2069
10742W        W27589  10.379   0.916  13.154  0.1350 -0.3759  0.0403
10743W        W27590  14.776   7.867   2.272  0.1180  0.0151 -0.0348
10744W        W27591  14.652   3.440  13.591  0.0403 -0.1327 -0.1374
10745W        W27592   7.847  10.511   4.740  0.0013  0.1117 -0.2576
10746W        W27593   8.795   0.592   1.454  0.1903 -0.3268  0.1676
10747W        W27594   7.163   2.371   4.643 -0.2169  0.0849 -0.0980
10748W        W27595  15.611   1.452   1.620 -0.0362  0.2209  0.1355
10749W        W27596  18.283  19.212   9.790  0.1075  0.3818 -0.2334
10750W        W27597  13.445   1.350   3.255  0.0995 -0.2796  0.0930
10751W        W27598  17.962   4.932  10.973 -0.4653 -0.3604 -0.2028
10752W        W27599  14.631  12.393   4.478  0.1545 -0.0703  0.1167
10753W        W27600   1.507   6.389  14.278 -0.1272 -0.0945  0.0216
10754W        W27601   6.239   5.112   2.138 -0.2164 -0.1724 -0.0762
10755W        W27602  13.850   5.408   1.767 -0.0796 -0.0495  0.2157
10756W        W27603  17.565  19.530  13.764 -0.0844  0.1820  0.4731
10757W        W27604  16.981  19.654   3.977  0.0876  0.0184  0.0285
10758W        W27605   4.227  14.757  12.283 -0.1792 -0.2454  0.0445
10759W        W27606   2.573  14.338  13.755  0.1883  0.2374  0.1256
10760W        W27607   7.849  10.103   0.710  0.0349  0.0958  0.2122
10761W        W27608  10.901  13.301  12.420  0.2001 -0.2568  0.0683
10762W        W27609   2.826   0.921  10.062  0.0352  0.2853  0.1840
10763W        W27610  14.124   1.643   3.756  0.0104  0.2430  0.1034
10764W        W27611   0.922   3.573  13.284 -0.0121  0.0419  0.1605
10765W        W27612   6.332  15.285   3.342 -0.1091 -0.2642  0.1226
10766W        W27613  13.758  15.649   1.992 -0.0682 -0.0907  0.1559
10767W        W27614  19.474  10.954   2.415  0.0734 -0.3843  0.2610
10768W        W27615  15.327   0.106   0.261  0.0729  0.0184 -0.0554
10769W        W27616   4.447   6.954   3.079  0.0640 -0.1201 -0.0789
10770W        W27617   7.440   6.763  12.738 -0.0353  0.0621 -0.2165
10771W        W27618   2.802  15.675   9.005 -0.0679 -0.2868 -0.2881
10772W        W27619  15.289   1.096   1.536  0.2089 -0.0050 -0.1616
10773W        W27620  10.884   5.460  14.125 -0.0788 -0.0751  0.0127
10774W        W27621   2.496   0.474  12.251 -0.0430 -0.2471  0.0750
10775W        W27622  13.797  12.326  14.136  0.1784  0.2684 -0.2376
10776W        W27623   1.186  18.396   0.758  0.1087  0.1048 -0.1211
10777W        W27624   6.258   9.640  13.569 -0.1864 -0.1116  0.1948
10778W        W27625  10.307   0.495  12.914  0.1949 -0.0755  0.0666
10779W        W27626   6.363   1.412   0.511  0.1723 -0.3166  0.1279
10780W        W27627   2.669   2.964  12.156  0.0602  0.1234  0.2666
10781W        W27628  12.626  14.492   3.246 -0.0554  0.1696 -0.2272
10782W        W27629  19.538  11.767  11.062 -0.0347 -0.2362  0.0207
10783W        W27630   4.777   0.170   2.765 -0.0822  0.0686 -0.0160
10784W        W27631   8.373   1.552   1.421  0.1076 -0.0905  0.0613
10785W        W27632   5.145  11.064  11.106  0.1067  0.1180 -0.1410
10786W        W27633  11.939   1.446   1.871 -0.2358 -0.0582  0.1326
10787W        W27634   4.547  17.561  11.894  0.1115  0.0124  0.0635
10788W        W27635  11.685   5.875   3.436  0.4745  0.2115 -0.0946
10789W        W27636  14.245   8.938   2.253  0.1082  0.0628 -0.0407
10790W        W27637  17.559   4.158   0.605  0.0080  0.0854 -0.1293
10791W        W27638   0.737   7.958  12.604 -0.0555 -0.0243 -0.2253
10792W        W27639  11.272  17.037  10.194 -0.0563  0.0293  0.0286
10793W        W27640   1.705   9.337  13.963 -0.1559 -0.1230  0.0985
10794W        W27641   9.215   4.066  13.276 -0.1404 -0.0647 -0.2265
10795W        W27642   7.499   3.538   2.392 -0.0249  0.3334  0.0458
10796W        W27643   1.369  13.100  12.573 -0.3154 -0.0314 -0.3569
10797W        W27644   6.114  11.795  12.669  0.1717  0.0758  0.1825
10798W        W27645  15.766  13.272   9.355 -0.0205  0.1254  0.3340
10799W        W27646   5.883   6.548   4.539 -0.0035 -0.3859 -0.0641
10800W        W27647  11.938   4.566   3.376  0.3235 -0.0467 -0.1314
10801W        W27648  14.025  16.332  11.277  0.0976 -0.0782  0.0545
10802W        W27649  13.796  17.286  12.043  0.3795  0.0844 -0.1224
10803W        W27650  16.314  10.723  14.159  0.1643  0.1307 -0.2443
10804W        W27651  17.766   4.719  14.211  0.1028  0.0044 -0.3618
10805W        W27652  10.346  11.839   0.361  0.0558  0.3760 -0.0370
10806W        W27653   0.301  17.570   1.078 -0.0954 -0.1421  0.2026
10807W        W27654  15.251  14.373  14.132 -0.0781 -0.5021 -0.0874
10808W        W27655   3.561   4.257  10.742  0.3879  0.3435 -0.3607
10809W        W27656  18.717  17.565   4.010  0.0421 -0.2023  0.0115
10810W        W27657   3.717  19.368   4.667 -0.0269 -0.0199  0.1012
10811W        W27658   7.179   6.063  11.627 -0.1271  0.0888 -0.0417
10812W        W27659  12.050  18.635  12.294  0.1919  0.2906  0.2022
10813W        W27660  11.814   9.007   3.788 -0.3786  0.0559 -0.0297
10814W        W27661  19.483   5.740   4.599 -0.0723 -0.1035  0.3095
10815W        W27662  12.278   0.699  11.922  0.3486  0.2558  0.1738
10816W        W27663  13.037   5.716  14.137 -0.1839  0.0556 -0.0367
10817W        W27664  12.712  16.165   2.031 -0.1137  0.0986  0.0108
10818W        W27665   2.164   4.349  11.703  0.1294  0.3409 -0.1209
10819W        W27666   3.288  12.366   4.356  0.1194 -0.2194 -0.0577
10820W        W27667   1.274  19.053   0.252  0.1322 -0.0250 -0.1947
10821W        W27668   5.071  12.931  10.573  0.0329 -0.0462  0.1097
10822W        W27669  19.623   7.626  11.459  0.3031  0.0073  0.1558
10823W        W27670   7.029   4.768  12.996 -0.0378 -0.2658 -0.0862
10824W        W27671  15.937   1.628   3.824  0.2584 -0.0381  0.1794
10825W        W27672  17.250  18.733  11.432 -0.0591 -0.0838  0.0853
10826W        W27673  17.697   4.905  13.775 -0.2103 -0.2746 -0.0433
10827W        W27674   8.655  15.769   0.942  0.1401 -0.0146  0.1282
10828W        W27675  13.245   1.451   2.178 -0.4969  0.0740  0.0264
10829W        W27676  11.820   3.578   1.099 -0.4102 -0.1259  0.0653
10830W        W27677  16.953   4.668   0.576  0.1013 -0.0902  0.1553
10831W        W27678   0.742   5.920  14.099  0.2872  0.0088  0.2569
10832W        W27679   4.341   0.570   9.751  0.0113 -0.3246 -0.2133
10833W        W27680   7.281  10.660  12.282  0.2427  0.1181 -0.1273
10834W        W27681  15.398  11.111  10.754  0.2890 -0.2638 -0.4277
10835W        W27682  13.876   7.529   0.497 -0.0994 -0.0808  0.0522
10836W        W27683  11.217   7.799   3.711  0.3828  0.1982  0.1101
10837W        W27684  17.615   2.253  12.111  0.0428 -0.3602  0.0435
10838W        W27685   0.978  10.871   2.833 -0.1575 -0.0352  0.0198
10839W        W27686   2.744   6.392   1.382  0.0103  0.0241  0.0913
10840W        W27687  13.777   9.959  12.341 -0.0517  0.1092 -0.4330
10841W        W27688   0.155  12.093  11.243  0.0299  0.3483  0.4619
10842W        W27689  10.113   8.311   0.889 -0.0170  0.0802 -0.0367
10843W        W27690   6.704  15.962  12.165 -0.1279 -0.0688  0.1140
10844W        W27691  14.714  19.696  12.495 -0.0095  0.1457 -0.3541
10845W        W27692   5.854  12.831  13.749  0.2507 -0.2468  0.1166
10846W        W27693  19.242   0.073  11.895  0.0906  0.2074  0.0365
10847W        W27694  13.437  19.877  13.656 -0.3180 -0.2179  0.4007
10848W        W27695  16.936  19.303   2.661 -0.2355  0.1737  0.2915
10849W        W27696  12.066  12.183   2.630 -0.1653 -0.3805  0.0846
10850W        W27697   3.023   4.565  12.252 -0.3973 -0.1711 -0.2227
10851W        W27698   0.472  18.073  11.269  0.1644  0.0281  0.3672
10852W        W27699  15.088  12.298  10.037  0.0232 -0.0660 -0.0841
10853W        W27700   0.272   4.123   4.470  0.0191 -0.1552  0.1498
10854W        W27701  10.865  13.079   1.642 -0.1580 -0.2978  0.0536
10855W        W27702  15.252   1.495   1.953  0.1829 -0.3030 -0.1261
10856W        W27703  10.573   6.676   5.520  0.0731  0.2023  0.0834
10857W        W27704  13.909   1.347  12.874  0.0192 -0.0501 -0.1101
10858W        W27705   1.242  15.873  13.008  0.2329 -0.1223 -0.0685
10859W        W27706  12.878   1.031  12.549 -0.1681 -0.3983  0.0012
10860W        W27707   0.479  19.099   0.484 -0.1091 -0.1136 -0.2937
10861W        W27708  16.139  11.001   0.943  0.2535  0.2516  0.1116
10862W        W27709   7.759   5.357   5.247  0.2941  0.0248 -0.0489
10863W        W27710  14.640  19.463   2.763 -0.1382  0.1756 -0.0886
10864W        W27711   5.705   1.951   1.031  0.3108  0.5004 -0.1062
10865W        W27712  10.798   0.624  13.894 -0.0834  0.3513  0.2627
10866W        W27713  10.565   5.192   3.428  0.2314 -0.2326 -0.0022
10867W        W27714  17.835   1.549   4.282  0.1079 -0.0534  0.2197
10868W        W27715  12.027   0.225  11.845  0.1585  0.3637  0.2609
10869W        W27716   0.938  17.416  12.105 -0.0267  0.1371  0.1550
10870W        W27717   5.265   1.108  12.993  0.0185 -0.2253  0.0417
10871W        W27718  15.052  19.288   2.587 -0.2461 -0.0307 -0.0446
10872W        W27719   5.640   5.415   1.109  0.2216  0.0534  0.2119
10873W        W27720  18.836  18.788  10.527 -0.2225  0.1005  0.0831
10874W        W27721   4.704  18.513   0.457 -0.0959 -0.1698 -0.0714
10875W        W27722   2.674  16.868  12.151  0.1087 -0.0231 -0.0640
10876W        W27723   9.881  12.510  11.309  0.1757  0.2769 -0.1369
10877W        W27724   4.488  10.809   0.122 -0.2762  0.2692  0.1167
10878W        W27725   4.756  11.146  10.750  0.0973 -0.2378  0.3608
10879W        W27726  16.078   7.617  12.528  0.2040  0.1069 -0.0719
10880W        W27727  12.926  10.892  12.197 -0.0948  0.1001  0.4673
10881W        W27728   7.378   5.489   2.074  0.1814  0.0220  0.4126
10882W        W27729   3.385  13.715  13.965  0.2111 -0.3288 -0.1919
10883W        W27730   1.483   4.634  13.878  0.5679 -0.0927 -0.1588
10884W        W27731  10.515   8.404  13.172  0.0848  0.0582  0.0533
10885W        W27732  13.903   0.509   0.260  0.0542  0.1578  0.0500
10886W        W27733  11.555   4.313  11.114 -0.1673  0.0607 -0.2925
10887W        W27734  12.263   8.761  13.511  0.0316 -0.1323 -0.0274
10888W        W27735   8.114   2.161  12.104  0.2423  0.3927  0.1030
10889W        W27736   5.067   1.741   2.439 -0.0325  0.0169  0.0371
10890W        W27737  14.470   9.138  13.767 -0.1402 -0.1139 -0.1920
10891W        W27738  16.795   8.406   0.312 -0.2631 -0.0510  0.0677
10892W        W27739   0.636  18.202  14.220 -0.0375  0.1612 -0.0352
10893W        W27740   4.437  15.012   0.675  0.2668  0.0984 -0.0338
10894W        W27741   9.667  13.519  13.603  0.0806  0.2904 -0.1100
10895W        W27742  13.811   1.017  12.090  0.1098 -0.3448 -0.1575
10896W        W27743  14.521  19.096   4.041  0.1424  0.1530 -0.0730
10897W        W27744   7.240  11.755   9.026  0.0904  0.2267  0.0884
10898W        W27745  15.491   6.046   1.134  0.1405  0.3121  0.0824
10899W        W27746  10.272   1.982  12.226  0.2787 -0.3176 -0.2694
10900W        W27747   5.838  14.219   0.236 -0.0494  0.0819  0.1237
10901W        W27748  16.962   9.966   0.768  0.2884  0.1803 -0.0063
10902W        W27749   6.414  19.243  11.501  0.0406  0.0341  0.2355
10903W        W27750  10.919   7.732  10.387  0.0064 -0.1577  0.0470
10904W        W27751   1.068  18.832   4.590 -0.2973  0.1581  0.3021
10905W        W27752  16.433  16.162   4.604  0.3062 -0.0301 -0.1294
10906W        W27753  13.220   8.344   1.522  0.1229  0.0394  0.0731
10907W        W27754  17.523   7.318   4.581 -0.1135 -0.0966  0.1676
10908W        W27755   3.542   7.941  13.805  0.2072 -0.5718 -0.1267
10909W        W27756  13.087  12.112   2.643  0.0685  0.1223  0.1466
10910W        W27757  18.818  12.208   1.706 -0.0030  0.3063 -0.1468
10911W        W27758   9.524   1.513   3.493  0.4451 -0.2542  0.0290
10912W        W27759   1.450  10.425  10.976 -0.0419 -0.0505  0.3602
10913W        W27760  16.659  15.117  12.996  0.0280  0.2109 -0.2030
10914W        W27761   7.955   8.418   3.960 -0.2617 -0.2810 -0.0506
10915W        W27762   7.568  18.672  11.611 -0.2065 -0.2224 -0.1171
10916W        W27763  14.646   8.048   2.716  0.3622  0.0835  0.0633
10917W        W27764   3.150  18.376   9.785  0.1878  0.0333 -0.1558
10918W        W27765  19.588  17.659   3.407  0.0378  0.1358  0.2232
10919W        W27766   1.489   2.293   2.607  0.0947  0.3030  0.0073
10920W        W27767   8.657  17.065   3.453  0.0256 -0.0115  0.0941
10921W        W27768   0.478  17.736  10.094 -0.3039 -0.0256  0.2154
10922W        W27769   0.369  13.086   9.783  0.1399  0.1892 -0.2375
10923W        W27770  10.617   0.624   9.526 -0.3773  0.1229  0.5599
10924W        W27771   5.007  19.437   0.709 -0.0291  0.2837 -0.0960
10925W        W27772  17.026  10.715  13.377 -0.2753 -0.2332 -0.0748
10926W        W27773  16.972  11.088  13.773  0.0985 -0.3206 -0.2038
10927W        W27774   9.751  17.646   2.991 -0.0023  0.2009  0.4188
10928W        W27775  11.964  19.298   4.791  0.0620  0.0869  0.0857
10929W        W27776   0.684  15.421  10.974  0.3977 -0.5679 -0.2180
10930W        W27777  12.016  17.481   0.522 -0.1729  0.0374 -0.2152
10931W        W27778  17.697   9.642  13.926 -0.2483 -0.0747 -0.1201
10932W        W27779  10.744  16.150   1.922  0.1770 -0.1572 -0.0530
10933W        W27780   2.944  17.710  13.260  0.1768 -0.2092 -0.1641
10934W        W27781   5.030   7.559  14.236  0.0210  0.2500  0.1225
10935W        W27782   9.630   3.230   2.424  0.0515 -0.0885 -0.0782
10936W        W27783  12.027  14.163  14.140 -0.1144  0.4253 -0.0431
10937W        W27784   0.200   1.080   9.506  0.0045 -0.0170  0.0340
10938W        W27785  18.078   4.495   4.418  0.3147  0.1694  0.0975
10939W        W27786  14.665   0.355  11.572  0.0978  0.2005 -0.0877
10940W        W27787  11.022  11.462  11.370  0.3294 -0.0672 -0.0829
10941W        W27788  10.051  15.199   1.609  0.1137  0.0029 -0.0343
10942W        W27789  18.696  16.313  14.127 -0.1662  0.1755 -0.0151
10943W        W27790  14.620  19.370   0.889  0.0465 -0.0395 -0.2180
10944W        W27791   9.298   7.598   3.213  0.2470 -0.0436  0.1282
10945W        W27792   0.966  17.675   9.548 -0.4289 -0.2123 -0.0096
10946W        W27793   8.439   5.195  11.879  0.1332  0.0101 -0.1196
10947W        W27794   5.794   3.436  12.998  0.0313  0.1361  0.2350
10948W        W27795  11.293   5.718  10.102  0.1874 -0.1717  0.4724
10949W        W27796  15.732   9.420   1.214  0.1476  0.2866  0.2624
10950W        W27797  12.357  12.177   9.805  0.0031  0.2674  0.1720
10951W        W27798  14.775   4.784  12.528  0.1682 -0.6598 -0.3469
10952W        W27799   9.640  16.992   4.572  0.1092  0.0985 -0.0143
10953W        W27800  13.055  18.634   9.985  0.1264 -0.3656  0.3439
10954W        W27801   5.058   2.056   4.159  0.2603  0.0206 -0.0505
10955W        W27802   1.737  17.464  11.660  0.0661 -0.0143  0.0185
10956W        W27803   4.060   4.586  11.362 -0.0241 -0.1362 -0.2736
10957W        W27804   2.009  17.378   4.189 -0.0082 -0.3331  0.0359
10958W        W27805  18.970  16.991   2.187  0.1945  0.0676 -0.0877
10959W        W27806   2.473  11.921  12.932  0.1331  0.2705 -0.1866
10960W        W27807  17.557   8.272  13.984 -0.3145 -0.0669 -0.2126
10961W        W27808  12.589  16.066   0.520 -0.3298 -0.1688  0.2145
10962W        W27809   3.974  11.495   2.796 -0.0953  0.1035  0.0734
10963W        W27810   1.374   2.368   3.958  0.1666  0.1797 -0.1024
10964W        W27811  19.700   1.942  12.071  0.1482  0.1090 -0.0683
10965W        W27812  15.181  13.273   1.950 -0.2474 -0.1412 -0.0876
10966W        W27813   1.167   5.556   1.113  0.0696  0.0857  0.0031
10967W        W27814   8.728   7.816  13.082 -0.1596  0.0859 -0.0100
10968W        W27815  13.455  15.889  14.258  0.1229  0.1219  0.1241
10969W        W27816   7.237  10.230  11.378 -0.0061  0.2509  0.0088
10970W        W27817  16.712  15.367   1.828  0.0692 -0.0082  0.0665
10971W        W27818  18.595  18.666   3.357  0.2123 -0.1387  0.0644
10972W        W27819  14.236   9.652   4.077  0.2195  0.0422  0.2603
10973W        W27820  11.896  12.001   0.348 -0.1435 -0.1103 -0.0130
10974W        W27821   1.788   4.437   9.985  0.0425  0.0307 -0.0830
10975W        W27822   1.164  14.238  12.225  0.1526 -0.0356 -0.0954
10976W        W27823   6.370   4.596   2.147  0.1653  0.1973 -0.2651
10977W        W27824   1.877  15.622   1.502 -0.0857 -0.0313  0.0721
10978W        W27825  19.424   9.501   2.711 -0.4078 -0.0679  0.0063
10979W        W27826  17.471   0.407   2.053  0.2950  0.0834 -0.2171
10980W        W27827   0.490  14.171  12.375  0.1265  0.0668  0.0971
10981W        W27828   0.661   9.798   0.729  0.0377  0.1608  0.0375
10982W        W27829   6.418  18.129   1.727  0.2079  0.1478 -0.1565
10983W        W27830  19.387  11.428   4.814 -0.1015 -0.2352  0.2149
10984W        W27831  17.911   4.395   3.856  0.0631 -0.2855 -0.0619
10985W        W27832  17.650  15.575  12.705  0.0068 -0.2275 -0.2145
10986W        W27833   5.136  18.202   0.338  0.2456  0.0711  0.3685
10987W        W27834   1.494   9.792  11.573 -0.0649 -0.3620 -0.0210
10988W        W27835  12.278   6.340  13.030  0.0131  0.1812 -0.1179
10989W        W27836   7.957  15.142  12.343  0.0441  0.0263 -0.0745
10990W        W27837   5.221  12.453  10.725 -0.1413  0.0288  0.0198
10991W        W27838   2.761   8.800  10.161 -0.2418  0.0330 -0.3703
10992W        W27839  14.574   8.690  13.617 -0.0111 -0.0997 -0.6135
10993W        W27840  13.323   3.416   3.147  0.2757 -0.0081  0.1454
10994W        W27841   1.101   2.779   8.809  0.3506 -0.0280  0.2547
10995W        W27842   0.085   2.584   3.736  0.0645  0.0490 -0.0530
10996W        W27843  15.600   5.201   1.702  0.1890  0.1068  0.3285
10997W        W27844   1.452  19.609  13.396  0.0670  0.0499 -0.4147
10998W        W27845  16.308   0.386   0.142 -0.0775  0.0780 -0.3549
10999W        W27846  19.026   5.726  12.114  0.4076 -0.1075  0.4671
11000W        W27847   2.022  17.916  10.545  0.0458  0.1154 -0.0509
11001W        W27848   3.155  11.936   4.119 -0.2000  0.0339 -0.1792
11002W        W27849   1.980  12.119   0.472  0.0707 -0.0473  0.0906
11003W        W27850   1.487  19.895  10.389 -0.0632 -0.2926  0.1592
11004W        W27851   4.643   7.536  10.744 -0.1407 -0.0321 -0.2282
11005W        W27852  16.871  16.906   3.564  0.0967  0.2764  0.0613
11006W        W27853   7.202   3.722   1.904 -0.0410  0.1164  0.4811
11007W        W27854  14.478  19.576  13.294  0.2416  0.2931 -0.1088
11008W        W27855   4.893  16.547  12.660  0.5733 -0.0867 -0.1149
11009W        W27856  12.467   5.076   5.040  0.3032 -0.0883 -0.2689
11010W        W27857   6.104   8.254   0.820  0.0329  0.1865 -0.1403
11011W        W27858  16.752  17.370   3.347 -0.1300 -0.1056  0.5392
11012W        W27859   1.073   6.369  11.136  0.2326 -0.4345  0.0380
11013W        W27860   1.924  10.337  11.279  0.1084 -0.2501 -0.0505
11014W        W27861   1.120  16.487  10.474  0.1966  0.1373  0.1668
11015W        W27862   1.275   7.763   4.809  0.2374 -0.4746 -0.1241
11016W        W27863  14.747  17.417   5.299  0.3073 -0.0020  0.0696
11017W        W27864   6.736  10.508   1.443  0.1096  0.0062  0.0505
11018W        W27865   1.415   2.450  12.811  0.0792 -0.3026  0.4454
11019W        W27866  17.876  10.138  11.595  0.0624 -0.2809  0.0787
11020W        W27867  16.973   5.485  13.851 -0.5223 -0.1478 -0.0909
11021W        W27868  17.728  14.498  12.059  0.0829  0.3319 -0.1135
11022W        W27869  13.394  11.385   1.351  0.0530 -0.2540 -0.1058
11023W        W27870   2.331   5.900   3.148  0.0312 -0.0122  0.2070
11024W        W27871   4.048   2.598   3.776  0.0497 -0.1092  0.0880
11025W        W27872  16.621   3.317  12.837  0.3056 -0.2230 -0.0449
11026W        W27873   1.395  18.703  10.235 -0.3066  0.2058  0.0926
11027W        W27874   8.508  19.503   2.682 -0.2628  0.1545  0.2432
11028W        W27875   9.767   6.198  12.110 -0.1000 -0.4224 -0.1886
11029W        W27876   6.303   8.484  11.498  0.1614  0.1490 -0.1067
11030W        W27877  18.019   8.305  13.467  0.2431  0.0933 -0.0653
11031W        W27878  19.767   4.359  12.906  0.0635  0.1650  0.1269
11032W        W27879   1.236  16.962   4.130  0.1132 -0.1442  0.0650
11033W        W27880  17.823  19.604   1.257  0.0326  0.0453  0.0421
11034W        W27881   7.672   9.426  13.524  0.2695  0.1062  0.2969
11035W        W27882   1.526  15.477   3.700 -0.0156 -0.0034 -0.1334
11036W        W27883  19.660  19.593   2.410 -0.1944 -0.2379 -0.0521
11037W        W27884   3.628   2.336   1.153 -0.1069 -0.2183  0.2984
11038W        W27885  16.265  15.907  10.808 -0.5481  0.1094 -0.1170
11039W        W27886  12.914   3.013   2.987  0.0548 -0.3682 -0.2644
11040W        W27887   5.174  12.978   1.735  0.0126 -0.1450 -0.2935
11041W        W27888  18.045   9.079   4.102 -0.3199 -0.0328 -0.0678
11042W        W27889   3.185  19.120   3.321  0.1931 -0.1616  0.5361
11043W        W27890   3.778   7.893  10.654  0.0100  0.2773  0.0837
11044W        W27891   5.403   4.607   3.797  0.0926 -0.0180 -0.0708
11045W        W27892  11.847   2.603   3.426 -0.0174  0.2619  0.1492
11046W        W27893   2.806   6.157   4.978  0.0210  0.1371 -0.4309
11047W        W27894  17.008   9.824   3.840  0.2848  0.1648 -0.4025
11048W        W27895   9.523  15.499  10.262  0.3212 -0.0829  0.3421
11049W        W27896   7.911   3.528   9.959 -0.1103 -0.0210  0.2442
11050W        W27897   0.384   7.329   1.978 -0.4469 -0.0952 -0.1139
11051W        W27898  12.821  16.387   4.776 -0.1896  0.3836 -0.1634
11052W        W27899   4.884  12.767  14.172  0.0452 -0.1158 -0.0194
11053W        W27900   5.751   0.673   0.282  0.1510 -0.1132 -0.0203
11054W        W27901   5.105   4.023  12.254 -0.0649  0.3036 -0.0645
11055W        W27902  15.823  12.518  13.820 -0.2002 -0.3328 -0.0067
11056W        W27903   5.384   6.572   4.904 -0.1323  0.0051  0.1760
11057W        W27904  14.154   2.252   1.091 -0.0485  0.0926 -0.0521
11058W        W27905   1.849  14.059  13.519  0.1464 -0.2575 -0.3367
11059W        W27906   8.856  13.847   4.312 -0.2070 -0.0719 -0.0513
11060W        W27907  18.453   4.432  11.825 -0.1959  0.0490 -0.2899
11061W        W27908  11.795   8.216  11.494 -0.1404  0.0216  0.2097
11062W        W27909   9.663   9.701   0.495 -0.0122 -0.1321 -0.1253
11063W        W27910   2.732  12.967   4.100  0.0493  0.0876 -0.1548
11064W        W27911   5.411   3.988  11.367 -0.1931 -0.1942  0.0221
11065W        W27912  10.468   4.633   4.000 -0.1088  0.2401 -0.0770
11066W        W27913  11.771   8.611   2.781  0.2972  0.0260 -0.1264
11067W        W27914   5.205   3.588  14.198 -0.1701  0.2101  0.0658
11068W        W27915  17.126   8.734  12.858  0.1153  0.0304 -0.2092
11069W        W27916   7.021   0.401   5.306  0.4346  0.0602 -0.0322
11070W        W27917   9.777   4.525   0.445  0.0019  0.2203  0.3167
11071W        W27918   8.481  14.052   9.810  0.0469 -0.1129  0.1359
11072W        W27919  11.970  18.262  11.466 -0.0386  0.0201 -0.0385
11073W        W27920   0.608   1.807   0.687  0.1110  0.0583 -0.0981
11074W        W27921  15.771   7.131   3.835  0.1322 -0.0979  0.1730
11075W        W27922  17.030  12.071  12.052  0.0798  0.1528 -0.4835
11076W        W27923   7.077  10.844  14.014 -0.2773 -0.0312 -0.3108
11077W        W27924  13.306   7.439   3.650 -0.0137 -0.0915 -0.3723
11078W        W27925   0.059  11.784  11.953  0.2858  0.1267 -0.0083
11079W        W27926  17.032  18.040   5.270 -0.0330  0.0131 -0.1377
11080W        W27927   7.612   5.364   3.455 -0.1640  0.1457  0.0331
11081W        W27928  19.179   6.607   0.047  0.0998 -0.3058 -0.0327
11082W        W27929  15.575  19.576  14.269  0.0335  0.2390 -0.1367
11083W        W27930  14.302  15.809   3.088  0.1648 -0.3102  0.0001
11084W        W27931  18.181   3.531  11.348 -0.1751 -0.0968  0.0662
11085W        W27932  16.177   2.090   2.151 -0.2698 -0.1053  0.1097
11086W        W27933  19.288  17.480   0.858 -0.2445  0.1060 -0.2549
11087W        W27934  12.073  12.559  12.272 -0.1076 -0.0328 -0.0982
11088W        W27935   1.319  19.871  14.070 -0.1671  0.0090  0.1331
11089W        W27936   5.046  12.925   3.096 -0.0424 -0.1587 -0.0316
11090W        W27937  17.440  17.722   1.380 -0.2219 -0.0930  0.1538
11091W        W27938   1.756  10.435   1.138  0.2494  0.0003 -0.3525
11092W        W27939  13.158  15.157   2.156  0.1477  0.0587 -0.1842
11093W        W27940   3.845   3.657  13.081  0.0532  0.1025  0.2236
11094W        W27941   0.920   0.432  12.745 -0.1590  0.0237 -0.0714
11095W        W27942   1.661   0.234   3.763  0.2180 -0.0542 -0.2489
11096W        W27943  15.213  14.505  13.443 -0.4229 -0.0932 -0.1455
11097W        W27944  15.380  17.433  12.325 -0.1871 -0.0194  0.3999
11098W        W27945   8.889  19.658   0.942  0.2564  0.1940  0.2605
11099W        W27946  11.728   9.081  11.560  0.1201  0.5314 -0.0025
11100W        W27947  18.106   0.251  10.860  0.0617  0.1093  0.5813
11101W        W27948   0.579   9.649   3.795  0.0767 -0.0076  0.2526
11102W        W27949   7.532  13.386  12.790  0.1537  0.0846  0.0524
11103W        W27950   1.293  19.227   1.539 -0.1024 -0.1878  0.1632
11104W        W27951   6.386  17.984   9.878 -0.2725  0.1775  0.0875
11105W        W27952   3.371   3.738   4.158 -0.5111  0.1602  0.1290
11106W        W27953  10.841   3.939   3.292 -0.0242 -0.1274 -0.1387
11107W        W27954   2.411   8.333   4.221 -0.0097 -0.2498 -0.3548
11108W        W27955  11.173  15.875  12.375  0.0608 -0.2073 -0.0821
11109W        W27956   9.379  19.440  12.395  0.0720 -0.3100  0.0681
11110W        W27957   6.758   0.297  12.164  0.0415  0.0967 -0.3373
11111W        W27958   5.190   0.624   2.295  0.2020 -0.1688 -0.2555
11112W        W27959  11.049  14.767   1.019 -0.1206  0.2591  0.3255
11113W        W27960  19.809   3.865  13.187  0.0461  0.0245  0.0378
11114W        W27961  12.637   2.674  12.130  0.0801  0.1581  0.1674
11115W        W27962  14.984   7.105   3.600  0.0480 -0.0514 -0.0023
11116W        W27963  16.070   7.147  13.883 -0.3186  0.2652  0.0248
11117W        W27964  12.007   5.974  11.658  0.0527 -0.0167 -0.1260
11118W        W27965   7.673   8.236   3.221  0.3486  0.1063 -0.0686
11119W        W27966   5.101  18.734   0.136 -0.1810 -0.1180 -0.1709
11120W        W27967   3.310  15.281  11.393  0.3418 -0.2760 -0.0832
11121W        W27968  19.146  11.686   1.593 -0.0243 -0.1118  0.1023
11122W        W27969  18.299   2.225  12.661 -0.1848 -0.1153 -0.2385
11123W        W27970  19.864   3.071  12.545  0.1534 -0.3823 -0.2192
11124W        W27971   7.729   4.669   1.862  0.0959  0.1279  0.1850
11125W        W27972  17.709   0.294  13.437 -0.0024  0.0165 -0.2593
11126W        W27973  11.121   9.439   2.074  0.1331  0.3199  0.2031
11127W        W27974  10.892  19.664  10.782 -0.2253  0.0027 -0.0432
11128W        W27975  18.374   8.068  11.739 -0.3922  0.0794  0.5403
11129W        W27976  18.340   8.187   2.857  0.3204 -0.2752 -0.2003
11130W        W27977   5.301   2.451   3.119 -0.2103  0.0516 -0.0521
11131W        W27978   2.550  14.696   4.009 -0.1683 -0.1758  0.0474
11132W        W27979   3.367  12.486  12.836  0.3083  0.0939  0.1399
11133W        W27980   2.429   5.527   4.460  0.0440  0.0966  0.1120
11134W        W27981  17.312   2.870  12.991  0.4192  0.0854  0.0270
11135W        W27982   2.234  16.593  12.407  0.3872  0.1112  0.2535
11136W        W27983   6.223   4.686  13.530  0.2636 -0.2561  0.0701
11137W        W27984  10.709  18.775   2.785  0.5324  0.3392  0.1336
11138W        W27985   2.568  12.906   0.065  0.0361 -0.3696  0.0400
11139W        W27986  18.605   5.264  13.304  0.0197 -0.1076 -0.1285
11140W        W27987   7.115  15.599   1.006  0.1525 -0.0059 -0.3070
11141W        W27988   9.843  19.692  13.898 -0.2235  0.0761  0.0007
11142W        W27989  17.256   1.702  10.695  0.0839  0.0443 -0.0591
11143W        W27990  17.442  18.210   4.022  0.0631 -0.3982 -0.0589
11144W        W27991  10.336   1.995   4.613  0.0462 -0.1090 -0.1756
11145W        W27992  10.109  15.760  13.264  0.1414  0.0115 -0.4240
11146W        W27993  12.457  16.993   4.708  0.0232 -0.1487  0.2586
11147W        W27994   3.003   8.769  11.968  0.1761 -0.0776  0.0968
11148W        W27995   6.160  12.798   0.859  0.0549 -0.2347  0.1385
11149W        W27996   2.733  16.626   9.909  0.3550  0.3098  0.1926
11150W        W27997   2.662   3.912   3.074 -0.2787 -0.2070  0.0410
11151W        W27998  16.168   2.805   0.170  0.1163 -0.2196  0.0672
11152W        W27999   3.558   0.230  11.107  0.0131 -0.4676  0.1243
11153W        W28000   5.822   5.161  10.463  0.0162 -0.3626 -0.1346
11154W        W28001  19.643   2.173   3.274 -0.0827 -0.0904 -0.2762
11155W        W28002  10.459  11.517   3.058 -0.0853  0.0978  0.0606
11156W        W28003   1.623  11.093   0.041 -0.2946 -0.2724  0.0756
11157W        W28004   4.627  13.600  13.754 -0.0777 -0.1240 -0.1753
11158W        W28005  15.851   1.283   2.093 -0.2628 -0.0116  0.0671
11159W        W28006  11.764   4.844   1.400 -0.0286 -0.0125 -0.0444
11160W        W28007   3.442   2.185  13.549 -0.0533 -0.0699  0.1032
11161W        W28008  17.633   4.150  13.969 -0.1222  0.2401  0.2515
11162W        W28009  10.959  17.771   9.772  0.0381 -0.1020  0.1836
11163W        W28010   2.229   0.742  11.458  0.0833 -0.1617  0.1389
11164W        W28011  12.690  15.313  14.200 -0.0419  0.0769  0.1067
11165W        W28012   6.651  16.232   2.489  0.1342 -0.1048  0.2184
11166W        W28013   2.546   1.277  12.142 -0.3872 -0.0169  0.0629
11167W        W28014  10.677   6.697   3.601 -0.0586  0.2937 -0.1733
11168W        W28015  12.222   5.929  12.122  0.2714  0.4654  0.1050
11169W        W28016   5.113  15.808   9.120 -0.0087 -0.0413  0.0193
11170W        W28017  17.349  14.349  11.649 -0.1291  0.0449  0.1099
11171W        W28018  19.359   2.680  11.732 -0.1302 -0.1479  0.1027
11172W        W28019  13.719   9.983   3.542  0.3561 -0.2241  0.0162
11173W        W28020   7.499   4.215   1.657  0.0637  0.1661 -0.1737
11174W        W28021  15.057   4.932   0.400  0.1220  0.1813  0.1750
11175W        W28022  19.057   1.763  10.856 -0.1420  0.1414 -0.0717
11176W        W28023   0.093   4.845   0.522 -0.0895  0.0338  0.4682
11177W        W28024  12.275   0.160   4.704  0.4985  0.1428 -0.0764
11178W        W28025   6.257  15.743  11.032 -0.1095 -0.0706  0.0680
11179W        W28026  18.461  11.073  13.679 -0.2232 -0.1455  0.2203
11180W        W28027   5.059   5.781   0.520  0.0228 -0.1825 -0.2232
11181W        W28028   4.362  16.418  14.300 -0.2312 -0.0802  0.0445
11182W        W28029   6.793   2.864  13.812  0.1326 -0.1556 -0.3322
11183W        W28030  14.058   2.677   4.683  0.1396  0.3059 -0.1188
11184W        W28031   3.094  17.750   1.338 -0.5531  0.0355  0.1516
11185W        W28032   7.664  17.839   2.058 -0.3935 -0.0897  0.0950
11186W        W28033  13.218   6.145   1.665  0.2959  0.1433 -0.1831
11187W        W28034  19.212  17.098   0.411  0.3626  0.0040  0.1685
11188W        W28035   9.403   0.743  12.783  0.2981  0.1067  0.1583
11189W        W28036  17.526  14.612   2.014  0.1544  0.3021  0.0447
11190W        W28037   1.885  16.238  11.942  0.0509 -0.0586 -0.0666
11191W        W28038   2.303  17.238  11.900 -0.3782 -0.1874  0.2240
11192W        W28039   8.984  15.900   4.700  0.0451  0.2025 -0.0464
11193W        W28040  13.317  18.516  12.884 -0.2142  0.3373  0.0590
11194W        W28041   6.504  16.388   1.263  0.3813  0.0970  0.1508
11195W        W28042   4.910   4.411  11.192 -0.0225  0.1245  0.2530
11196W        W28043   0.021  19.599   4.444  0.1384  0.1041 -0.1652
11197W        W28044  10.706   4.369   2.438 -0.0027  0.0866 -0.1776
11198W        W28045   8.527  19.262  11.256  0.5101  0.2021  0.0689
11199W        W28046  15.788   6.531   1.052 -0.1836  0.2319 -0.0214
11200W        W28047   2.145  14.967  12.167  0.3286 -0.2059 -0.2601
11201W        W28048   3.354   8.645  12.940  0.0399 -0.3256 -0.1561
11202W        W28049   0.838  10.461   4.256 -0.1357 -0.3088  0.2933
11203W        W28050  18.347   6.058  11.867 -0.2333  0.3262 -0.0679
11204W        W28051   5.989  17.211  10.279 -0.1455 -0.0684 -0.2002
11205W        W28052   7.822   8.925  11.227  0.1667 -0.0659  0.0013
11206W        W28053  12.556   7.959  14.083  0.2312 -0.0987  0.1284
11207W        W28054  16.265   3.052   3.119  0.1611  0.0918 -0.0030
11208W        W28055   4.466   0.768  13.170 -0.0064 -0.2336  0.0609
11209W        W28056   1.259   5.173  14.151 -0.0231  0.2326  0.0792
11210W        W28057   8.425  17.612   2.371  0.2037  0.1419 -0.0867
11211W        W28058  18.736  16.054  12.961 -0.0600  0.1661 -0.1880
11212W        W28059   9.979  11.430  12.439  0.3516 -0.0239  0.3071
11213W        W28060  18.652   3.698  14.283  0.1656  0.1465  0.0423
11214W        W28061   1.827  19.900  12.640  0.0069  0.0892 -0.2461
11215W        W28062   1.286  18.686   2.119  0.1176  0.0279  0.1827
11216W        W28063   8.900  11.180  11.885  0.3180  0.2893 -0.0736
11217W        W28064  13.993   5.077  13.058  0.1084  0.1847  0.1337
11218W        W28065   9.872  11.322  12.919  0.3698 -0.1374 -0.0679
11219W        W28066   2.978  11.098   1.215  0.1791  0.1877  0.2274
11220W        W28067  18.290   4.815   4.062 -0.2343  0.0547 -0.2912
11221W        W28068  12.964   5.221  10.812 -0.2249  0.1366 -0.0681
11222W        W28069   7.183   4.331  11.092 -0.2267  0.0118 -0.3062
11223W        W28070   6.211  10.510  13.949  0.2115  0.3978 -0.1696
11224W        W28071  12.847   2.993  13.328  0.0358  0.1898  0.1860
11225W        W28072  11.809  18.309   9.942  0.0879 -0.3931  0.3321
11226W        W28073  13.762  12.988  13.498 -0.0576  0.1476  0.3057
11227W        W28074   9.803  15.501  13.567 -0.1451  0.0824  0.0523
11228W        W28075  12.310   7.689  13.136 -0.1439 -0.1446 -0.0132
11229W        W28076  18.409   5.508   1.932  0.3284 -0.2935  0.3152
11230W        W28077   0.865   1.537   1.008 -0.0745 -0.0432 -0.2855
11231W        W28078  15.275  12.540   0.392 -0.1853  0.0693 -0.1162
11232W        W28079  11.650   8.150   4.554 -0.0194 -0.0756  0.2903
11233W        W28080  10.061   4.744  13.095 -0.0340 -0.2982 -0.0946
11234W        W28081   0.894  16.438   3.344  0.2111  0.2665 -0.0379
11235W        W28082  12.518  17.554   1.550  0.2183  0.2384  0.1701
11236W        W28083  12.413   8.488   5.104  0.1723  0.0598  0.2435
11237W        W28084   6.623   3.161  14.246  0.0004  0.0211  0.1412
11238W        W28085   5.164   6.413   2.926  0.4074 -0.0142  0.1384
11239W        W28086   5.709  19.547  10.646 -0.1364  0.2133 -0.4293
11240W        W28087  13.164   0.202  11.026 -0.4521  0.0918  0.1726
11241W        W28088  15.835  11.460  10.733  0.5948 -0.1927  0.0178
11242W        W28089  18.656   5.859  14.131  0.0984 -0.1128  0.1378
11243W        W28090  15.603  13.723   0.895  0.3263 -0.0153 -0.0811
11244W        W28091  12.532   5.348   0.295  0.1109  0.1082 -0.0785
11245W        W28092  13.433   7.663  13.224  0.2485 -0.0547 -0.0244
11246W        W28093  19.375  14.961  11.125 -0.1513 -0.1837 -0.0791
11247W        W28094   7.123   9.535  10.211  0.2542  0.2402 -0.1574
11248W        W28095   3.476   2.390   2.619  0.1850  0.2834 -0.1234
11249W        W28096   9.194   3.430  10.127 -0.1394  0.3382  0.1998
11250W        W28097  16.969  14.558  13.434 -0.2487  0.0233  0.0756
11251W        W28098  13.106   1.128  10.925  0.2186  0.3197 -0.0010
11252W        W28099  15.576   4.725   3.757 -0.1973 -0.0846 -0.0567
11253W        W28100   9.175   9.935  14.252  0.0053  0.0539 -0.2112
11254W        W28101  18.607   5.956  11.453 -0.0610 -0.4087 -0.1196
11255W        W28102   5.636  17.745  12.963  0.1032 -0.0724  0.1570
11256W        W28103   3.625  11.766  13.148  0.0485 -0.1885 -0.0966
11257W        W28104   6.374   0.206   0.693 -0.1579  0.0100  0.0346
11258W        W28105   7.382  11.891  12.236 -0.0940 -0.2695  0.2424
11259W        W28106   0.091  18.276   1.316 -0.0392 -0.3006  0.2085
11260W        W28107   4.620   2.835  11.959 -0.3558  0.0081  0.1879
11261W        W28108  17.501   2.613   3.599  0.4241 -0.2615 -0.2024
11262W        W28109  13.822   7.244  11.220 -0.0588  0.1163 -0.5024
11263W        W28110   6.677   9.492   1.477 -0.1671  0.0681 -0.0744
11264W        W28111  19.804  17.335  10.930  0.3876 -0.2255  0.1044
11265W        W28112  19.748  17.835   2.536  0.1864 -0.2153 -0.0535
11266W        W28113  17.891  19.596   2.478 -0.1265 -0.3843 -0.1697
11267W        W28114  16.932  18.701   2.395  0.1342  0.7289  0.0686
11268W        W28115   4.413  13.401  11.649  0.1295  0.2255  0.1202
11269W        W28116   4.180   7.416   0.405 -0.0276 -0.1242  0.3881
11270W        W28117   1.648   2.816   0.512  0.4101 -0.2394  0.0364
11271W        W28118  17.328  19.359   4.127 -0.3174 -0.1651  0.0055
11272W        W28119   8.565  16.253  12.243 -0.5019  0.1826  0.5002
11273W        W28120   8.407   6.787   2.668  0.1322  0.3674 -0.1654
11274W        W28121   2.314  17.801   4.150 -0.0318 -0.2601 -0.2667
11275W        W28122  10.850  18.862  12.178  0.2596 -0.2576 -0.2586
11276W        W28123  10.514   8.475   2.650  0.3208 -0.0081 -0.2068
11277W        W28124  13.354   7.330   4.645  0.1241 -0.0001 -0.3050
11278W        W28125  13.425   0.342   1.539 -0.0439  0.0945 -0.0790
11279W        W28126  18.591   8.969  13.138 -0.1488 -0.0135 -0.0841
11280W        W28127   4.738  17.193  12.178  0.0062 -0.2138 -0.0976
11281W        W28128  16.056  12.013  13.824 -0.0257 -0.0325 -0.2331
11282W        W28129  17.267  13.435  11.007 -0.5508  0.1180  0.0316
11283W        W28130   0.052   2.493   3.067 -0.2843 -0.1873 -0.0547
11284W        W28131   3.202   4.584   0.021 -0.0822  0.0620 -0.0418
11285W        W28132  11.045   0.763   2.768  0.1873 -0.1919  0.1010
11286W        W28133  14.358   9.074  10.578 -0.1681  0.1698 -0.2224
11287W        W28134  13.862   0.434   0.737  0.1625  0.0688 -0.2258
11288W        W28135  10.489  18.249  10.957  0.3052  0.2531 -0.4283
11289W        W28136  17.589   9.203  12.815 -0.0725  0.1863 -0.0648
11290W        W28137   5.350   8.897   2.983  0.1288 -0.0292 -0.0775
11291W        W28138  17.461  17.962  13.822 -0.1159 -0.2270 -0.2197
11292W        W28139  13.869  11.214  10.959  0.0171 -0.0096  0.0250
11293W        W28140  15.504  18.258   3.869  0.1937  0.0586  0.1135
11294W        W28141   6.033   2.916   1.682  0.2535 -0.2549 -0.1207
11295W        W28142  14.086  11.646   0.465 -0.3858  0.0822  0.0689
11296W        W28143   2.752  19.729   4.574 -0.2071 -0.3171  0.1902
11297W        W28144  14.571   0.056  10.404 -0.2734 -0.2808 -0.2357
11298W        W28145   9.533  10.152   1.492 -0.0363  0.0262 -0.0542
11299W        W28146  12.078   0.522   4.227  0.1348  0.3109 -0.1077
11300W        W28147   3.587   7.384   4.978  0.0053  0.1160 -0.1511
11301W        W28148  13.173  15.207   1.122 -0.0407  0.2524  0.1684
11302W        W28149  10.647   3.654   3.767  0.0225 -0.2244  0.0045
11303W        W28150   5.233  17.487   3.538  0.2172  0.0849 -0.0262
11304W        W28151  15.198   0.564  12.036  0.2094  0.0180 -0.0567
11305W        W28152  13.232  15.926  12.615 -0.2337 -0.0710 -0.0338
11306W        W28153  17.298   0.563  10.637  0.2504 -0.1586 -0.2527
11307W        W28154  16.298   7.823   0.338 -0.1212 -0.0507 -0.0798
11308W        W28155  11.407  12.833  11.062 -0.1758  0.3475 -0.2190
11309W        W28156  17.392  10.513   1.861 -0.2403  0.2428  0.2867
11310W        W28157   8.617  15.161   3.417 -0.0924 -0.0803 -0.1062
11311W        W28158  16.432   7.095   0.803  0.0819 -0.0206 -0.1572
11312W        W28159   7.583  15.600   0.296  0.1498 -0.2402 -0.2988
11313W        W28160  17.840   7.498   3.213 -0.1654 -0.4604  0.0287
11314W        W28161  18.543  14.450   4.232 -0.0183 -0.3593 -0.1021
11315W        W28162  15.589   8.996   0.285 -0.0368 -0.0643  0.0654
11316W        W28163  19.781  12.771  12.016  0.1522  0.1744  0.1910
11317W        W28164  12.514   7.711  12.350  0.1300  0.0127  0.3678
11318W        W28165  13.471  12.606  13.307  0.2844  0.0658  0.3538
11319W        W28166  19.762  15.924  12.090  0.0750  0.0042  0.1300
11320W        W28167  19.870  12.820   1.041 -0.1766 -0.0491  0.0324
11321W        W28168   3.206  17.050   9.796  0.2410  0.2998  0.1936
11322W        W28169   1.485   3.283  13.491  0.0751  0.2221 -0.2449
11323W        W28170   4.799   0.205  13.594  0.0825 -0.1404  0.0355
11324W        W28171  12.302   9.898  10.344  0.1757 -0.1234  0.1119
11325W        W28172   4.142  18.122   3.928 -0.3596  0.1334  0.2932
11326W        W28173   6.923  10.140   4.813 -0.2486 -0.2292 -0.0399
11327W        W28174  13.916   5.779  12.655 -0.1992 -0.3096 -0.1369
11328W        W28175  10.693   6.191  11.198  0.0347  0.0678 -0.1583
11329W        W28176  14.211  16.941   0.077 -0.4352  0.1741 -0.0055
11330W        W28177   3.138   8.662   9.886  0.0568  0.0770  0.2005
11331W        W28178  19.243   0.531   5.661 -0.1854  0.0418  0.2337
11332W        W28179   2.494   7.766  11.726  0.1137  0.2819  0.0007
11333W        W28180  10.074  19.369  13.152  0.0685 -0.4053 -0.2330
11334W        W28181  18.498  10.981   4.923  0.0960 -0.0163  0.5290
11335W        W28182  17.196  19.305   1.855  0.1979  0.1517  0.2709
11336W        W28183  13.371   4.247  12.967  0.6477  0.0266  0.0657
11337W        W28184  10.665   9.471  12.852 -0.1286 -0.2289  0.0171
11338W        W28185   2.128  12.283   5.211 -0.1491  0.1113  0.3668
11339W        W28186   3.780  18.267   3.173 -0.0894  0.2294 -0.0056
11340W        W28187  14.385   7.087   3.865  0.0093  0.0090  0.2099
11341W        W28188  16.197  10.446  11.982  0.1120 -0.3054  0.0016
11342W        W28189   5.534   5.831   1.363  0.2908  0.2475 -0.1341
11343W        W28190  16.259   3.206   1.341  0.4452  0.0881  0.2725
11344W        W28191   1.225   9.208   4.126 -0.1361 -0.2558 -0.0992
11345W        W28192   3.348  11.311  13.333  0.0743 -0.3016 -0.0655
11346W        W28193   1.287   4.600  11.379 -0.0078 -0.2087 -0.2465
11347W        W28194   8.329   6.867  10.425  0.1869 -0.3138  0.1412
11348W        W28195  13.943   3.001   3.500 -0.1138 -0.0520 -0.3292
11349W        W28196  17.784   1.381   3.818  0.0657  0.3042  0.1306
11350W        W28197   1.368   2.539   1.994 -0.0297  0.1297  0.1285
11351W        W28198   8.913   4.330   4.636 -0.0150  0.1295 -0.0699
11352W        W28199  13.250  12.734  12.872 -0.1227  0.0515 -0.0483
11353W        W28200   0.430  12.952  11.730 -0.0042 -0.3431  0.0851
11354W        W28201  14.432   2.794  12.561 -0.2582 -0.0293 -0.1194
11355W        W28202   8.965   7.717  12.077  0.0729  0.3531 -0.0117
11356W        W28203   7.907  10.488  11.888 -0.5278 -0.1943 -0.2901
11357W        W28204   7.816   9.787   3.829  0.2675 -0.4556  0.1356
11358W        W28205   5.580  14.263  14.053  0.0770 -0.0663 -0.0972
11359W        W28206   8.243  10.682   2.477 -0.2425 -0.2129 -0.0362
11360W        W28207  16.966   1.575   1.126  0.3055  0.1343 -0.0441
11361W        W28208   7.392   1.045  13.758 -0.0254 -0.0306  0.2029
11362W        W28209  15.203  10.666  13.152  0.1494 -0.5411 -0.0941
11363W        W28210   6.135   0.855  11.149 -0.3115  0.0853 -0.0626
11364W        W28211  14.027  14.351   3.005 -0.0113 -0.0303 -0.0456
11365W        W28212   7.244  16.037  11.522  0.4607 -0.3019 -0.1749
11366W        W28213  17.288  17.738   2.343 -0.1814  0.1033  0.0162
11367W        W28214  12.316  13.398  11.955 -0.1047 -0.1225  0.3233
11368W        W28215  15.773  10.283  12.932 -0.0332 -0.0838  0.0853
11369W        W28216  14.323   7.985   3.105 -0.0990  0.2065  0.1939
11370W        W28217  15.123   4.983   4.058  0.3308  0.0444 -0.0198
11371W        W28218   7.030   7.662   0.127 -0.3661 -0.2912  0.0494
11372W        W28219   0.144  17.134  13.228  0.3742  0.0253  0.1843
11373W        W28220   8.137   6.066   0.990  0.1590 -0.0132 -0.0151
11374W        W28221   6.912   5.779  13.604 -0.4323 -0.1290  0.1133
11375W        W28222   8.334   2.194  11.620  0.0920  0.2258  0.1500
11376W        W28223   7.031  18.141   0.826  0.1585  0.0479  0.0114
11377W        W28224  10.519   3.634   0.945 -0.1690 -0.3406  0.3428
11378W        W28225  18.088  11.336   2.227 -0.0722 -0.0851  0.2296
11379W        W28226   2.298  15.462   1.720  0.2322 -0.2235  0.0464
11380W        W28227  16.353   2.114  10.620  0.2803 -0.3307  0.0642
11381W        W28228  14.881  14.971   1.030  0.0322 -0.4528 -0.2577
11382W        W28229  14.471  13.741  11.445  0.0652  0.1730 -0.0534
11383W        W28230  17.793  18.546   4.466 -0.0996  0.3303  0.0321
11384W        W28231   1.229  16.878  11.463 -0.1209 -0.1662  0.0426
11385W        W28232   5.476  19.494  12.529  0.1903 -0.0466 -0.0619
11386W        W28233   3.384   8.575   0.202  0.0375  0.1204  0.0036
11387W        W28234  13.413  10.351  13.721  0.3494  0.3335  0.1806
11388W        W28235   5.906  13.849  10.590  0.0293  0.1162 -0.0894
11389W        W28236  18.362  15.934  11.155  0.0256  0.0619  0.1558
11390W        W28237  17.605   5.326   1.005 -0.0792  0.2136 -0.2435
11391W        W28238   4.205   8.825   0.567 -0.3368 -0.0274 -0.0599
11392W        W28239  10.071  10.429   2.828  0.0455 -0.4290 -0.1816
11393W        W28240   0.395  18.525  11.592 -0.3944  0.2302  0.1546
11394W        W28241  18.067  10.952   0.676 -0.0846 -0.2023 -0.0671
11395W        W28242   2.189  16.446  10.773 -0.0057 -0.1640 -0.0998
11396W        W28243   4.434  10.357  10.167  0.1763 -0.1165 -0.0520
11397W        W28244   5.177   5.847  12.323 -0.1579 -0.1397 -0.3092
11398W        W28245   0.254   9.565   2.911  0.1787 -0.1223  0.2334
11399W        W28246  14.830   2.092   1.931 -0.0793 -0.0345  0.0172
11400W        W28247   2.067  10.800   0.093  0.1288  0.1394  0.1864
11401W        W28248  10.254  13.395   1.892  0.0184  0.1650  0.3078
11402W        W28249  18.910  19.449  11.071 -0.1768 -0.1304  0.2968
11403W        W28250   5.892  18.708  12.070 -0.0777 -0.1948 -0.0819
11404W        W28251   9.209   6.891  11.642 -0.1769  0.3210  0.1557
11405W        W28252   3.481  16.162   2.312  0.1769 -0.0024  0.4411
11406W        W28253   2.606   2.878  12.697  0.0187 -0.0994  0.1524
11407W        W28254   5.149   2.164  13.742  0.0760  0.1979 -0.4225
11408W        W28255  11.690  12.590  14.122 -0.2254  0.0269  0.3604
11409W        W28256  19.528  10.984  12.149  0.2879 -0.1390 -0.2407
11410W        W28257  15.640  10.340  10.275 -0.1248  0.1868 -0.0410
11411W        W28258  10.245   2.418  11.823  0.1513 -0.0345 -0.0962
11412W        W28259  19.299   2.071  11.646  0.1993 -0.0903  0.1339
11413W        W28260   4.530  19.233   3.859  0.0804  0.2366 -0.0923
11414W        W28261   3.338   0.786   0.919  0.0781 -0.1274 -0.1906
11415W        W28262   1.183   6.679   1.715 -0.1231 -0.1125  0.1362
11416W        W28263  16.531  14.846  10.999  0.1014  0.1750  0.1678
11417W        W28264   8.497   6.988  12.489 -0.3449  0.0562 -0.3765
11418W        W28265   6.440   2.969  10.586  0.0090  0.3941  0.0442
11419W        W28266  16.349   5.555   2.099  0.2344 -0.1306  0.1564
11420W        W28267   1.349  10.479   9.538 -0.1451  0.1061  0.0799
11421W        W28268  10.821   5.810   1.439 -0.1015  0.3699  0.0433
11422W        W28269   6.648   0.907  11.096  0.3669  0.0986  0.0753
11423W        W28270  12.289  13.228   9.751 -0.4116 -0.0834 -0.0543
11424W        W28271   5.238   0.503  10.316 -0.2042 -0.2126 -0.2649
11425W        W28272   5.457  11.484   3.625 -0.3518  0.0135  0.1212
11426W        W28273  11.348   4.351  13.215  0.0130 -0.0978 -0.0204
11427W        W28274  13.369  16.614  10.813  0.0080 -0.1489 -0.1253
11428W        W28275  19.137   6.996   2.319  0.1148  0.0594 -0.0614
11429W        W28276  14.593   2.124   4.079 -0.0447 -0.1793 -0.2121
11430W        W28277  19.223  11.998   2.290  0.0512  0.2805  0.1553
11431W        W28278  11.643  10.393  13.093  0.1897  0.0131 -0.0636
11432W        W28279   2.489  16.846  13.796 -0.1538 -0.0172 -0.3141
11433W        W28280  14.835  11.564   4.072 -0.3144 -0.1064 -0.0241
11434W        W28281   9.856  15.079   3.343  0.1873  0.0767  0.1400
11435W        W28282   0.398   7.169  12.322  0.0727 -0.0258 -0.0370
11436W        W28283   1.260   3.137   3.430  0.0217 -0.0119  0.0936
11437W        W28284  16.394  18.277   3.114 -0.2287 -0.0723 -0.0722
11438W        W28285   1.946  12.987  14.255 -0.1517 -0.3253  0.2152
11439W        W28286  19.149  16.134   1.844  0.0869  0.0577 -0.2769
11440W        W28287   6.511   2.175   2.223  0.1246 -0.0588 -0.1791
11441W        W28288   7.908   5.837   5.117 -0.0908  0.1498  0.1101
11442W        W28289  11.788  15.834   0.910 -0.1687 -0.0624  0.1346
11443W        W28290  17.015  13.812   4.737 -0.0944 -0.2780  0.1425
11444W        W28291   2.620  10.059  14.234 -0.0034  0.0316  0.0633
11445W        W28292  18.850   7.077  11.709 -0.1074  0.2505  0.2181
11446W        W28293   7.415   0.310   9.417 -0.1486 -0.4315  0.0760
11447W        W28294   3.785   0.586  12.350 -0.0988 -0.1450 -0.0424
11448W        W28295   3.693   2.370  14.163 -0.2664  0.1144  0.1048
11449W        W28296  18.627  12.154   3.464  0.2112  0.0554 -0.0038
11450W        W28297  16.869   8.915   1.608 -0.2699  0.0079  0.2283
11451W        W28298  18.029  10.728   0.208 -0.0593 -0.3962  0.1132
11452W        W28299   9.335  11.989  10.903  0.1211  0.1384  0.0475
11453W        W28300   4.536   1.884   3.584  0.3781  0.2642 -0.0193
11454W        W28301  16.330   5.015   5.107  0.3210 -0.1181  0.0924
11455W        W28302   3.096   7.750  12.051  0.3252  0.2559  0.0843
11456W        W28303  16.112  19.408   5.502 -0.1126 -0.0451  0.2852
11457W        W28304   6.170   0.546  12.292  0.0146 -0.2491 -0.0241
11458W        W28305  11.979  15.937   9.949  0.1071  0.4004  0.2895
11459W        W28306  17.078   6.752  11.109  0.3137  0.0779  0.1466
11460W        W28307  14.141   7.183   2.839 -0.1404  0.0592  0.0567
11461W        W28308   1.259   5.181  12.306 -0.1056  0.1484 -0.0118
11462W        W28309   6.075  18.184   3.530  0.4197  0.1226  0.0411
11463W        W28310   3.099  15.490   4.394  0.2330  0.0244  0.4948
11464W        W28311   0.508   6.022  11.989 -0.1598 -0.3344  0.2470
11465W        W28312  18.922   2.975   3.655 -0.0414 -0.1240  0.0689
11466W        W28313   6.620   1.538   1.861  0.1860 -0.1373  0.0270
11467W        W28314  11.012   5.793  11.355  0.4536 -0.3872  0.1418
11468W        W28315  18.623   0.488   3.479 -0.5238  0.2371  0.1387
11469W        W28316  11.821  15.265   2.408 -0.2089  0.2783  0.1112
11470W        W28317   0.219   5.728  12.247 -0.1335 -0.2410 -0.2127
11471W        W28318   6.079   7.260   1.748  0.0212 -0.0879 -0.0782
11472W        W28319  14.914  13.412   3.569 -0.1416  0.0082  0.0994
11473W        W28320   4.584   8.119   3.045 -0.0179  0.1036  0.1950
11474W        W28321   6.966  16.386   1.482  0.0842  0.0335 -0.0152
11475W        W28322   5.098  14.085  11.464  0.1187 -0.1941  0.2551
11476W        W28323   8.662  18.778   9.888 -0.1029  0.3679 -0.1245
11477W        W28324  14.499  14.761   3.650 -0.2427  0.2900  0.2672
11478W        W28325  13.541   5.575   5.355 -0.0908 -0.1144  0.1045
11479W        W28326   0.823  10.710   3.387  0.1066  0.0340 -0.1509
11480W        W28327   8.109   9.607   4.665 -0.1151  0.4227  0.0795
11481W        W28328   0.764   3.979   3.230  0.1742  0.2032  0.1830
11482W        W28329   2.961  18.463  11.604  0.0059  0.0923 -0.0318
11483W        W28330   3.175  16.941   0.502  0.1849 -0.1868 -0.1069
11484W        W28331  10.967  14.188   3.492 -0.0398 -0.1577 -0.0063
11485W        W28332  19.852  14.408   1.747  0.0154 -0.0604  0.0944
11486W        W28333   8.160   3.201  10.228 -0.3079  0.1743  0.0723
11487W        W28334  11.765   8.479   3.819 -0.0716 -0.4756  0.0480
11488W        W28335  17.314   9.601  11.024  0.1213 -0.1809  0.1747
11489W        W28336  13.037  19.669  11.896 -0.1648  0.2011 -0.1171
11490W        W28337  11.698  18.418   0.469  0.1449 -0.1490 -0.0675
11491W        W28338   3.098  14.988  10.463  0.0309 -0.2728  0.0511
11492W        W28339  18.379   0.341   6.066 -0.0339  0.1847  0.0133
11493W        W28340   6.076  13.266  13.627 -0.1461 -0.3152 -0.0068
11494W        W28341  16.756   1.561   3.450  0.2092  0.0161 -0.1248
11495W        W28342  13.262  17.329   2.193 -0.1384  0.0361  0.0988
11496W        W28343   2.956  13.660   4.225  0.0710 -0.2434 -0.2823
11497W        W28344   5.535  17.235   1.139 -0.2203  0.1374 -0.1251
11498W        W28345   1.235  19.679   5.616 -0.2252 -0.0007 -0.1717
11499W        W28346   5.200   7.342   1.432  0.0471 -0.2681 -0.2300
11500W        W28347   8.575  18.301  12.469 -0.0537  0.1309 -0.2428
11501W        W28348  15.337   0.366   3.660 -0.2287  0.1610  0.2051
11502W        W28349   5.682  11.542  13.547  0.0543 -0.2749  0.1754
11503W        W28350  15.731   5.713   5.219 -0.0167  0.6327 -0.0148
11504W        W28351   1.642  15.780   0.167 -0.0208  0.3177  0.6408
11505W        W28352  16.172  19.368   4.474  0.1780  0.3197 -0.1398
11506W        W28353   5.795  17.669   9.211  0.0992  0.3379 -0.2048
11507W        W28354  16.399  10.485   1.914 -0.0062  0.1980 -0.3144
11508W        W28355  15.899   4.758   0.531 -0.3718  0.1460 -0.1012
11509W        W28356  10.510  10.024   1.541 -0.0548 -0.4016 -0.0764
11510W        W28357  18.698   8.484   1.305  0.0495 -0.3133 -0.1555
11511W        W28358   2.785   3.519   3.392 -0.1320 -0.5999 -0.4273
11512W        W28359  16.763  19.437   0.111  0.0113 -0.2675  0.0605
11513W        W28360   9.282   3.455  11.547 -0.0614  0.1997  0.2553
11514W        W28361  11.612  13.286  11.316  0.1589 -0.2413  0.1025
11515W        W28362  17.378  12.733   2.937 -0.0152  0.0415  0.0054
11516W        W28363   3.984  12.898   9.893 -0.2048 -0.0167 -0.1595
11517W        W28364   7.597  13.698  10.950 -0.0663 -0.2796 -0.0128
11518W        W28365  18.417  15.377  12.342 -0.1637 -0.0292  0.0296
11519W        W28366   6.726   3.773   0.674 -0.2489 -0.0655  0.2347
11520W        W28367   7.246   0.378   2.566  0.0620  0.0939  0.1565
11521W        W28368  12.945  17.048   3.541  0.0400 -0.2587  0.2529
11522W        W28369  16.860  15.358  10.814 -0.3552  0.0534  0.1204
11523W        W28370  10.845  17.811  11.837  0.2237 -0.1281  0.0320
11524W        W28371  15.310  19.317  10.403  0.0341 -0.1691  0.1721
11525W        W28372   6.142  11.661  10.787 -0.1212  0.0724  0.0214
11526W        W28373   7.319   3.012   0.571 -0.1695 -0.1340  0.1935
11527W        W28374   8.393   0.900  11.939  0.0902  0.2283 -0.1408
11528W        W28375   5.306   1.238  13.514 -0.1832  0.0421  0.3011
11529W        W28376  13.365   4.357   2.324  0.1262  0.0070 -0.1217
11530W        W28377  17.731  14.163  12.828 -0.3962 -0.1192 -0.0887
11531W        W28378   4.816  19.807   1.058 -0.2248  0.0205  0.0027
11532W        W28379   9.749  17.528   1.369 -0.3590  0.2999  0.0418
11533W        W28380  12.732  18.401  13.030  0.0681  0.2663 -0.1378
11534W        W28381   9.657   6.289   1.473 -0.0406 -0.3153 -0.2169
11535W        W28382  18.536   2.689   2.366  0.0366 -0.0072  0.3139
11536W        W28383  17.725  10.688  10.092 -0.1439  0.1465  0.0214
11537W        W28384   3.988  11.857  10.503  0.3731 -0.2146  0.1560
11538W        W28385   3.354   7.292   4.487 -0.1887 -0.2194  0.1146
11539W        W28386   0.348  13.971   3.797 -0.0168  0.4087  0.2449
11540W        W28387  11.077   9.680   4.695  0.0929  0.1596  0.2641
11541W        W28388   5.992  13.845   1.201  0.2884  0.0283  0.1564
11542W        W28389   6.683   4.443  10.786 -0.0400  0.0690 -0.2561
11543W        W28390  10.151  16.357  13.342 -0.2656 -0.1739  0.1663
11544W        W28391   3.269  13.377  12.448  0.1233 -0.2894  0.2013
11545W        W28392  10.145   4.756  14.052  0.0222  0.0526 -0.0006
11546W        W28393  17.699  11.424   1.869 -0.1990  0.1555 -0.2912
11547W        W28394  15.801  17.104  13.639  0.0227 -0.0541 -0.0600
11548W        W28395  14.091   6.161   0.566 -0.1166  0.0040  0.1430
11549W        W28396  15.722   8.825  10.484  0.0361  0.3530  0.0232
11550W        W28397  18.058  11.185  13.409 -0.2870 -0.0764 -0.3504
11551W        W28398  16.401   4.974   3.727 -0.1300  0.0826 -0.0694
11552W        W28399  12.564   7.074   4.982  0.3191 -0.0066  0.0112
11553W        W28400   4.203  13.050  12.629 -0.2347 -0.0232 -0.1620
11554W        W28401   8.798  18.138   4.184  0.0651 -0.1170 -0.0374
11555W        W28402  12.202   6.826   3.055  0.1002  0.1541 -0.1909
11556W        W28403   9.562   7.255   1.297  0.1317 -0.1173  0.3341
11557W        W28404   2.313   8.544  13.797  0.0836 -0.0787  0.2492
11558W        W28405  14.337  13.566  13.932  0.1174  0.0635 -0.1422
11559W        W28406   0.797  14.398   0.917 -0.0792 -0.0163  0.0079
11560W        W28407  12.117   1.957   1.944 -0.4086  0.3148  0.1706
11561W        W28408   3.438  13.540   4.327  0.0233 -0.0521  0.0890
11562W        W28409  10.078  19.608   5.086 -0.2071 -0.1072 -0.0144
11563W        W28410  10.596   6.555   4.535 -0.1987 -0.0306  0.0352
11564W        W28411   8.932  19.662  12.324  0.3669 -0.0925  0.1955
11565W        W28412   9.238   7.456  10.552  0.0349  0.2575  0.0114
11566W        W28413  13.662  17.659   1.404  0.1410  0.2922  0.4333
11567W        W28414   5.361  11.062  14.234  0.2733 -0.2586 -0.1004
11568W        W28415  18.054   0.900   5.071  0.5885 -0.0689 -0.0007
11569W        W28416  17.549  18.765  12.416  0.1505 -0.1362  0.3715
11570W        W28417  16.343  10.386   3.342 -0.1496  0.3495 -0.2524
11571W        W28418   4.940   2.568   3.459  0.1343  0.1831  0.1645
11572W        W28419  16.117  17.482   9.882  0.0484 -0.0890 -0.1419
11573W        W28420  16.594  19.616  13.329 -0.1548 -0.2951  0.0320
11574W        W28421   0.333  10.914  13.395  0.0004  0.3431 -0.0089
11575W        W28422  13.387   6.099   9.765 -0.0345  0.1930  0.0518
11576W        W28423   7.721  19.560  11.321  0.3219 -0.0024 -0.1585
11577W        W28424   8.483   0.600  11.457 -0.0099 -0.2932 -0.0837
11578W        W28425   6.053   5.173  12.598  0.3008  0.0621  0.2069
11579W        W28426   2.859  11.210  12.255 -0.0220 -0.3619  0.1001
11580W        W28427  19.284   2.309  12.071  0.1811  0.2960  0.1499
11581W        W28428   4.119   3.201  13.045  0.0158 -0.0665 -0.1007
11582W        W28429  18.603   3.718   3.012 -0.1014 -0.0587  0.0599
11583W        W28430   8.795  12.314   3.454  0.0164 -0.0861 -0.0187
11584W        W28431  11.252  12.367  11.017  0.2383  0.2756  0.0609
11585W        W28432   1.630  10.117   0.749  0.2067  0.3654  0.0053
11586W        W28433  16.336  12.717   2.713  0.0060  0.0162 -0.2678
11587W        W28434   1.898   9.199   3.297  0.2350  0.1090 -0.2318
11588W        W28435  16.214  19.259   3.260  0.3700  0.0230 -0.0385
11589W        W28436   1.756   4.910  11.493 -0.1907 -0.1945 -0.0351
11590W        W28437   1.609   9.603   8.938 -0.0094  0.0706 -0.1198
11591W        W28438   8.792   7.798  10.561  0.1186 -0.0540 -0.1820
11592W        W28439   0.700   0.252  11.481 -0.4072  0.0690 -0.3359
11593W        W28440  11.168   7.853   1.828 -0.0136 -0.0406  0.3301
11594W        W28441   8.988  15.160  11.620 -0.0190  0.0679  0.3084
11595W        W28442   7.146   2.971  13.454 -0.1890  0.1582 -0.5314
11596W        W28443   4.919  16.939   3.954  0.1736  0.3536 -0.1422
11597W        W28444  15.844   9.971  13.873  0.1461 -0.1279 -0.1583
11598W        W28445   0.747  16.275  12.011  0.0941  0.3942 -0.1271
11599W        W28446  15.593   2.728   1.562  0.3385 -0.3203  0.2943
11600W        W28447   6.034   5.844  11.895 -0.0551 -0.1567 -0.3506
11601W        W28448   9.230  13.591   2.917  0.1659 -0.1271 -0.0138
11602W        W28449   9.899   8.768   4.927 -0.3332 -0.2200 -0.1573
11603W        W28450   9.746  17.958   3.953 -0.1288 -0.2886  0.1658
11604W        W28451   8.753   8.738   2.393 -0.0678  0.0210  0.1064
11605W        W28452   7.156  15.748  11.964 -0.1664  0.1946  0.0225
11606W        W28453  10.027  19.646   0.091  0.3841 -0.2693  0.0724
11607W        W28454   1.206  11.964  13.623 -0.1313  0.2994 -0.2620
11608W        W28455  14.538   0.471   4.049  0.0448 -0.4035  0.0087
11609W        W28456  16.950   3.377   3.651 -0.3866 -0.0301  0.0314
11610W        W28457   0.988   0.052  13.429 -0.0017 -0.1338  0.1748
11611W        W28458   1.535   1.297  11.561  0.2828  0.1872  0.0612
11612W        W28459  17.726   7.758   4.843 -0.0164  0.3783 -0.3030
11613W        W28460  12.797  11.613  10.993  0.2874 -0.2239 -0.0030
11614W        W28461   9.590  11.105  13.705 -0.1299 -0.4856 -0.0986
11615W        W28462  12.287   9.148   1.636 -0.2453 -0.0422  0.0515
11616W        W28463  15.203   8.012   3.891  0.4552 -0.0188  0.1359
11617W        W28464   5.385  16.886   2.931 -0.2719 -0.2183 -0.2874
11618W        W28465   7.509   1.330  13.336 -0.0418 -0.1619  0.2073
11619W        W28466   4.655  19.242  13.109  0.0600  0.1780 -0.3054
11620W        W28467  18.992   8.885  11.255 -0.3917  0.0468  0.1785
11621W        W28468  13.742  16.798  13.470  0.0251  0.0453  0.0332
11622W        W28469   2.183   1.487  13.721  0.1926  0.1147 -0.0243
11623W        W28470  15.884   0.337  13.174  0.1720 -0.2044 -0.0767
11624W        W28471   4.640   6.180   3.563  0.1427  0.0998 -0.2158
11625W        W28472   1.668  18.849   2.826  0.3162  0.0236  0.2869
11626W        W28473  11.893   0.366   1.769 -0.1179 -0.4103 -0.0669
11627W        W28474  16.977   5.488  12.289  0.0348  0.2763 -0.1854
11628W        W28475   6.422  15.624   1.675 -0.0733 -0.0025 -0.0834
11629W        W28476  17.741   0.718  12.882  0.2598  0.1261  0.2938
11630W        W28477   9.198  19.483   0.099 -0.2326 -0.4527  0.0201
11631W        W28478  10.569   2.848   2.387  0.1377  0.5191  0.1286
11632W        W28479   8.223  17.958   9.946  0.0171  0.3738  0.1066
11633W        W28480  15.570  18.388   1.553 -0.0900 -0.0241  0.3096
11634W        W28481  18.062   4.512  13.864  0.0233 -0.0634 -0.1085
11635W        W28482   7.038  19.869   4.405  0.1234  0.0434  0.0607
11636W        W28483  13.981   4.329  12.575  0.0884 -0.0960  0.2392
11637W        W28484   9.671   0.529  13.736  0.0608  0.0252 -0.1250
11638W        W28485   4.429   4.410  10.956 -0.4026  0.3325  0.1793
11639W        W28486   0.762   6.914  11.934  0.0252 -0.5653 -0.2087
11640W        W28487  11.898  19.195   1.396  0.0257  0.3266 -0.0518
11641W        W28488  16.019   3.689   1.559  0.0175  0.1732 -0.2471
11642W        W28489   3.537   6.741   9.991  0.1121 -0.4744  0.0113
11643W        W28490   5.096   8.711   0.905  0.0735 -0.0732  0.1900
11644W        W28491  16.654  17.750  12.135 -0.0730  0.0895 -0.2946
11645W        W28492  14.105   6.327   1.254 -0.0243  0.1561  0.1743
11646W        W28493   5.918  19.724  10.179 -0.0013  0.0956 -0.2714
11647W        W28494   4.093   7.536   3.318 -0.0343 -0.0165 -0.3796
11648W        W28495  16.317  11.509   0.404  0.1099  0.3985 -0.0604
11649W        W28496  16.803  10.671   1.562  0.0760  0.1400  0.1782
11650W        W28497   1.957  17.477   5.130  0.1830  0.1536  0.3048
11651W        W28498  17.242  11.425  11.135  0.2662  0.1126  0.0689
11652W        W28499  10.022  16.308  10.015  0.0196  0.0929 -0.2134
11653W        W28500   5.151  19.206  13.152 -0.0624 -0.0320  0.2258
11654W        W28501  14.247  15.916  12.357  0.0140 -0.0639  0.1396
11655W        W28502  19.372   1.473  12.473 -0.0306  0.0393 -0.1631
11656W        W28503  18.043  17.635  11.164  0.1457 -0.0215  0.1214
11657W        W28504   1.837  15.445   2.300  0.0187  0.2315  0.0116
11658W        W28505  14.054  14.049   4.480  0.0226  0.0241 -0.0208
11659W        W28506   6.428  13.614  11.021 -0.1247  0.3413 -0.0366
11660W        W28507   2.064  16.796  11.217 -0.0168 -0.0046 -0.1416
11661W        W28508  16.479   0.160  13.474 -0.2682  0.0187  0.2485
11662W        W28509   4.667  15.128   4.717 -0.0340 -0.3110  0.1191
11663W        W28510   4.870  14.074   4.866  0.0123 -0.1360 -0.3261
11664W        W28511  13.608   2.742   1.730  0.1793 -0.2024  0.4039
11665W        W28512   9.209   1.189   0.786 -0.0737 -0.2252 -0.0370
11666W        W28513   0.041  16.905  11.189 -0.0020 -0.0460  0.2357
11667W        W28514  17.604   5.358   0.146  0.0939 -0.1072  0.4478
11668W        W28515  17.347   5.943   3.322 -0.4806  0.0468 -0.2449
11669W        W28516  10.551   4.682   1.591 -0.0509  0.1341  0.1312
11670W        W28517  14.595   1.928   1.036  0.0082 -0.0746  0.0075
11671W        W28518  13.139  11.314   0.494 -0.1418 -0.0148 -0.2917
11672W        W28519   6.892  17.131   9.510  0.1987  0.0146  0.0348
11673W        W28520   3.948  14.758   2.126 -0.0810 -0.1479 -0.3284
11674W        W28521  19.639  17.051   9.829  0.2998 -0.0078 -0.3551
11675W        W28522   7.888   5.758   0.198 -0.0982  0.2143  0.2064
11676W        W28523   9.482  17.106  10.371 -0.0412 -0.0466 -0.0650
11677W        W28524   2.682  19.180   4.628 -0.2519 -0.1301  0.1341
11678W        W28525   8.069   9.790   1.093 -0.1106 -0.0871 -0.1824
11679W        W28526  16.492  17.635  12.635  0.0743  0.0543  0.0808
11680W        W28527   3.062  11.598  12.992  0.1585  0.1620  0.0305
11681W        W28528   8.077   7.148   3.515  0.0849  0.2694  0.0863
11682W        W28529  15.855   2.495   1.184  0.1943  0.1685 -0.0013
11683W        W28530   7.316  10.841   9.588 -0.0656 -0.0458  0.2279
11684W        W28531  13.542  10.401   0.900  0.0449 -0.2993 -0.0376
11685W        W28532  14.060   7.027  12.822  0.1767  0.0241  0.1498
11686W        W28533  17.099  17.871   4.531 -0.0975 -0.0716 -0.1546
11687W        W28534   7.894  19.112  11.432  0.2073 -0.0868 -0.0272
11688W        W28535  17.525  11.537  10.649  0.1607  0.2049  0.0012
11689W        W28536   3.649  18.239  10.578 -0.2170  0.0880  0.0397
11690W        W28537   4.518  16.853   2.890 -0.2906  0.0147  0.0783
11691W        W28538  12.873   5.678  10.577 -0.1438 -0.2108  0.4422
11692W        W28539  13.489  14.305   4.821  0.2945 -0.3352 -0.0333
11693W        W28540  11.542   6.049  12.380  0.2272  0.1806  0.0896
11694W        W28541   0.090   4.933  11.691  0.0120  0.3870 -0.1156
11695W        W28542   0.536  17.569  13.276 -0.1263 -0.1466 -0.1249
11696W        W28543  18.955  14.482   1.539  0.1799  0.0085 -0.0281
11697W        W28544   9.056  10.350  10.935  0.0037 -0.0835  0.1978
11698W        W28545  12.120   1.596   2.297  0.2950  0.1759  0.0552
11699W        W28546   9.652  16.446   3.715  0.1316  0.2211  0.1552
11700W        W28547   1.289   1.986  13.426  0.3018 -0.4209  0.2034
11701W        W28548   6.104   9.053  13.654 -0.1059 -0.0132 -0.3148
11702W        W28549   4.988  11.009  13.056 -0.0543  0.0387  0.1029
11703W        W28550   6.219  13.815   3.727 -0.0768 -0.0791  0.0530
11704W        W28551  17.902  13.676   1.036 -0.2783 -0.0745 -0.2113
11705W        W28552   7.472  11.384   1.563  0.1215 -0.0165 -0.0773
11706W        W28553   4.041   9.265   1.606 -0.2330  0.1941  0.0545
11707W        W28554  11.835   0.692  14.191 -0.1899 -0.0920 -0.3558
11708W        W28555   7.452   2.196   3.381 -0.1169 -0.0917  0.2311
11709W        W28556  13.701  18.618   9.856  0.4016  0.3401 -0.0235
11710W        W28557   9.522  18.340   2.463 -0.3139 -0.1668 -0.3111
11711W        W28558   4.738  19.826  12.459 -0.0216  0.0020  0.0132
11712W        W28559  17.487   9.911   1.979  0.1929 -0.0481  0.3873
11713W        W28560   0.263   5.360   4.279  0.1702 -0.0242 -0.1292
11714W        W28561   1.406  16.173   0.553 -0.2000 -0.0739 -0.1019
11715W        W28562   6.930  12.514  12.896 -0.0197 -0.1957 -0.2327
11716W        W28563   5.593  19.858   4.193 -0.3175  0.0170 -0.0600
11717W        W28564  13.261   2.006   3.771 -0.0842 -0.1178  0.0938
11718W        W28565   3.889  18.425   0.504  0.0911 -0.4758 -0.2371
11719W        W28566   6.436  14.385  11.855  0.4242  0.2526 -0.3106
11720W        W28567  15.937  16.343   1.975 -0.2419  0.0463  0.1482
11721W        W28568  16.362   6.420   1.063  0.1540 -0.1507 -0.1044
11722W        W28569  15.131  14.577   1.056 -0.2864  0.1799 -0.0207
11723W        W28570   2.902   9.473  11.442  0.1052 -0.1979  0.3658
11724W        W28571  12.190  13.578   1.581 -0.0312  0.0244 -0.0250
11725W        W28572  14.764   1.743   2.299  0.0627 -0.2303 -0.0770
11726W        W28573  13.052  12.387  13.736 -0.1256 -0.0117 -0.0723
11727W        W28574   3.670  14.459  14.109 -0.2484 -0.0663  0.0080
11728W        W28575   7.030  10.417  13.572 -0.2098 -0.2070  0.0181
11729W        W28576  13.528   0.544   1.126  0.0700 -0.2276 -0.2255
11730W        W28577  16.696  17.257   3.881  0.1058  0.0875 -0.1701
11731W        W28578  10.520  16.187  10.763  0.1397  0.2641  0.0634
11732W        W28579  15.433   1.697  11.407 -0.0215  0.1166 -0.0004
11733W        W28580  10.991   8.570   0.075  0.1169 -0.2303  0.2093
11734W        W28581   1.557  11.657   2.885 -0.4139 -0.4559 -0.0202
11735W        W28582  10.548  17.845   2.410 -0.1623  0.2789 -0.2277
11736W        W28583  13.349   4.569  10.403 -0.2436 -0.0413 -0.0574
11737W        W28584  13.992   4.485  12.005  0.0801 -0.0457 -0.3313
11738W        W28585  17.088  17.920   0.871  0.0423 -0.2027 -0.0369
11739W        W28586  14.028   0.240   4.871  0.2754  0.1335  0.2723
11740W        W28587  19.355  14.381   0.625  0.0993  0.2548 -0.1131
11741W        W28588   2.502  18.653  12.379  0.0426  0.1440 -0.0890
11742W        W28589  11.908   7.923   1.503  0.0762 -0.0633  0.0298
11743W        W28590   2.839  11.914   0.023  0.1728  0.4141 -0.0242
11744W        W28591  15.666   8.206   1.807  0.1572  0.2687 -0.1083
11745W        W28592  14.478   0.718  12.545  0.3032  0.1426 -0.3926
11746W        W28593  18.782  19.039   3.736 -0.1555  0.1224 -0.0519
11747W        W28594  18.064  16.692  12.009 -0.0911  0.1023 -0.0873
11748W        W28595   7.215   6.278  13.962  0.0293  0.0287 -0.0832
11749W        W28596   8.027   6.484   0.728 -0.0936 -0.0231  0.0151
11750W        W28597   3.510   8.533   8.673 -0.2075 -0.2798  0.0938
11751W        W28598   5.777   0.719  11.843 -0.0440 -0.0325 -0.0947
11752W        W28599   7.417  12.961   4.248 -0.0046  0.1333  0.6322
11753W        W28600  14.952  18.579  13.685  0.2467  0.2317 -0.0427
11754W        W28601   9.495  15.663  10.734 -0.2928  0.2533 -0.4216
11755W        W28602   3.669  13.879   3.512 -0.3939 -0.1567  0.5707
11756W        W28603   0.556   3.885   1.644  0.2836  0.1831 -0.1318
11757W        W28604   0.185  14.125  11.623  0.0476 -0.1072  0.1092
11758W        W28605   2.282   3.342  14.008  0.1469 -0.2426  0.2007
11759W        W28606  11.130  13.480   1.423 -0.0178 -0.2050  0.1378
11760W        W28607  11.316  15.062   2.525  0.0899  0.2973 -0.2606
11761W        W28608  12.065   1.212  13.285 -0.1108 -0.2574  0.0433
11762W        W28609  13.614  11.957  10.635  0.1197  0.1983 -0.2232
11763W        W28610   6.145   6.915   1.303  0.1104 -0.0249  0.3040
11764W        W28611  19.505  14.985  13.173  0.3265 -0.2196 -0.0642
11765W        W28612  15.394   2.923  12.777  0.1544 -0.1020 -0.0251
11766W        W28613   9.649  13.048  12.035 -0.5842 -0.0731 -0.3039
11767W        W28614  19.180  16.240   4.590  0.1113  0.3581  0.1098
11768W        W28615  10.749  12.040  11.849  0.0367  0.2245 -0.1828
11769W        W28616  19.698  17.647  10.577  0.1048 -0.0740  0.0615
11770W        W28617   6.465   6.848  12.317  0.0655 -0.0053 -0.1367
11771W        W28618   4.617  15.104   2.891 -0.2406  0.1733 -0.0970
11772W        W28619  11.107   1.640  12.330  0.3351 -0.1406 -0.2101
11773W        W28620   8.305  11.673   3.540  0.3159 -0.2589 -0.0955
11774W        W28621  18.543  17.310  12.580 -0.1028 -0.2208 -0.1702
11775W        W28622   8.319  14.621   4.449 -0.2942 -0.0114  0.1171
11776W        W28623  13.387  10.645   9.801  0.0179  0.2049 -0.0448
11777W        W28624   3.420  17.277   0.089 -0.4709 -0.2424 -0.1242
11778W        W28625   1.979   7.062  12.547  0.1170  0.0793 -0.2455
11779W        W28626   1.072  14.422  11.769  0.0693  0.1112  0.0061
11780W        W28627  15.191   9.309   1.178 -0.1310 -0.4164  0.0786
11781W        W28628   4.566   2.944   2.655 -0.2828  0.1436  0.0636
11782W        W28629   0.712   6.859   5.338 -0.1444 -0.0081  0.1906
11783W        W28630   3.689   2.104  12.623  0.1397 -0.1817 -0.2405
11784W        W28631  19.535  18.063   1.376  0.0839  0.0574 -0.1900
11785W        W28632  17.124   9.747  13.603  0.2433 -0.2195  0.2471
11786W        W28633  14.139  12.701   1.233 -0.1140  0.2880  0.2829
11787W        W28634  19.344  13.031  11.424  0.2060  0.2434  0.2819
11788W        W28635  16.395   7.569   9.530 -0.0491  0.0812 -0.0826
11789W        W28636   0.332  14.692  13.160 -0.1181 -0.1523 -0.1692
11790W        W28637  10.255   7.030   2.959  0.3178  0.1037  0.0718
11791W        W28638  15.856   0.093   0.325 -0.0775 -0.1875  0.2146
11792W        W28639  15.977  18.895   5.246 -0.1182 -0.1189 -0.3383
11793W        W28640  15.905  11.175  11.564  0.2994  0.1518 -0.2864
11794W        W28641   8.511  18.561  12.945  0.0440 -0.1238  0.0965
11795W        W28642  13.891  10.262   2.097  0.2733 -0.0137  0.1384
11796W        W28643  14.072  14.300  12.961 -0.1227  0.0385 -0.1511
11797W        W28644  18.108  15.538  11.425 -0.1515  0.2468  0.0461
11798W        W28645   0.080   5.849   2.848  0.0696 -0.0318  0.0367
11799W        W28646  16.834   0.703  10.264  0.0746  0.1879  0.1161
11800W        W28647   6.055   1.299   1.402  0.2462  0.1844  0.0654
11801W        W28648   7.777  12.963   4.762 -0.2431 -0.3291  0.0226
11802W        W28649   9.608  13.623   3.900 -0.3743 -0.2345  0.2123
11803W        W28650   4.250  18.825   2.042 -0.1971  0.4548 -0.0263
11804W        W28651  16.450   2.847   3.971 -0.1377  0.1342  0.0136
11805W        W28652  15.647  12.182   0.271 -0.2184  0.1210  0.2862
11806W        W28653  12.944   5.309   3.694 -0.3485 -0.0737  0.1167
11807W        W28654  11.602  18.361  12.404 -0.0386 -0.2143 -0.2208
11808W        W28655  16.021   8.174   2.394  0.5079  0.2644  0.2516
11809W        W28656  14.606   9.052  12.738  0.0817 -0.0723 -0.2260
11810W        W28657  12.284  12.321  10.754  0.1946 -0.1137 -0.0986
11811W        W28658   8.305   7.018  10.987  0.0165 -0.1162  0.2957
11812W        W28659  11.736  11.748   4.209  0.1929  0.0037  0.1417
11813W        W28660   9.527  11.240  12.504  0.2414 -0.1722 -0.1953
11814W        W28661  17.787   7.245   1.980 -0.0153 -0.0153  0.2115
11815W        W28662   6.924   9.169  10.959  0.0546  0.1076 -0.0261
11816W        W28663   3.950   9.127   4.897  0.2271  0.1578  0.0068
11817W        W28664   1.129   0.309  10.530  0.0025 -0.1691  0.5313
11818W        W28665  14.510  11.852   2.093  0.3056 -0.1118 -0.1148
11819W        W28666   9.251  15.072   0.642  0.0067 -0.1543  0.1151
11820W        W28667  14.087   0.007   0.949  0.1747  0.2443 -0.1468
11821W        W28668   4.406  11.707   9.799 -0.2238  0.2568 -0.0632
11822W        W28669   3.100   1.939  10.917  0.0724 -0.2729  0.4030
11823W        W28670   9.987  18.884   3.413  0.1981  0.0889 -0.0535
11824W        W28671  18.043   6.904  12.301 -0.0647 -0.0281  0.3341
11825W        W28672  12.721   7.419  14.021  0.1306  0.3048 -0.0135
11826W        W28673   4.667   0.996  11.103  0.1162  0.5780 -0.0924
11827W        W28674  12.790  11.272   9.113  0.2207 -0.1176 -0.0835
11828W        W28675   7.847  14.814  11.384  0.0209 -0.1802 -0.0180
11829W        W28676   3.881   9.599   0.784  0.2445  0.1063  0.1294
11830W        W28677  18.252  14.149   0.449  0.0579  0.4920 -0.3721
11831W        W28678   7.681  17.575   0.904 -0.0211  0.3447 -0.0470
11832W        W28679  15.303  13.484   0.164 -0.1555  0.2547 -0.2313
11833W        W28680   5.837  16.908  13.356 -0.5073  0.1249 -0.3245
11834W        W28681  10.594   8.084  10.256 -0.2293  0.2080 -0.1145
11835W        W28682   4.671   3.395   1.020  0.0725 -0.1519 -0.1315
11836W        W28683   7.777  16.336  10.755  0.4468 -0.1312 -0.2008
11837W        W28684   3.127  17.213   1.566  0.1828 -0.2835 -0.2114
11838W        W28685  17.676   5.063  12.712 -0.2148  0.0819  0.0013
11839W        W28686  15.275   6.304   1.491  0.0482  0.0044  0.1016
11840W        W28687  15.592   1.443  12.333 -0.0913  0.1874 -0.0974
11841W        W28688   6.243  17.638  13.649 -0.1316  0.1080  0.2621
11842W        W28689  11.639  17.824  10.255  0.0206 -0.2522 -0.2147
11843W        W28690   1.558  12.678   3.937  0.1287 -0.0277  0.2406
11844W        W28691  14.633   9.190   2.347 -0.0698  0.3614 -0.2728
11845W        W28692   7.114   0.425  12.476 -0.0247 -0.2361 -0.0612
11846W        W28693   7.608  12.124   2.317 -0.2399  0.3351 -0.0892
11847W        W28694   9.097  13.737  14.248  0.1931  0.2119 -0.0240
11848W        W28695   5.237   6.326  13.051 -0.1104  0.3755 -0.2419
11849W        W28696   2.366   8.575  12.557 -0.0354  0.1579  0.1027
11850W        W28697  16.100  10.624  11.489 -0.1810 -0.2095  0.1685
11851W        W28698  17.368  17.199  14.036 -0.1720  0.1109 -0.0345
11852W        W28699  10.124   1.064   4.166  0.0783 -0.2778 -0.1729
11853W        W28700   6.547   3.435  10.842 -0.0725 -0.0332  0.1885
11854W        W28701   3.720  14.819   1.421 -0.2154 -0.1637  0.0811
11855W        W28702  11.535  17.323  14.131 -0.1352  0.2305 -0.2143
11856W        W28703   9.622   2.692  11.940  0.4171 -0.0332 -0.1687
11857W        W28704   3.926  11.388   9.802  0.1516 -0.0917 -0.2537
11858W        W28705  13.072   2.140  13.183  0.2257 -0.4131  0.0589
11859W        W28706  19.311   1.392   1.595 -0.1188  0.3294 -0.3005
11860W        W28707   0.351  13.354   4.023 -0.1613  0.1273  0.0166
11861W        W28708   9.803   8.153   1.802 -0.1915  0.0312 -0.2443
11862W        W28709  13.802   1.409  11.424  0.0812 -0.1775 -0.0788
11863W        W28710   3.459   2.801   8.965  0.1146 -0.0276 -0.3655
11864W        W28711  14.436  14.388   0.899  0.1807 -0.0553 -0.3856
11865W        W28712  19.306  18.347  12.225 -0.0426 -0.3015 -0.3167
11866W        W28713   8.550   8.216   2.234 -0.0502 -0.2928  0.0696
11867W        W28714   6.103  11.475   2.880  0.0469 -0.1977  0.0687
11868W        W28715   9.272  17.276   3.364  0.0523 -0.1042 -0.1921
11869W        W28716  11.152   3.553  13.743 -0.1743 -0.0301 -0.0930
11870W        W28717   2.234  14.428  13.384 -0.0319 -0.0937  0.2011
11871W        W28718  18.552   6.864  14.150 -0.2597  0.1907 -0.3111
11872W        W28719  19.351   6.385   4.197 -0.1591 -0.2181 -0.1798
11873W        W28720  12.570   9.384   4.118 -0.2663 -0.0401 -0.1176
11874W        W28721   0.742   3.812   9.280 -0.1543 -0.1138  0.1637
11875W        W28722  19.179  13.946   1.488 -0.2025 -0.1370 -0.2535
11876W        W28723   5.664  15.382  11.728  0.1197  0.0442 -0.1305
11877W        W28724   3.274   0.544  12.278  0.3016  0.2518  0.3193
11878W        W28725   3.700  10.616  10.214 -0.2060 -0.2631  0.0245
11879W        W28726  14.445  14.251   4.023 -0.2674 -0.1411 -0.4088
11880W        W28727   6.807  18.173   1.417 -0.0195 -0.0547  0.0406
11881W        W28728   0.912   7.614  11.607 -0.1724 -0.0267 -0.0934
11882W        W28729  15.458   1.922   1.602  0.0870  0.0559 -0.1904
11883W        W28730   5.684   4.092  10.757  0.0149  0.0702  0.2121
11884W        W28731  16.137   3.404  10.211 -0.1787  0.0899 -0.0752
11885W        W28732   6.416   2.929   0.352 -0.1395 -0.0932 -0.4199
11886W        W28733   0.696   2.251  10.282 -0.0849  0.0896  0.2530
11887W        W28734  13.487  12.724   4.503  0.0707 -0.4402  0.1597
11888W        W28735   1.119  15.670   3.005 -0.1314  0.2326  0.0560
11889W        W28736   5.144  10.736  12.405  0.1375 -0.0389 -0.1809
11890W        W28737  13.637  15.668  12.473 -0.0687 -0.0898  0.1089
11891W        W28738  11.305   5.604   4.783  0.0703  0.2196 -0.0831
11892W        W28739   6.009  18.547  10.840 -0.3167  0.2792  0.0440
11893W        W28740  18.685  18.093   1.466 -0.0172 -0.2055  0.1967
11894W        W28741  19.242   1.844   3.379  0.0260  0.1085  0.1692
11895W        W28742  17.776   4.080   3.250 -0.2280  0.0261 -0.0226
11896W        W28743   7.366   0.850  11.120  0.2549  0.0822  0.1414
11897W        W28744  17.475  13.098   3.320  0.3562 -0.1487  0.1972
11898W        W28745  17.913   6.593   9.362  0.1532  0.1017 -0.1001
11899W        W28746   6.141   6.979   4.653  0.0115 -0.2414  0.2797
11900W        W28747  19.270  18.496   4.889  0.0723 -0.2222 -0.2987
11901W        W28748   7.777   6.799   3.403  0.1708  0.0805  0.1249
11902W        W28749  11.233  18.565   0.506 -0.0433  0.3376  0.0133
11903W        W28750   2.929   3.462   3.972  0.1380 -0.1843  0.0423
11904W        W28751   5.706  10.170   0.337 -0.1779 -0.2969  0.0710
11905W        W28752   0.961   8.808   0.057 -0.1255  0.3482 -0.0048
11906W        W28753  13.607  14.006   2.815 -0.1077  0.0923 -0.1341
11907W        W28754   0.290  12.295   2.585  0.0723 -0.1061  0.3943
11908W        W28755   8.011  14.221   0.628 -0.0111 -0.1376  0.1436
11909W        W28756  15.462   5.598   2.041  0.2432  0.0165 -0.1633
11910W        W28757  10.031   4.620  11.290 -0.0426  0.3338  0.0479
11911W        W28758  14.849  12.408  13.519 -0.2204  0.1003  0.1082
11912W        W28759  19.582   1.347   0.889 -0.3338 -0.2364 -0.1780
11913W        W28760   8.399  16.377   0.292 -0.0163 -0.0860  0.0194
11914W        W28761   7.263   5.216  12.132 -0.1883 -0.0998 -0.3263
11915W        W28762   5.625  15.580  13.172  0.0958  0.1586 -0.1812
11916W        W28763  19.168  15.527   3.755 -0.1520  0.0958  0.0194
11917W        W28764   8.943   9.872   2.379 -0.2622  0.1459 -0.2159
11918W        W28765   1.976   0.487  12.097 -0.1996 -0.2195  0.2330
11919W        W28766   4.993   6.435  10.459 -0.0658 -0.1468 -0.2359
11920W        W28767   4.393   5.847  12.851  0.0627 -0.2223 -0.3094
11921W        W28768   2.313   2.967  11.061  0.0576 -0.2863  0.1448
11922W        W28769  12.593   5.860  10.976  0.2942  0.3018  0.1029
11923W        W28770  17.021   7.184  13.964 -0.3351  0.1953 -0.3395
11924W        W28771   5.278   0.434  12.193  0.3850  0.1268 -0.1296
11925W        W28772   6.566  13.015   0.673  0.3103  0.0685 -0.0592
11926W        W28773   9.901   7.970  13.937 -0.0895 -0.3097  0.0622
11927W        W28774  17.478  13.817  10.595 -0.1339 -0.0514 -0.0946
11928W        W28775   4.127  12.622   4.694  0.0503  0.1545  0.2375
11929W        W28776   3.226   2.552  11.352 -0.6979 -0.0615 -0.0734
11930W        W28777   6.707   2.697   2.253  0.0238 -0.0010 -0.4550
11931W        W28778  11.777  18.755  10.147  0.4564  0.1284  0.2726
11932W        W28779   8.640   0.983   9.046  0.4882  0.0703 -0.1224
11933W        W28780   8.633   8.085   1.044  0.2287  0.3155  0.2728
11934W        W28781   8.774  12.869   2.454  0.0530 -0.0143  0.1136
11935W        W28782  19.567   4.641   4.059  0.1333  0.0150 -0.1413
11936W        W28783  13.547   6.387   4.458 -0.0742 -0.2821  0.2345
11937W        W28784   7.405   2.444  12.686 -0.1070  0.2298 -0.3814
11938W        W28785   0.915  11.967  11.846  0.0836  0.0491  0.0932
11939W        W28786  11.215  15.586   4.888 -0.1634  0.0556 -0.1051
11940W        W28787   5.154  12.014   1.328 -0.0045  0.3400  0.0813
11941W        W28788   8.428   4.606  14.303 -0.1069  0.1824 -0.0821
11942W        W28789  17.427   9.665  11.599 -0.1815 -0.0964  0.1264
11943W        W28790   5.713   3.580   1.934  0.1340 -0.1747  0.2682
11944W        W28791   7.538   6.273   0.530  0.0590 -0.3514  0.2353
11945W        W28792   0.308   4.306   1.701 -0.5029 -0.2727 -0.1355
11946W        W28793  19.017  14.160  11.567  0.1842 -0.1739  0.1014
11947W        W28794  16.845   3.322   0.480  0.2386  0.1533  0.0854
11948W        W28795   0.267   4.122  12.967 -0.0869  0.0828 -0.1251
11949W        W28796   9.088   2.330   3.398 -0.4617 -0.1179  0.2357
11950W        W28797   8.431  19.568   4.129 -0.1338 -0.0614 -0.1397
11951W        W28798  16.864   0.024  12.336  0.2048  0.1253 -0.2339
11952W        W28799   9.667   7.200  10.711 -0.3581 -0.0525  0.0113
11953W        W28800  12.007   4.029   0.845 -0.1799  0.3507  0.2510
11954W        W28801  11.925  16.278  11.952 -0.2780  0.1248 -0.2465
11955W        W28802   9.273  14.831   4.245 -0.3057  0.3351 -0.1033
11956W        W28803  16.349  14.416  11.926 -0.2947 -0.0456  0.1213
11957W        W28804  14.780  16.593   3.766 -0.0515  0.4770 -0.1362
11958W        W28805  12.858  10.983  12.728  0.0858 -0.1708 -0.0419
11959W        W28806  10.110   6.738  10.971  0.0191  0.1996 -0.3386
11960W        W28807   9.930   0.643  10.997 -0.1076 -0.3097 -0.0915
11961W        W28808   1.453   4.566   4.369 -0.0593  0.3107  0.0250
11962W        W28809   0.975  14.181  11.315  0.1275 -0.0037 -0.2609
11963W        W28810   4.429  19.075   0.300 -0.2060 -0.0553 -0.1983
11964W        W28811   0.843   6.491   0.471  0.3866  0.2422  0.2003
11965W        W28812   6.000   8.156  11.698 -0.3879  0.1759  0.0126
11966W        W28813   0.957  17.946   0.788  0.0141  0.0782 -0.0342
11967W        W28814  15.881   3.706  12.381  0.1680  0.1810 -0.0533
11968W        W28815  13.969   8.922   2.648  0.1176  0.1309 -0.0540
11969W        W28816  19.707  13.512  10.453  0.0964  0.1068 -0.1481
11970W        W28817   4.471  10.985   4.729  0.1846 -0.1985  0.0011
11971W        W28818  13.671   4.234   4.082  0.0362  0.0709 -0.2268
11972W        W28819  11.388   3.479   4.363 -0.4566  0.0064 -0.0868
11973W        W28820   9.561  11.908   3.713 -0.1678 -0.2424 -0.0755
11974W        W28821   9.355  10.655  13.678 -0.1496  0.1751  0.1891
11975W        W28822   3.489   5.619  12.813  0.1457  0.0532 -0.1876
11976W        W28823   9.813   3.147  14.247  0.0030 -0.0218 -0.0968
11977W        W28824   8.662  16.274  13.308 -0.3107  0.4753  0.0750
11978W        W28825   7.283   6.703   0.574 -0.2649  0.1756 -0.3335
11979W        W28826  11.853   5.183   4.313 -0.0251  0.3463  0.1015
11980W        W28827  18.595  19.112  10.918  0.1324  0.1771 -0.0481
11981W        W28828   1.757  12.506  14.193 -0.1043  0.3343 -0.1499
11982W        W28829   8.300  13.576   2.475 -0.1030 -0.0288  0.0027
11983W        W28830  15.006  13.045  12.099  0.0643 -0.3797  0.3663
11984W        W28831   9.979  10.583   0.111 -0.4525 -0.1653 -0.3389
11985W        W28832  11.358   2.727   3.383 -0.0424 -0.1612 -0.3736
11986W        W28833   8.629  13.799   8.830  0.0372  0.2547 -0.0136
11987W        W28834  10.298  17.874   3.939 -0.0355  0.3026 -0.0532
11988W        W28835  15.972  11.540   2.102 -0.2980 -0.4166  0.2574
11989W        W28836  18.620   8.941  12.609  0.1569 -0.1676 -0.3189
11990W        W28837   8.126   0.289   0.855 -0.2791  0.1215  0.1025
11991W        W28838  14.785  14.676  12.539  0.1096 -0.3214  0.1312
11992W        W28839   0.695   6.569  10.769 -0.2297 -0.3159 -0.1840
11993W        W28840  12.246   5.401   4.494  0.0970 -0.4530 -0.0712
11994W        W28841  19.507   0.116  10.819 -0.3106 -0.1008 -0.1463
11995W        W28842  18.986   1.625   9.765 -0.2777  0.1082  0.3176
11996W        W28843  16.599   7.422  12.371 -0.2561 -0.0356  0.0833
11997W        W28844  11.353   5.376   4.225 -0.0972 -0.1032  0.0354
11998W        W28845   7.629  13.767   1.492  0.4630  0.1187 -0.0547
11999W        W28846   1.046   4.719  14.246 -0.1536 -0.5388 -0.0268
12000W        W28847   5.926   0.214   1.756 -0.0503 -0.2732 -0.3888
12001W        W28848   2.192   1.762  11.377 -0.2807 -0.1634 -0.4761
12002W        W28849  17.165   9.380  12.691  0.0165  0.2173  0.2175
12003W        W28850  18.103   8.142   2.424  0.5271  0.2242 -0.0241
12004W        W28851   8.832   6.485   2.640 -0.2174 -0.1408 -0.1289
12005W        W28852  11.122   9.396  13.111  0.4074  0.1791  0.1175
12006W        W28853  14.449   1.779  10.565  0.2692 -0.2254  0.0162
12007W        W28854   0.189  13.456  13.692 -0.1952 -0.0973  0.2190
12008W        W28855  11.808   7.396  14.216 -0.0489 -0.1257 -0.1328
12009W        W28856   5.174   2.948   3.150  0.3176 -0.0562 -0.0372
12010W        W28857  14.239  18.369   0.425 -0.2442  0.0863 -0.3635
12011W        W28858   9.308   2.492   3.830 -0.2170  0.1410 -0.2309
12012W        W28859  14.149  19.211   2.487 -0.0256 -0.1535 -0.0134
12013W        W28860   2.337   7.438   3.880 -0.0150  0.0825  0.0367
12014W        W28861   4.554  14.813   4.302 -0.1792 -0.1764 -0.3309
12015W        W28862  16.182   5.858  12.091  0.2161 -0.2660  0.2688
12016W        W28863  12.011  11.018   2.021 -0.2791 -0.1065  0.0226
12017W        W28864   7.512  14.914  12.401 -0.0304  0.1766 -0.2041
12018W        W28865  15.746  12.283  10.411  0.0980  0.1572 -0.2236
12019W        W28866   5.684  10.140   2.945 -0.2402 -0.3464 -0.1285
12020W        W28867   5.161  14.744  13.193 -0.0551  0.3047 -0.0994
12021W        W28868  10.980  19.245   1.575  0.1617  0.0465 -0.0735
12022W        W28869   9.239  14.682  11.652 -0.0870 -0.0450 -0.0755
12023W        W28870  16.783   9.590  10.565 -0.1473 -0.1245 -0.0774
12024W        W28871  18.626  10.406   3.354 -0.0574  0.0758  0.1923
12025W        W28872  19.762   4.822   9.863 -0.2273 -0.1444  0.0330
12026W        W28873  16.655  10.351   0.753  0.0608 -0.0318  0.4556
12027W        W28874  13.599   0.504   2.347  0.1632 -0.1495  0.1593
12028W        W28875  16.802   3.385  10.659 -0.1882 -0.0656 -0.1091
12029W        W28876   9.074   6.434  10.081 -0.2904 -0.0715  0.2884
12030W        W28877   4.100   2.535  11.175 -0.1207 -0.0243 -0.0771
12031W        W28878   3.195  14.123   4.090  0.1965 -0.2922 -0.1300
12032W        W28879   9.798  10.899   1.894  0.1591 -0.0909 -0.1167
12033W        W28880   5.448   3.991  13.087  0.1332  0.0263 -0.2080
12034W        W28881  13.710  17.932   2.550  0.1060 -0.2502  0.1738
12035W        W28882   7.745   2.134  10.636  0.0794 -0.2013  0.1003
12036W        W28883  11.939  19.279  11.353 -0.2975  0.0105 -0.1837
12037W        W28884   3.175  12.032   1.784 -0.2213  0.2753 -0.2583
12038W        W28885   0.781  16.154  11.353  0.1416  0.0698 -0.0083
12039W        W28886   8.816   9.147   4.563  0.0462 -0.2566  0.0266
12040W        W28887   3.541   1.823   1.169 -0.0734 -0.3094  0.0661
12041W        W28888  18.147  18.682   3.734 -0.0890 -0.1215  0.0038
12042W        W28889  16.243   6.263  10.867  0.1414 -0.2755 -0.2216
12043W        W28890  15.199   4.819   1.665  0.0614  0.4156 -0.2765
12044W        W28891  13.876   6.278   2.261 -0.0609  0.0294 -0.1847
12045W        W28892   1.225  16.574   4.461 -0.0966 -0.2866  0.1769
12046W        W28893  19.073  13.017   2.378  0.0837  0.2928  0.0965
12047W        W28894  15.986  15.618   0.921 -0.2690  0.0091 -0.3847
12048W        W28895  18.057   3.973  10.948 -0.4520  0.3194 -0.0210
12049W        W28896   6.703  17.796   3.602 -0.0197 -0.5065  0.0055
12050W        W28897  17.285  17.656   4.033 -0.0166 -0.0419 -0.0471
12051W        W28898   0.251   2.608  12.012 -0.1149 -0.2739  0.2951
12052W        W28899  14.222   7.453   4.725 -0.4926 -0.2784 -0.2007
12053W        W28900  11.479   6.647   9.899 -0.1713  0.2747 -0.2209
12054W        W28901  14.651  10.688  11.464 -0.1123 -0.0921 -0.0447
12055W        W28902  18.490  12.026  13.046  0.0883 -0.2465 -0.1506
12056W        W28903   1.657  18.728   9.734 -0.1875  0.2437  0.0453
12057W        W28904  13.573  19.741  10.972 -0.1149 -0.1915  0.0148
12058W        W28905  12.908  18.338   2.920 -0.0555 -0.2102 -0.0273
12059W        W28906  12.686  17.770   1.117  0.1204  0.0824  0.0839
12060W        W28907  12.739   0.223   2.669  0.4472  0.1937 -0.2077
12061W        W28908  15.501   4.579  13.867  0.1065  0.1057 -0.0124
12062W        W28909   9.035   5.710  13.807 -0.0200  0.2051 -0.2534
12063W        W28910  10.514   9.238  14.151 -0.1745 -0.0137  0.1105
12064W        W28911   8.171  13.382  13.754  0.2779 -0.2555 -0.0866
12065W        W28912   1.153  18.067  12.983 -0.1464  0.0214 -0.1510
12066W        W28913  14.911   2.271   4.631  0.2506  0.3273 -0.1206
12067W        W28914   6.003  10.092  13.703  0.1664  0.3590 -0.1895
12068W        W28915  15.300  16.106  10.591  0.0163  0.2419 -0.0959
12069W        W28916   4.505   2.030   1.780  0.1001  0.1969  0.0679
12070W        W28917  19.846   0.314   3.155 -0.1885 -0.0553 -0.1094
12071W        W28918  17.765   9.841  13.448  0.0927  0.0635  0.0867
12072W        W28919   1.846  11.473   9.261 -0.0095  0.0137  0.0475
12073W        W28920   5.246  14.692  14.120 -0.0049  0.1499 -0.0961
12074W        W28921   0.681   3.078   3.495  0.1267  0.0966 -0.2363
12075W        W28922  16.097  13.907   2.206 -0.2043 -0.0681 -0.0831
12076W        W28923  10.894   4.426   1.825 -0.3421  0.0812  0.0188
12077W        W28924   2.333   5.088  10.838 -0.0797  0.0232  0.0888
12078W        W28925   6.386   5.546  12.493 -0.2575 -0.4566  0.1232
12079W        W28926  17.636   9.608   2.397  0.3468  0.0551 -0.1211
12080W        W28927   7.125  13.242  12.534  0.1056 -0.2818  0.0643
12081W        W28928   3.500   5.345   1.428  0.1176 -0.3979  0.2024
12082W        W28929   6.207   0.263  11.833  0.0240  0.0254  0.2767
12083W        W28930  19.700  18.174  10.625  0.3836  0.0490  0.2801
12084W        W28931   4.040   7.446  12.677 -0.1061  0.0380 -0.0301
12085W        W28932  18.437   7.713   0.649  0.0209 -0.2594  0.0720
12086W        W28933   8.641   1.740   2.349  0.1765 -0.2644 -0.2150
12087W        W28934  17.694  14.197  11.223 -0.0090 -0.2668 -0.0264
12088W        W28935   2.784   3.155  10.113 -0.0209  0.0098 -0.4224
12089W        W28936   8.691  11.353  10.568  0.0145  0.0017  0.0170
12090W        W28937  13.863   1.837  14.169 -0.2952  0.0223  0.2861
12091W        W28938  13.892   5.573  14.104  0.1422 -0.2271 -0.0791
12092W        W28939  13.085   6.967  10.351  0.2193  0.0991  0.0062
12093W        W28940  11.478  11.293   5.038 -0.1186 -0.0252  0.2759
12094W        W28941  14.558  16.285  11.340 -0.0934 -0.0447  0.0685
12095W        W28942   7.191  16.982   0.769 -0.0198  0.0315 -0.1656
12096W        W28943   1.646  17.564   0.736 -0.2863  0.0632 -0.0727
12097W        W28944  12.952   6.269  11.715  0.3723  0.2616 -0.1292
12098W        W28945   9.829   2.466   0.861 -0.1099  0.0946  0.0852
12099W        W28946  15.495   5.226  10.698 -0.1393  0.0082  0.0970
12100W        W28947  14.614  19.872  14.293  0.1825 -0.1300 -0.1904
12101W        W28948  11.548   4.302   4.397 -0.2737 -0.0154  0.0810
12102W        W28949  17.927   8.229  12.810  0.0307  0.0478 -0.0418
12103W        W28950   9.456   0.572   3.778 -0.2086  0.0914 -0.1709
12104W        W28951   8.864   1.729  11.930  0.0428 -0.1018 -0.2672
12105W        W28952   4.328   5.519   4.413 -0.0263  0.1920  0.3456
12106W        W28953   3.968   1.830  13.420  0.3247 -0.1271  0.0308
12107W        W28954  13.615  13.187   2.161 -0.0435  0.0732 -0.1261
12108W        W28955  17.746   3.745  13.633 -0.1229 -0.0086 -0.1144
12109W        W28956  14.471  15.971   2.589  0.2208  0.0413  0.0181
12110W        W28957   4.789   9.435   2.511 -0.4849  0.1767  0.0583
12111W        W28958   3.862  11.506   3.693  0.3844 -0.2172  0.0478
12112W        W28959   9.599   4.224  12.767 -0.0014 -0.1073 -0.0542
12113W        W28960  13.207  18.769   1.595  0.1381 -0.0815  0.2094
12114W        W28961  18.224   8.580  12.362 -0.0549  0.0968 -0.0307
12115W        W28962   8.651   9.895  14.076 -0.1548  0.0823 -0.1019
12116W        W28963  11.011  18.420   4.020  0.2575 -0.1666 -0.1210
12117W        W28964   8.526  11.018  14.183  0.1516 -0.2340 -0.0132
12118W        W28965  12.266  16.426  11.547 -0.0087  0.0549 -0.0753
12119W        W28966   4.054   0.360  12.718 -0.2051  0.0476  0.2609
12120W        W28967   2.918  16.228  11.973  0.1333  0.2443  0.0538
12121W        W28968   1.834   9.639  10.699 -0.0214 -0.1041 -0.2724
12122W        W28969   9.117  15.416   1.638  0.0064 -0.2998 -0.1644
12123W        W28970   1.528   5.203   0.768  0.1724  0.0368  0.1917
12124W        W28971   1.328  18.019   0.479  0.0566  0.1685  0.0510
12125W        W28972  18.962  17.866  13.576  0.0107 -0.0895  0.2231
12126W        W28973   6.188  17.564   4.269  0.0870 -0.0988 -0.0411
12127W        W28974  19.562   3.596  10.227  0.1205 -0.0830  0.1221
12128W        W28975   3.903  12.150  12.904 -0.2241  0.1460 -0.0275
12129W        W28976   9.767   3.323   5.057 -0.1822 -0.2433  0.0000
12130W        W28977  19.735   1.110  10.801 -0.1250  0.0251  0.0280
12131W        W28978   7.811   4.612   2.977  0.3109  0.0745  0.0838
12132W        W28979   0.012  18.279  11.094 -0.1851 -0.0292 -0.1343
12133W        W28980  14.891  14.269   4.791  0.2008 -0.1951  0.1259
12134W        W28981   2.875  18.433   4.214 -0.0548 -0.0348  0.0416
12135W        W28982   6.103   5.182  13.354  0.1869  0.3072 -0.0236
12136W        W28983   5.557  10.850  10.430  0.2224  0.1942  0.1908
12137W        W28984  14.329   8.518   0.183 -0.0678 -0.1236 -0.2320
12138W        W28985  14.695   0.839   0.247 -0.0960  0.1575  0.0414
12139W        W28986   9.054  16.347   3.167 -0.2084  0.1253  0.4426
12140W        W28987  12.676   8.856   5.335 -0.0270 -0.3162 -0.0039
12141W        W28988   9.713   0.314   1.469  0.0636  0.0101  0.0362
12142W        W28989  14.835  14.684   3.252  0.1741 -0.1380 -0.0335
12143W        W28990   7.145  13.686   9.900  0.3538  0.2254  0.0484
12144W        W28991  14.310  13.712   4.153 -0.1040  0.3248  0.3690
12145W        W28992   8.154  15.600  10.838  0.1537 -0.0967  0.1323
12146W        W28993   7.388  17.947   9.429  0.1225  0.2033 -0.3149
12147W        W28994  15.991  19.401  12.579 -0.3015  0.3737 -0.2042
12148W        W28995   1.932  19.243  13.099  0.1586  0.1212  0.0831
12149W        W28996   7.662  10.565   0.803  0.1269 -0.3461 -0.3166
12150W        W28997  14.425   8.736   1.401 -0.0963 -0.3787 -0.0856
12151W        W28998   5.612  12.904  14.220 -0.2885 -0.1315 -0.1362
12152W        W28999   0.898   9.230   9.965  0.5625  0.0378 -0.2384
12153W        W29000  10.142  19.201  12.490 -0.0274  0.1476  0.0982
12154W        W29001   7.251   1.733  13.537  0.2514  0.0761  0.3298
12155W        W29002   7.614   8.631   2.402  0.2098 -0.1128 -0.1280
12156W        W29003   4.801  10.202  10.488 -0.2786  0.2435  0.0663
12157W        W29004   8.038  17.816  13.440 -0.0870  0.0090  0.0264
12158W        W29005   6.158   2.544  11.510  0.0509 -0.0937  0.4904
12159W        W29006  17.212  19.071   0.912 -0.5045  0.0229 -0.0687
12160W        W29007  16.063  15.520  11.233  0.0443 -0.0441 -0.1491
12161W        W29008  19.722   9.056  13.719 -0.0827  0.1742  0.5612
12162W        W29009  13.537   1.823   2.363  0.2543 -0.1467  0.0883
12163W        W29010   7.187   8.362   3.317  0.1407 -0.0554 -0.3358
12164W        W29011  13.026   4.477  11.172 -0.3830  0.0502  0.0825
12165W        W29012   2.963   1.636  12.011  0.0195  0.2286  0.1090
12166W        W29013   2.779  16.082   3.654 -0.0848  0.1265 -0.2033
12167W        W29014  12.266   5.016   4.104  0.1401 -0.2529  0.0160
12168W        W29015   2.839   6.920   0.075 -0.3321  0.0174 -0.1520
12169W        W29016   9.549  18.893   0.624  0.0693  0.2327  0.1656
12170W        W29017  10.875  10.754  12.724 -0.0402 -0.1967 -0.2547
12171W        W29018   0.783  17.123  11.167 -0.3985 -0.5404  0.3645
12172W        W29019   2.416  16.892  10.814  0.0522  0.1383  0.1746
12173W        W29020   9.465   2.195   9.496  0.1367 -0.2517 -0.1130
12174W        W29021  19.328  17.064  11.494 -0.0385  0.0437 -0.0726
12175W        W29022  16.271  18.417  13.748  0.3025 -0.0736 -0.3272
12176W        W29023   5.874  17.432  10.934 -0.1698 -0.0538  0.2409
12177W        W29024  13.136  16.236   9.874  0.2342 -0.4135 -0.1583
12178W        W29025  17.863  12.531  10.234  0.0606  0.1388  0.0364
12179W        W29026   8.888  17.566   2.585 -0.1001  0.1285  0.0262
12180W        W29027   9.685  18.470  13.029  0.2533 -0.1368  0.1067
12181W        W29028  19.793   2.926   2.926  0.0590  0.2255  0.2373
12182W        W29029   6.351  18.560   0.607  0.1984  0.0450 -0.0956
12183W        W29030   4.182   4.519   2.613  0.0415  0.0509 -0.0287
12184W        W29031  15.119   0.606   0.439 -0.0001 -0.0222  0.0347
12185W        W29032   3.258  15.942   2.753 -0.3443  0.2021  0.1087
12186W        W29033   4.193  14.645  14.179  0.3370 -0.0313  0.2051
12187W        W29034   8.973  18.677   4.244 -0.2214 -0.2779 -0.0109
12188W        W29035   8.557  17.195   0.938 -0.1872  0.1597 -0.0330
12189W        W29036  19.383  16.479  12.793 -0.0994  0.2139 -0.1569
12190W        W29037  16.741   5.950  13.993 -0.2866 -0.0013 -0.1831
12191W        W29038  18.493   7.452   3.590 -0.3710 -0.3067  0.0158
12192W        W29039  17.783   0.174  12.257  0.1080  0.0916  0.2538
12193W        W29040  13.573   0.875  10.788 -0.1566 -0.0390  0.1009
12194W        W29041   9.128  15.352  11.163 -0.0651 -0.1046 -0.0376
12195W        W29042  16.515   9.236  11.609  0.1817 -0.0491 -0.3896
12196W        W29043   1.853  11.411   1.775 -0.1068 -0.1056 -0.1738
12197W        W29044  16.899  19.169   3.856  0.3460 -0.0406 -0.1211
12198W        W29045   7.006  14.216  13.904  0.0417 -0.0534  0.1007
12199W        W29046   7.990   0.623  10.132  0.1754 -0.3491 -0.2061
12200W        W29047  19.197  19.660   2.123 -0.2972 -0.2239 -0.2470
12201W        W29048   7.733   1.609   2.721  0.2324 -0.0684  0.2594
12202W        W29049  16.986  14.645   1.552  0.0210  0.0835  0.0782
12203W        W29050   4.238   2.194   4.789 -0.1225 -0.4582 -0.1333
12204W        W29051   2.155   8.767  10.849  0.0136  0.4510 -0.1532
12205W        W29052  14.044   8.498   4.720 -0.1762  0.0418  0.0065
12206W        W29053  15.962  18.585   3.869  0.0841  0.0255  0.0981
12207W        W29054   9.544   9.462   9.925 -0.0369 -0.1086  0.1563
12208W        W29055  14.408  18.723   3.649  0.1229 -0.2902 -0.2057
12209W        W29056  13.519   6.850  12.191  0.1902 -0.2841  0.2482
12210W        W29057   3.753  16.260   0.637 -0.1025  0.2491 -0.0129
12211W        W29058   5.409   3.378   4.023  0.0228 -0.1669 -0.4426
12212W        W29059   0.088  15.932   1.592  0.0073  0.2498 -0.0621
12213W        W29060   8.755  14.187   4.649 -0.0230  0.2338 -0.2441
12214W        W29061  17.299  12.528  12.885  0.2497 -0.0096 -0.2419
12215W        W29062  10.865  10.937   0.099 -0.2772  0.2098  0.1251
12216W        W29063  13.745   6.260   3.396 -0.1150 -0.2091  0.2944
12217W        W29064  16.171  15.713  12.314  0.0384 -0.1876 -0.3485
12218W        W29065   2.728   6.052   0.258  0.0404  0.5202 -0.3031
12219W        W29066  14.620   3.458   3.150  0.3720  0.1947  0.1646
12220W        W29067  19.533  11.053   1.920  0.4016 -0.2257  0.0953
12221W        W29068  19.112   1.340   0.057 -0.1741  0.0690  0.1789
12222W        W29069  12.582   0.684   4.112  0.1030  0.0514 -0.2012
12223W        W29070  17.199   5.666   0.015  0.3290  0.2632 -0.1514
12224W        W29071   7.681   4.413  11.098  0.1177 -0.1686  0.0659
12225W        W29072  17.185  12.256   3.059 -0.0731 -0.0602 -0.2548
12226W        W29073  16.741   9.799   3.405  0.0840  0.1904 -0.0683
12227W        W29074  17.636  10.947  12.519 -0.1366  0.0045  0.2878
12228W        W29075  11.529   7.626  10.966  0.0039 -0.1444  0.1027
12229W        W29076  13.583  10.385  11.997 -0.0127  0.0179  0.0815
12230W        W29077   0.721  15.373  14.099 -0.0615  0.0511 -0.0788
12231W        W29078   6.737  10.414   2.351  0.0239  0.1140  0.2696
12232W        W29079  19.832  16.791  13.521  0.2311 -0.1842 -0.1780
12233W        W29080   1.048   4.915   4.225 -0.1017 -0.3204  0.0018
12234W        W29081  19.630   0.632  10.337  0.2180 -0.2665  0.2462
12235W        W29082   7.417  12.137  14.016  0.2705  0.0243 -0.0981
12236W        W29083  14.853  17.194  12.948 -0.2917  0.0893  0.0477
12237W        W29084   2.015   6.342  12.247  0.4294 -0.2146  0.0868
12238W        W29085  19.824   2.752  10.402  0.1781 -0.0192  0.0029
12239W        W29086   6.761   2.626  10.206  0.2023  0.1539  0.1241
12240W        W29087   1.047  19.177  13.515 -0.1147 -0.0064  0.0621
12241W        W29088   1.153   2.809  12.432 -0.2526  0.1107 -0.3685
12242W        W29089   9.567   6.708   1.869 -0.0377  0.2359  0.0329
12243W        W29090   4.711   2.058  10.639  0.1028 -0.2059 -0.0565
12244W        W29091  12.622   1.451   3.712  0.0206  0.0055  0.2708
12245W        W29092  16.892   3.424   9.252  0.0667  0.1385 -0.3832
12246W        W29093   6.752  13.153   4.170  0.1928 -0.0112  0.3044
12247W        W29094   3.898  11.850  11.029  0.1365  0.1836 -0.1585
12248W        W29095   7.289  14.879   3.163 -0.2742 -0.4056  0.0446
12249W        W29096  12.735   8.261   1.740  0.1505  0.0269 -0.0918
12250W        W29097  14.608  10.935   1.748 -0.1338 -0.1041  0.0026
12251W        W29098   5.306  18.686  12.929  0.0883  0.0219  0.2030
12252W        W29099   3.690  15.668  11.229  0.1205 -0.1882 -0.1845
12253W        W29100  17.113  19.488  10.367 -0.5036 -0.1439 -0.1449
12254W        W29101   4.260  11.082  11.921 -0.1549  0.2087  0.2284
12255W        W29102   3.480  12.680  13.559 -0.1585  0.1644 -0.2690
12256W        W29103  15.214   3.171   0.099 -0.1987  0.1859 -0.0295
12257W        W29104   9.255   7.145  12.104 -0.0192  0.1369  0.2997
12258W        W29105   8.716  12.302   0.971  0.0311  0.2021  0.2783
12259W        W29106   7.333   1.681  10.261  0.3432  0.2055  0.0750
12260W        W29107   4.533  14.117   3.168 -0.0785  0.0406  0.0426
12261W        W29108  19.453  17.959  10.205 -0.0689  0.2238 -0.2728
12262W        W29109   8.027  16.682  10.478  0.1894 -0.4168 -0.0144
12263W        W29110   2.196   6.423  10.410  0.0554  0.2674  0.0872
12264W        W29111  17.716  16.777   0.125 -0.1358 -0.1873  0.2490
12265W        W29112   9.308  14.852   2.593  0.1577 -0.2339 -0.0733
12266W        W29113   6.383   6.584   3.206 -0.0126 -0.3149 -0.1917
12267W        W29114   1.128   2.448  10.886  0.0605 -0.1392  0.0082
12268W        W29115   4.918   5.870  12.901  0.0399 -0.5270 -0.1532
12269W        W29116   9.429  15.352  12.818 -0.1402 -0.0366  0.1825
12270W        W29117   2.309  14.224   3.947  0.0492 -0.1874  0.0903
12271W        W29118  17.035   7.948  11.787 -0.1418  0.3454 -0.2039
12272W        W29119  10.156  17.877  11.323  0.2569 -0.2694 -0.3192
12273W        W29120  11.578   9.459   4.762 -0.1018 -0.0092 -0.3102
12274W        W29121  16.601   8.840   0.131 -0.0334 -0.1662 -0.0759
12275W        W29122   3.513  11.602   4.971 -0.2331 -0.1599  0.2544
12276W        W29123  14.120   5.758   3.963 -0.1822  0.0289  0.0658
12277W        W29124  13.724  11.499   9.141 -0.0797 -0.4321 -0.0106
12278W        W29125   0.292   8.364  13.963  0.2851  0.0078  0.0628
12279W        W29126  17.595   3.073  12.433  0.0848  0.1943 -0.2812
12280W        W29127  13.035   3.473   2.753  0.0543 -0.2378  0.1276
12281W        W29128  13.094  18.586   2.138  0.3361 -0.3407 -0.2204
12282W        W29129  10.095  14.040  10.763  0.0274  0.1978 -0.0322
12283W        W29130  18.231   6.220   3.104  0.2218  0.1247 -0.0628
12284W        W29131   9.759   4.352  10.916  0.0047  0.0884 -0.1684
12285W        W29132   0.684  12.425  11.560 -0.2174 -0.3278 -0.3296
12286W        W29133   6.414  14.488  13.330  0.0935 -0.2831 -0.0516
12287W        W29134   9.050  16.832  11.279  0.0178 -0.0401  0.0878
12288W        W29135  19.197   7.363  10.645  0.0502 -0.3224 -0.1618
12289W        W29136   3.361   2.392  12.133 -0.6568  0.4884  0.2448
12290W        W29137   3.631  16.255  10.725  0.3032  0.2845  0.3986
12291W        W29138   4.044   7.211   2.379  0.1866 -0.0516  0.2510
12292W        W29139   2.683   8.755  10.756  0.1119 -0.0730 -0.0514
12293W        W29140   4.161   9.142   9.752 -0.0282  0.1845 -0.1383
12294W        W29141   9.127   3.294   2.546 -0.0918  0.0154 -0.0471
12295W        W29142   1.069   1.563  10.662 -0.0823  0.1493 -0.2109
12296W        W29143   5.887   0.005   3.763  0.1527 -0.2694  0.0881
12297W        W29144  17.399   4.039  10.149 -0.1552  0.0208 -0.1025
12298W        W29145  12.691   6.434   1.592  0.4156  0.1083  0.2917
12299W        W29146   3.406  13.996   9.628 -0.0572  0.1836  0.1777
12300W        W29147   6.742  18.942   4.555 -0.1236  0.1774  0.0924
12301W        W29148   6.169   8.689  12.566  0.0361  0.3021  0.1250
12302W        W29149  15.772  15.388   2.117 -0.3334 -0.0571  0.1948
12303W        W29150   6.927  15.855  13.061  0.1547 -0.2370  0.0930
12304W        W29151  16.734  19.273   1.106 -0.5772 -0.0635 -0.3692
12305W        W29152  12.055   8.631   4.189  0.1478 -0.1744 -0.0514
12306W        W29153  19.207  12.090  14.259  0.0211  0.2439  0.0718
12307W        W29154  19.668   6.299   3.110  0.0960  0.1285 -0.0247
12308W        W29155  10.527   5.259   0.187  0.0495  0.2800  0.2129
12309W        W29156   2.879   4.715  10.918 -0.0195  0.0628 -0.0201
12310W        W29157   0.014   6.860  14.027  0.2746  0.0868 -0.2691
12311W        W29158   9.185   1.093  13.086 -0.0191  0.0721 -0.0533
12312W        W29159   0.578   9.025  12.300 -0.2606  0.0834 -0.0962
12313W        W29160  12.082   5.394  12.021  0.0946  0.0584 -0.0204
12314W        W29161  16.468  12.089   2.693  0.0059 -0.1790  0.0110
12315W        W29162   8.072  17.204  10.313  0.3341 -0.1507  0.1335
12316W        W29163   6.819   9.956   1.056  0.1084 -0.0095  0.5494
12317W        W29164  12.420  19.621   4.004 -0.1600  0.0940 -0.2323
12318W        W29165  18.803  12.928   3.963 -0.0437 -0.2670 -0.0328
12319W        W29166   0.171  19.565   0.628  0.3369 -0.4518  0.1442
12320W        W29167   0.848  11.447  11.139  0.0053  0.4851 -0.1405
12321W        W29168  19.428   7.049   0.681  0.0852 -0.1080 -0.2400
12322W        W29169  11.718  11.088   9.566  0.1032  0.0368  0.0369
12323W        W29170  12.602   5.334  11.975  0.0501 -0.2064  0.3154
12324W        W29171  17.259  17.237   1.123  0.1281 -0.0387 -0.3981
12325W        W29172  13.103   0.045   1.806  0.2675 -0.1935  0.1091
12326W        W29173  16.515  16.472   4.235 -0.3652  0.1365 -0.2327
12327W        W29174   8.393  18.683  12.151 -0.0122  0.3040 -0.1039
12328W        W29175   0.878   5.138   9.270  0.2537 -0.2716  0.2897
12329W        W29176  12.759   4.953   2.972  0.1555  0.0952 -0.1671
12330W        W29177  14.762  10.035  13.895 -0.1958  0.1486  0.2855
12331W        W29178  16.863  16.396   0.122 -0.0393  0.0567  0.0720
12332W        W29179  18.904   7.982  11.902 -0.4875 -0.0155  0.0552
12333W        W29180  12.064   6.686  10.448 -0.1877  0.0034  0.0542
12334W        W29181   1.474   7.223   0.831  0.0630  0.1283  0.1767
12335W        W29182  18.265   2.819   2.975 -0.0821  0.0071 -0.0445
12336W        W29183  15.993  15.527  10.454  0.3332  0.2320  0.0756
12337W        W29184   0.384  14.627   3.688 -0.0738 -0.2677  0.0903
12338W        W29185  10.399  16.493  13.726  0.0283  0.0071  0.3344
12339W        W29186  12.124  19.048  10.398 -0.1638 -0.0742  0.0777
12340W        W29187   6.155   0.527   0.047 -0.1275 -0.2764  0.1667
12341W        W29188   0.395   8.865   0.644 -0.0033 -0.0152 -0.1501
12342W        W29189   1.219   1.084   3.904  0.1519 -0.0232  0.3315
12343W        W29190   8.630   8.703   1.197  0.1087  0.0220 -0.0005
12344W        W29191   4.793  17.799  10.200  0.2090  0.0853  0.1819
12345W        W29192   7.856   0.902  12.094 -0.0059  0.1733 -0.0952
12346W        W29193   5.210   4.612   5.061 -0.0338  0.1045 -0.1916
12347W        W29194   6.065   1.043   0.637 -0.0711  0.0578 -0.0167
12348W        W29195   6.151  18.880   2.273  0.0574 -0.1782  0.0567
12349W        W29196  14.469   2.467   9.956  0.2068  0.1721  0.3063
12350W        W29197  19.602  13.477   0.526  0.0060 -0.0150  0.1158
12351W        W29198  10.627   4.536  11.406 -0.2641  0.0199 -0.0817
12352W        W29199  15.374  10.037   2.934 -0.2534 -0.1257 -0.0076
12353W        W29200  19.385   8.260   5.179 -0.2094 -0.2735 -0.0352
12354W        W29201  18.230   4.237   3.397 -0.0673 -0.1105  0.0482
12355W        W29202   0.705  18.010   4.049  0.0607 -0.1597  0.1900
12356W        W29203   9.143   7.568   0.358  0.0004  0.3342  0.0072
12357W        W29204  17.206  17.987  10.634 -0.2284  0.0857 -0.1226
12358W        W29205   9.735  12.717  10.303 -0.3576  0.1067 -0.2697
12359W        W29206  13.403   0.038  11.841 -0.1047 -0.0027 -0.2094
12360W        W29207  10.484  19.274  13.477 -0.0016 -0.1480  0.2210
12361W        W29208  13.346   9.611   3.026 -0.0291  0.1777 -0.1377
12362W        W29209   2.189   1.473  11.007 -0.3713  0.0399 -0.2083
12363W        W29210  12.827   9.560   3.058 -0.1477 -0.0702  0.0704
12364W        W29211  18.915   2.862   5.112 -0.1457  0.1640 -0.0542
12365W        W29212   0.304   9.548  11.544  0.4051  0.0841 -0.3907
12366W        W29213   4.831  16.363  13.186 -0.0314  0.5384  0.1980
12367W        W29214  14.835   5.810  12.583 -0.0999  0.2629 -0.1732
12368W        W29215   5.532  13.327   2.212  0.0991 -0.2242 -0.3503
12369W        W29216   1.661   0.956  12.396  0.2710  0.0049  0.0661
12370W        W29217   5.538  15.652  13.728  0.1834 -0.0017 -0.1393
12371W        W29218  19.798  11.641   2.023  0.3042  0.0550  0.2068
12372W        W29219   5.990   2.819  13.335  0.1544  0.0362  0.0109
12373W        W29220   8.630  11.599  12.041  0.2414 -0.1680 -0.0062
12374W        W29221  19.208   7.961  12.389  0.1878 -0.1047 -0.0108
12375W        W29222   1.655   5.163  11.981 -0.1535 -0.0145 -0.1374
12376W        W29223   1.009  14.840   9.665  0.0609  0.0860  0.1197
12377W        W29224  14.416   9.030   2.806 -0.3207 -0.2024 -0.1487
12378W        W29225   9.088   1.956   2.686 -0.2279  0.0669  0.0596
12379W        W29226  19.396   0.969   2.703 -0.0572  0.3047  0.2824
12380W        W29227  12.667   1.580   0.525  0.1168 -0.0112 -0.0917
12381W        W29228   0.717  17.232  12.955 -0.0203 -0.0697  0.4144
12382W        W29229  12.547   4.898  13.273 -0.1577 -0.1962 -0.0874
12383W        W29230  15.089  16.957   2.370 -0.1219 -0.3993 -0.1561
12384W        W29231  13.708  17.929  11.099  0.1417  0.1385 -0.1919
12385W        W29232  16.006  14.135  10.116  0.0354 -0.2669 -0.3053
12386W        W29233   7.383  14.299   4.513  0.1274 -0.3545 -0.0418
12387W        W29234   3.141   4.477  13.795  0.0467 -0.2760  0.0868
12388W        W29235   4.850  17.637   4.458 -0.4198 -0.1667 -0.1624
12389W        W29236   8.269   3.800   4.250  0.0662 -0.0539  0.3703
12390W        W29237   0.364  14.582   0.885 -0.0334  0.0375  0.1201
12391W        W29238  14.831  16.177  10.808 -0.2774 -0.0971  0.1424
12392W        W29239   2.714   4.357  13.327 -0.0194  0.2945 -0.2427
12393W        W29240   3.509  15.108   0.985 -0.0072  0.3266  0.2586
12394W        W29241   5.516   2.311   4.165 -0.0409  0.3644 -0.2661
12395W        W29242  19.189  14.738  10.197  0.2407  0.2043  0.1200
12396W        W29243  19.579   8.740   2.823 -0.4457  0.0993 -0.1489
12397W        W29244  19.793  10.281  13.028  0.0545  0.0673 -0.0037
12398W        W29245   1.041  19.841   9.735 -0.0827  0.2832 -0.0072
12399W        W29246  10.630  17.624   4.544  0.0371 -0.2728  0.1309
12400W        W29247   3.043   5.067  13.948 -0.2074 -0.4648 -0.1464
12401W        W29248  10.631   4.399  11.915  0.1679  0.1534 -0.2047
12402W        W29249   6.799  13.943   2.826 -0.2049 -0.0624  0.1547
12403W        W29250   8.796   8.746  12.102 -0.1518  0.3511  0.0945
12404W        W29251  10.930   3.029  10.734 -0.0138  0.0305 -0.0395
12405W        W29252  14.956   9.968   1.714 -0.1738 -0.0969  0.1627
12406W        W29253   2.031  18.341   3.435  0.2782  0.3921 -0.1289
12407W        W29254   1.099  12.266   5.074  0.1148 -0.0697  0.2268
12408W        W29255   2.582   8.462  11.704  0.1582  0.0764  0.2243
12409W        W29256  18.330  12.854   1.738  0.1730  0.2296  0.4513
12410W        W29257  12.602  17.830  12.035  0.1669 -0.0665  0.2120
12411W        W29258   7.759   7.733   1.123  0.1553 -0.1028 -0.2965
12412W        W29259   4.562   7.263  12.413 -0.0665  0.1457  0.0478
12413W        W29260   7.128  14.216   9.680  0.2117 -0.1829  0.1916
12414W        W29261  10.205   6.431  12.155 -0.4792  0.1977  0.2648
12415W        W29262  11.037   1.524   9.967 -0.2816  0.0155 -0.3761
12416W        W29263  16.093   6.365   5.594 -0.2255  0.2226  0.1091
12417W        W29264  14.317  16.708  11.133 -0.0037 -0.0057  0.0141
12418W        W29265  13.765   8.501  13.506 -0.3568  0.2331 -0.0970
12419W        W29266   0.414  10.629  13.803 -0.1362 -0.3811 -0.1664
12420W        W29267   6.807   7.909  10.480 -0.1819  0.1944  0.1003
12421W        W29268   8.390   5.462  12.288  0.1254  0.2647 -0.1710
12422W        W29269   6.553   9.004   9.632  0.1297  0.2301  0.1683
12423W        W29270  19.048  18.806   0.526  0.0921 -0.0625 -0.1031
12424W        W29271  18.704  17.528   2.361 -0.1787 -0.1297  0.0763
12425W        W29272   1.317  17.757   9.880 -0.3091  0.1382  0.0546
12426W        W29273   3.719  11.015   3.526  0.1501  0.4903  0.2087
12427W        W29274  11.662   1.438   3.392 -0.0739 -0.1345  0.0355
12428W        W29275  13.560   7.122  14.025 -0.0226  0.0150 -0.2627
12429W        W29276  11.395  17.307   2.505 -0.1703  0.2419 -0.0277
12430W        W29277   8.904   7.021   3.053 -0.1870 -0.0683 -0.1507
12431W        W29278  15.723   4.965  11.449 -0.0245 -0.3973 -0.1054
12432W        W29279   2.226   3.711  13.277  0.4545 -0.0538 -0.1817
12433W        W29280   4.796  12.732   0.415 -0.1409 -0.0789 -0.2198
12434W        W29281   1.294   7.361   3.036 -0.0360  0.0626  0.0675
12435W        W29282  17.150   0.937   0.161  0.0899 -0.3763  0.2867
12436W        W29283   4.105   3.204  12.025 -0.0478  0.0035 -0.2464
12437W        W29284   4.882   9.740   1.066 -0.0099 -0.1175 -0.1544
12438W        W29285   6.599   8.158  13.036 -0.1949 -0.2557 -0.1499
12439W        W29286  13.678  10.893   2.222 -0.5470  0.0797 -0.1665
12440W        W29287  16.858   7.694   5.145 -0.0657  0.0492 -0.2146
12441W        W29288  11.867   4.816  12.212 -0.0710  0.2700  0.1510
12442W        W29289   6.229   0.154  10.633 -0.1868 -0.1043  0.2148
12443W        W29290   8.592  12.078   1.944 -0.0815  0.1072  0.2192
12444W        W29291   5.484   5.573   3.728 -0.0929  0.1093  0.0271
12445W        W29292   1.412  16.809   1.176 -0.0929 -0.0005  0.0955
12446W        W29293  11.278  10.027  11.769 -0.0109  0.2260 -0.1418
12447W        W29294   4.631  18.776   1.489 -0.3242  0.0329 -0.0408
12448W        W29295   3.637  15.078   2.911  0.0326  0.1001  0.1252
12449W        W29296   5.475  10.007   2.233  0.0243  0.0619  0.0100
12450W        W29297  12.116   2.829  12.641 -0.3052  0.0920  0.0174
12451W        W29298   9.818  15.880   2.037 -0.0456  0.2118 -0.0734
12452W        W29299   6.007   3.091   2.865 -0.2591  0.0890  0.2033
12453W        W29300   6.041  17.109   9.793  0.2364  0.0133 -0.2330
12454W        W29301  10.267   1.772  13.696 -0.0160  0.0063  0.0186
12455W        W29302   0.141   0.162  13.938  0.0184 -0.0289  0.1246
12456W        W29303  16.422   2.940   0.553  0.2242  0.3694  0.0084
12457W        W29304  14.235  17.776  10.170  0.1955 -0.0318 -0.0924
12458W        W29305   5.660   6.626  10.118 -0.0861 -0.0548  0.3260
12459W        W29306  14.276   7.085  14.018 -0.2578 -0.0016  0.1918
12460W        W29307  15.720   5.759  12.006  0.1338 -0.1564 -0.2763
12461W        W29308  18.999   9.053   4.602 -0.0135  0.1709 -0.2598
12462W        W29309   3.321  19.925   9.826  0.0087  0.1251  0.2491
12463W        W29310  10.956  18.003  12.929  0.0403  0.0434 -0.2399
12464W        W29311   6.254   3.445   4.319 -0.0481  0.1036 -0.0898
12465W        W29312  19.849   3.933  12.668  0.1695 -0.2256 -0.1269
12466W        W29313   2.712  11.547  11.415  0.1621  0.0008  0.1325
12467W        W29314   1.710  10.313  13.952 -0.1917 -0.1571 -0.2416
12468W        W29315  13.366  19.073   2.583 -0.2253 -0.0154 -0.0859
12469W        W29316  10.072  11.651  14.161  0.1083  0.3068  0.2839
12470W        W29317  14.382   5.116  11.680 -0.1547 -0.0352  0.0250
12471W        W29318  19.187  17.245  12.899  0.2957  0.1051 -0.0403
12472W        W29319  16.988  15.936   3.061 -0.0152 -0.0964 -0.0311
12473W        W29320  15.349   4.517   4.136 -0.1137  0.1194  0.1560
12474W        W29321   8.319  18.041  12.760  0.0033 -0.0883 -0.2027
12475W        W29322   6.229  13.904   0.226  0.1121  0.0623  0.0009
12476W        W29323  16.531   2.446  14.195 -0.1349 -0.0063 -0.0221
12477W        W29324  12.950   3.643   4.582 -0.2030  0.0271 -0.0787
12478W        W29325  10.979   4.423   3.329  0.2709 -0.2411 -0.1393
12479W        W29326  18.419   9.756  13.828 -0.0148  0.1407  0.0487
12480W        W29327  12.359  11.992  10.321 -0.0611 -0.0282  0.1765
12481W        W29328   3.425  19.763  13.503 -0.2450 -0.1502 -0.3604
12482W        W29329   8.970   3.342   3.522  0.0246 -0.2590 -0.1541
12483W        W29330  16.217   2.736   4.413  0.0378 -0.0440  0.0447
12484W        W29331   7.377  16.622  10.908  0.0489 -0.4062  0.1226
12485W        W29332   2.679   8.356  14.189 -0.0675  0.1459 -0.2876
12486W        W29333   4.064   2.855   9.606  0.0203  0.1723  0.1098
12487W        W29334  18.649   0.761   1.310 -0.0197 -0.0683 -0.0259
12488W        W29335   5.884   3.759   0.278 -0.0163 -0.1278  0.0242
12489W        W29336   0.362   1.098   4.822 -0.2346 -0.5585 -0.5525
12490W        W29337   2.796   5.124   4.398  0.0252  0.1820 -0.2284
12491W        W29338  11.969   6.666   0.674  0.1040  0.1092 -0.2240
12492W        W29339   2.910   1.452   2.068  0.0071 -0.0999  0.0027
12493W        W29340  14.011   0.678  11.461  0.0220 -0.0591 -0.0842
12494W        W29341  18.795   1.462  11.184 -0.0094 -0.1228 -0.2577
12495W        W29342   8.530  10.790   1.637  0.1843  0.1751 -0.0807
12496W        W29343  11.039   5.829  13.126 -0.1516  0.2294  0.0296
12497W        W29344  19.197  15.982  12.789 -0.1626 -0.0491 -0.0612
12498W        W29345  15.113   8.104   2.000  0.0374 -0.0209  0.1545
12499W        W29346   8.050  14.209  10.041 -0.2078  0.2992  0.0371
12500W        W29347  15.165   4.764   2.485 -0.1818 -0.0126  0.0606
12501W        W29348  12.736  11.576  11.464 -0.1032  0.0354 -0.0035
12502W        W29349  13.505   3.872  12.723 -0.2337  0.1701  0.3252
12503W        W29350  14.706   6.938  11.928  0.0057  0.0181 -0.0397
12504W        W29351  17.145  17.399   0.670 -0.0739 -0.1017 -0.0780
12505W        W29352  11.781  19.226   2.431  0.2169 -0.1288 -0.4289
12506W        W29353  14.143  11.536  11.707  0.0700 -0.0208 -0.0316
12507W        W29354  19.307   3.313  11.726 -0.0762  0.0257 -0.0966
12508W        W29355  15.629   5.529   0.311  0.4255  0.0062 -0.1014
12509W        W29356   1.757  12.622   1.312 -0.0776 -0.3160  0.0556
12510W        W29357   3.216   0.291  13.551 -0.1578  0.1522 -0.2531
12511W        W29358   8.384  15.941   3.992  0.0774  0.0630  0.2416
12512W        W29359   2.958   4.086   1.036 -0.0871 -0.0868  0.1294
12513W        W29360   2.793   3.056   2.802 -0.2208 -0.0746  0.0953
12514W        W29361   7.947   0.053   4.746 -0.2086 -0.1643  0.0243
12515W        W29362   3.523  12.448   0.045  0.1690  0.3344  0.3165
12516W        W29363   2.290  14.154   4.480 -0.0514  0.0065  0.1509
12517W        W29364  14.233  13.293  11.678  0.2337 -0.0340 -0.1334
12518W        W29365   2.935   9.931  11.102 -0.2541  0.3149  0.0032
12519W        W29366   0.633  19.372  12.227 -0.0522  0.1611  0.6380
12520W        W29367   3.561   5.706  11.067 -0.0520 -0.3398  0.0908
12521W        W29368   2.604  15.052   3.615 -0.0992 -0.2757 -0.1737
12522W        W29369   4.312  17.061  11.866  0.1266 -0.1322  0.0838
12523W        W29370   9.373  19.273   2.613 -0.2498  0.1149 -0.0792
12524W        W29371  12.393  18.465   5.278 -0.0015  0.1074  0.0763
12525W        W29372  14.285  12.369   1.732  0.0154  0.1578 -0.2559
12526W        W29373  14.731  12.091  11.232 -0.2174  0.3023 -0.1396
12527W        W29374  14.248  17.523   5.542  0.1082 -0.0261  0.3922
12528W        W29375  16.178  11.670   2.575 -0.0943  0.2006 -0.1481
12529W        W29376   4.312  15.581  13.261 -0.4536  0.1584  0.0951
12530W        W29377  12.545   3.398   2.867 -0.4312  0.1232 -0.0308
12531W        W29378  11.191   0.631   1.389 -0.0739  0.3337  0.0377
12532W        W29379  13.116   7.015  11.863 -0.2466  0.2046 -0.3581
12533W        W29380  17.193   9.874  10.584  0.1595  0.1433  0.1614
12534W        W29381   7.189   5.488   4.953 -0.2059  0.3015  0.0394
12535W        W29382  11.824   7.367  10.667  0.2340  0.0368 -0.1760
12536W        W29383  16.366   1.183  12.603 -0.0759 -0.3600  0.0128
12537W        W29384   9.843  11.650   4.583  0.1818 -0.0416  0.4125
12538W        W29385  15.109  12.989   0.461 -0.3564 -0.3346  0.2323
12539W        W29386  10.044   2.089   1.777  0.0895  0.1220  0.3608
12540W        W29387  18.086   1.288  13.929 -0.0746 -0.0312 -0.0260
12541W        W29388  17.589   8.801   0.426 -0.0403  0.1804 -0.1763
12542W        W29389   3.885  15.659  14.044 -0.4103 -0.0657 -0.0368
12543W        W29390  19.151   5.369   3.940 -0.1405  0.1705 -0.0883
12544W        W29391   6.252  19.398  12.202 -0.1187  0.1259 -0.1031
12545W        W29392   4.852   4.386   9.116  0.4027 -0.0789  0.1002
12546W        W29393  16.913   5.897   3.000 -0.0957 -0.1464  0.0792
12547W        W29394  14.960  18.052   1.120 -0.0764  0.2526  0.0921
12548W        W29395  16.434  15.617  13.739  0.0286 -0.3718 -0.0156
12549W        W29396  17.296  16.175   4.026  0.4019  0.1886 -0.0045
12550W        W29397   3.590   4.092  13.088  0.1575 -0.0336  0.2918
12551W        W29398  11.682   3.147   2.425  0.0275  0.2920 -0.4036
12552W        W29399  14.006  15.904  10.582  0.0065  0.2859 -0.0424
12553W        W29400  11.782  11.908  11.559  0.3025 -0.2279 -0.0929
12554W        W29401  11.960  15.230   3.779 -0.0035  0.2680  0.0893
12555W        W29402   2.149  13.396  11.045 -0.1894  0.2549 -0.2612
12556W        W29403   1.120  15.917   2.408 -0.3009  0.1477 -0.0796
12557W        W29404   5.150  11.345  11.610 -0.2082 -0.0154  0.5078
12558W        W29405  15.751  15.110   0.828 -0.0337  0.1144 -0.0609
12559W        W29406   8.374   6.993  13.727  0.1476  0.2833  0.1206
12560W        W29407   8.599  12.700  10.442  0.3187 -0.4051 -0.0024
12561W        W29408  16.670   4.150  12.207 -0.1548 -0.2639  0.3206
12562W        W29409  13.824   0.697   4.652  0.0209  0.2153 -0.2673
12563W        W29410   5.411   4.843   2.184  0.0823  0.2372 -0.2935
12564W        W29411  16.171  13.863   3.509 -0.3153  0.0241  0.5850
12565W        W29412  18.388  16.629  13.649  0.3207  0.4306  0.0029
12566W        W29413   1.305  11.308  11.343  0.0081  0.1163  0.1895
12567W        W29414   3.465   9.833  13.636  0.0636  0.4195 -0.1154
12568W        W29415  17.892  14.658  13.727 -0.1995  0.1894 -0.1048
12569W        W29416  19.875   8.464   2.203  0.1732  0.0607 -0.1346
12570W        W29417  19.497  19.755  12.432 -0.0310  0.2576 -0.0507
12571W        W29418  19.164   8.220   0.491  0.1504 -0.0987  0.0125
12572W        W29419  18.712  12.457   0.595  0.2173 -0.0286  0.2751
12573W        W29420  12.695   3.980   1.957  0.0791  0.2202 -0.0316
12574W        W29421   2.990  10.655   4.904 -0.2184  0.1600  0.0176
12575W        W29422   5.056  18.602  10.583  0.2971  0.2171  0.1226
12576W        W29423  12.826   6.856  12.842  0.2758  0.0619 -0.1205
12577W        W29424   0.768  14.322  13.757 -0.1094  0.1245 -0.1244
12578W        W29425  15.834   9.647   3.008 -0.1190  0.0982 -0.0996
12579W        W29426  14.581   3.430   4.572  0.1611  0.2351  0.0090
12580W        W29427  12.226   9.352   5.479 -0.1610  0.1302  0.0683
12581W        W29428  19.346  16.149  12.295  0.1942  0.0223 -0.2179
12582W        W29429   1.934   7.433   0.979 -0.2315 -0.1335 -0.5709
12583W        W29430   0.598  19.659   4.715 -0.0422 -0.1732  0.3095
12584W        W29431   4.699  11.977   1.505  0.3181  0.3085 -0.2962
12585W        W29432  19.435   1.585  13.532 -0.3269  0.1797  0.2812
12586W        W29433   3.552   7.784   5.347  0.3226  0.1160 -0.1534
12587W        W29434  10.415   5.814  11.499  0.2772  0.1568 -0.1613
12588W        W29435  11.145   1.144  10.401 -0.1391  0.1382  0.0572
12589W        W29436  19.581   7.544  13.732  0.1064  0.4551 -0.0049
12590W        W29437  10.035   3.861  10.951 -0.0547 -0.0596  0.0572
12591W        W29438   7.959   9.721  12.403 -0.2871  0.2020  0.1187
12592W        W29439  17.962  19.489  10.101  0.1183  0.0248 -0.1082
12593W        W29440   5.694   9.298  11.015 -0.0772 -0.1152  0.0564
12594W        W29441   6.646  12.539   2.633 -0.4202  0.0349  0.0126
12595W        W29442   5.704  11.850   0.576 -0.0515  0.1491  0.1762
12596W        W29443  15.713   1.020   0.208 -0.2279 -0.0235 -0.1746
12597W        W29444  12.381   4.202   1.368  0.0512  0.3131 -0.1672
12598W        W29445  12.857  15.450   3.247  0.0866 -0.1169 -0.3603
12599W        W29446   1.217  15.864  11.391 -0.0450 -0.2378 -0.0302
12600W        W29447  11.226   2.706  11.657 -0.0848 -0.0942 -0.0596
12601W        W29448   4.466   2.709  13.363 -0.1416 -0.1352 -0.3929
12602W        W29449   1.214   5.325  10.177  0.0333  0.1464 -0.0652
12603W        W29450  15.985  11.788  10.359 -0.1598  0.1264  0.1616
12604W        W29451  12.849  14.696   4.541  0.0898  0.1240 -0.1412
12605W        W29452  10.842  11.595   0.690  0.1815 -0.0888  0.1979
12606W        W29453  19.049   9.197   4.032  0.2476  0.1019  0.0613
12607W        W29454  11.119   8.385   0.544 -0.2614  0.1576 -0.0708
12608W        W29455   2.223   6.960   1.834  0.0801  0.1740  0.0584
12609W        W29456  18.300   8.107   1.044  0.2105 -0.1729 -0.4582
12610W        W29457   4.930  11.149  12.540 -0.0478 -0.0219  0.3310
12611W        W29458   2.769  11.108   3.735  0.2692 -0.0504  0.2142
12612W        W29459  18.210  14.157   1.930  0.1465  0.1808  0.1600
12613W        W29460  12.497  17.474  11.442  0.2077  0.4372  0.2043
12614W        W29461   9.424   6.684   0.758  0.0199  0.3141  0.1608
12615W        W29462   1.446  17.749  14.096  0.2065 -0.0976 -0.1322
12616W        W29463   4.707   1.182  13.158  0.1764 -0.0751 -0.0674
12617W        W29464  19.523  19.816  14.257 -0.1331  0.2650 -0.3515
12618W        W29465   6.475   6.006  14.267 -0.1900  0.0989 -0.1421
12619W        W29466  11.782  13.654  11.031 -0.1162 -0.2998 -0.2218
12620W        W29467   7.312  16.879   9.509 -0.1869 -0.0623 -0.1856
12621W        W29468   3.419   9.385   4.046  0.2277 -0.1596 -0.1783
12622W        W29469   4.997  14.843  11.787  0.0955  0.1518  0.3466
12623W        W29470  13.561  16.051   2.335  0.0933  0.1245 -0.1867
12624W        W29471   3.423   4.938  13.499 -0.0337  0.3416  0.1716
12625W        W29472  19.667   2.496  14.049 -0.0070  0.2019  0.1103
12626W        W29473  17.938  13.841   2.514 -0.4691 -0.0700 -0.2379
12627W        W29474  10.131   8.007  10.466 -0.0651 -0.2215  0.4606
12628W        W29475  12.348   9.695   1.401 -0.1016  0.1545 -0.1489
12629W        W29476   6.670   1.467  12.205 -0.2493 -0.2890  0.1863
12630W        W29477   0.166   4.340  10.265  0.1975 -0.2738 -0.1385
12631W        W29478  16.576   1.806  12.199 -0.0334 -0.0185 -0.0050
12632W        W29479   8.632  11.436   1.694  0.2004  0.0078 -0.0188
12633W        W29480  19.900  11.516  13.890 -0.3629  0.1565  0.0192
12634W        W29481  18.474  12.302  11.482  0.2292  0.1973  0.3060
12635W        W29482   4.213  15.678  11.243  0.1901 -0.1208 -0.1032
12636W        W29483   5.454   4.860  11.773  0.1608 -0.2304 -0.1532
12637W        W29484   8.595   5.346   0.824 -0.2641 -0.0766 -0.2088
12638W        W29485   9.196  10.930   2.598 -0.4064  0.4103 -0.0094
12639W        W29486   9.412   5.183   4.496  0.0893  0.1170  0.3446
12640W        W29487  19.526   6.650   4.764 -0.1376  0.0501  0.1029
12641W        W29488   5.208  16.256   8.942  0.1688  0.1928  0.0322
12642W        W29489   8.581   3.424  13.733 -0.2032  0.0499  0.1669
12643W        W29490   6.879   1.490   3.700 -0.0824 -0.0850 -0.1020
12644W        W29491   4.299   5.259  11.960  0.0856  0.1666  0.4183
12645W        W29492   1.409   3.370  10.333  0.1042  0.0969  0.1703
12646W        W29493   9.545   7.723   1.885 -0.1669 -0.1080 -0.0610
12647W        W29494  14.525  13.509   2.012 -0.0375  0.1903  0.0740
12648W        W29495   4.269   6.680   3.517  0.1636 -0.1244 -0.0516
12649W        W29496   2.863  15.659   3.028  0.0383 -0.1086 -0.1107
12650W        W29497   2.721   8.403  12.214 -0.1271  0.2874  0.2170
12651W        W29498  14.334  15.195  14.091  0.1889  0.3063  0.3466
12652W        W29499  13.837   6.573  11.964 -0.2658  0.0506  0.0916
12653W        W29500  10.163  16.549   3.781  0.2701 -0.2495  0.0323
12654W        W29501   1.713  10.697  12.687 -0.1678  0.0631 -0.1842
12655W        W29502   1.251  14.333   1.760  0.0797 -0.3432  0.1550
12656W        W29503  14.980  11.953   5.079 -0.1492  0.0384  0.1532
12657W        W29504  10.692  18.884   4.796  0.0609  0.0641  0.0431
12658W        W29505  17.513  19.479  13.045 -0.0726 -0.0265 -0.0634
12659W        W29506  11.251  11.208  14.181 -0.1920 -0.1594 -0.0156
12660W        W29507  16.189   4.845   4.429  0.0120  0.0914  0.0841
12661W        W29508  16.463  17.863  10.691  0.0730 -0.3411  0.0422
12662W        W29509  19.133   4.077   2.149 -0.2667 -0.2092 -0.0515
12663W        W29510   4.690   9.233   0.239 -0.0050 -0.1558 -0.2162
12664W        W29511  13.559  13.382   1.366  0.0783  0.4452  0.0465
12665W        W29512  14.141   3.143   1.025 -0.4329  0.0068 -0.0467
12666W        W29513   2.172  17.473   1.363  0.1407 -0.1097 -0.0882
12667W        W29514  19.047  10.666   3.179  0.0647  0.0914 -0.1030
12668W        W29515   9.012  15.102  10.742 -0.1213  0.3109 -0.1743
12669W        W29516  10.382  14.691  10.894  0.0838 -0.2108  0.1846
12670W        W29517   9.719  13.960  10.134 -0.2417  0.1987 -0.0908
12671W        W29518   9.587  13.086  11.121  0.1957  0.0634 -0.0134
12672W        W29519   1.322   0.301   1.741  0.0771 -0.0376  0.0313
12673W        W29520  11.898   7.803   2.527 -0.1418  0.2898  0.4270
12674W        W29521   1.895  12.528  10.910 -0.1711 -0.0262 -0.0540
12675W        W29522   6.560  14.804   1.276  0.0027  0.4667 -0.4294
12676W        W29523  18.535  15.402  11.658 -0.0132 -0.1340 -0.0815
12677W        W29524   3.015  17.882   2.332  0.1466 -0.0787  0.3589
12678W        W29525  13.906   9.200  10.599 -0.1488  0.1608  0.2363
12679W        W29526  15.994  13.561   3.845  0.1932  0.1737 -0.3066
12680W        W29527   5.755   3.227   4.398 -0.0731 -0.0295  0.1077
12681W        W29528  17.085  15.570   0.149  0.0642 -0.1094 -0.0753
12682W        W29529   9.312  19.141  13.202 -0.1764 -0.0067  0.0652
12683W        W29530   9.275   3.915   3.977  0.0187 -0.1768 -0.0451
12684W        W29531  15.826   5.982   4.404 -0.1897  0.3247  0.1783
12685W        W29532   1.820  12.878   4.363 -0.1941 -0.3566  0.0553
12686W        W29533   4.322   0.553  13.741 -0.0936 -0.1254 -0.0694
12687W        W29534   4.987  13.672  10.180  0.0275  0.1545 -0.1002
12688W        W29535   8.512  17.264  11.318 -0.1903  0.2782 -0.0394
12689W        W29536   2.528  12.319  11.606 -0.1957  0.0233 -0.2214
12690W        W29537  18.923   8.712   1.869 -0.1543 -0.0210 -0.0812
12691W        W29538   4.464   4.234  11.397  0.0969  0.2516  0.1650
12692W        W29539   6.808   5.252  12.386 -0.0966  0.2764  0.0813
12693W        W29540  19.427   1.618   4.433  0.1978 -0.1860 -0.0298
12694W        W29541  13.126  10.817   0.185  0.1279 -0.3233  0.3237
12695W        W29542  18.347   7.174  12.023 -0.0507 -0.2802  0.3466
12696W        W29543   6.050   9.964   1.614 -0.5900  0.0777 -0.3089
12697W        W29544  19.251  16.610  12.312 -0.0683 -0.1728 -0.2003
12698W        W29545  15.543  14.450   2.745 -0.0115  0.0096 -0.1914
12699W        W29546  14.093  18.394   1.328 -0.3152 -0.1130  0.0266
12700W        W29547  11.530   1.130  12.874  0.0144 -0.0214 -0.0178
12701W        W29548  15.156  18.794  12.309  0.3053  0.0408  0.0856
12702W        W29549   9.800  12.191   4.725 -0.3457  0.0067 -0.1721
12703W        W29550  11.587   8.958  14.114 -0.1697  0.0716 -0.1300
12704W        W29551  14.307   1.490  11.365 -0.3379  0.0287 -0.1695
12705W        W29552   3.339   2.910  10.029 -0.0464 -0.1030  0.1125
12706W        W29553  17.009   7.175  13.065  0.0660 -0.2152  0.1470
12707W        W29554   5.786  13.160   4.726 -0.2577  0.0090 -0.0301
12708W        W29555   6.688  14.404  12.896  0.0541 -0.0103 -0.0593
12709W        W29556   5.482  13.958   0.447 -0.0908  0.0016  0.3026
12710W        W29557   7.149  19.853  10.540  0.0804 -0.1942 -0.0190
12711W        W29558  16.459   2.338  11.605  0.0069  0.0890  0.0496
12712W        W29559   8.924   3.646  12.839 -0.0638  0.1535 -0.0793
12713W        W29560   4.234  16.167  11.465  0.2476 -0.0577  0.1614
12714W        W29561   6.501   6.736  11.154 -0.1014  0.0450  0.1507
12715W        W29562  13.647  14.622  12.524  0.0755 -0.3427  0.1040
12716W        W29563   7.094   2.610   5.085 -0.0648 -0.0499  0.2572
12717W        W29564   0.588  18.482  10.146 -0.0453  0.0052  0.0943
12718W        W29565   3.943  17.056   1.231  0.0424  0.1502 -0.2238
12719W        W29566  17.307  17.995   2.853  0.1472 -0.1659  0.0379
12720W        W29567  19.878   9.159  12.608  0.2954  0.0916  0.0826
12721W        W29568   6.654  18.975  14.001  0.3852 -0.2646 -0.1050
12722W        W29569   0.885   1.720   2.127  0.0710 -0.1074 -0.1817
12723W        W29570  10.968  19.153  13.596 -0.1670 -0.1803  0.3083
12724W        W29571  16.498   4.107  11.730 -0.1495 -0.1436  0.0899
12725W        W29572   0.299   6.991  13.640 -0.1093 -0.3059 -0.0143
12726W        W29573   7.664  14.971   0.312  0.0183  0.3279 -0.2220
12727W        W29574  10.050  17.092   1.125 -0.0763 -0.0364  0.0316
12728W        W29575  13.757  18.135   1.653 -0.0699 -0.0969  0.2423
12729W        W29576  11.680  19.013   5.103  0.1736 -0.1370  0.0655
12730W        W29577   4.985   0.636  11.233 -0.0900  0.0578  0.0232
12731W        W29578  12.473  11.769  12.810  0.1065 -0.4185  0.1722
12732W        W29579  16.202  12.705  10.239  0.1265 -0.0519 -0.0970
12733W        W29580  15.435   1.743   3.956 -0.0415 -0.5357  0.4483
12734W        W29581   2.042   1.404  12.256 -0.3181  0.1372 -0.2217
12735W        W29582   4.889  15.615  13.898  0.0699 -0.0071  0.1833
12736W        W29583   5.795  10.744   1.257  0.3721  0.1071  0.0109
12737W        W29584  16.550  16.834  10.835  0.5258 -0.0299  0.0888
12738W        W29585  19.105   0.632  13.957  0.1586 -0.2257 -0.1846
12739W        W29586   5.965   8.565   3.521 -0.0461 -0.1757 -0.1809
12740W        W29587  16.333   1.179  12.029  0.0849 -0.1371 -0.0846
12741W        W29588   1.148  11.638   4.521  0.3398  0.1301 -0.0394
12742W        W29589  13.006  13.619  10.254 -0.0981  0.2631  0.0073
12743W        W29590  18.648   6.643  13.038  0.1451 -0.1787  0.3305
12744W        W29591  10.865  10.955   3.735  0.0530 -0.1935  0.0031
12745W        W29592  17.209   1.845  14.170 -0.0265  0.0729 -0.2069
12746W        W29593   1.002  11.852  10.163 -0.1031  0.0332  0.0527
12747W        W29594   9.933  17.365  13.086 -0.0942  0.2354 -0.0506
12748W        W29595   2.402   0.753   3.954 -0.1963 -0.0207  0.0226
12749W        W29596   4.465   7.278   8.729  0.0830  0.3434  0.2315
12750W        W29597   1.985  16.928  13.879 -0.3742  0.3037  0.0544
12751W        W29598  14.414   0.926   1.088 -0.1739  0.1682 -0.2374
12752W        W29599   4.009   6.713   1.832 -0.0359  0.2017  0.3341
12753W        W29600   0.667   8.189   0.817 -0.0978 -0.0461 -0.1733
12754W        W29601  11.024   9.402  11.797  0.0893 -0.3170  0.3136
12755W        W29602  12.566  16.477   0.997  0.0729 -0.1478 -0.1217
12756W        W29603   6.444  19.776   1.035 -0.0506  0.0284 -0.3393
12757W        W29604   7.833  12.127  13.172 -0.0960 -0.0762 -0.1523
12758W        W29605   5.399   3.050  13.564  0.1810  0.2279  0.0767
12759W        W29606  18.452   2.151   4.374 -0.1245 -0.1455 -0.0660
12760W        W29607  10.499   2.515   0.075 -0.0911  0.0085  0.3834
12761W        W29608  14.536   6.776  10.987  0.2678  0.1081  0.0743
12762W        W29609  13.085  10.767   9.301 -0.0320  0.0896 -0.0578
12763W        W29610   7.205   6.729  11.692  0.0604  0.1050 -0.3117
12764W        W29611   7.660  18.483   1.833 -0.1592  0.1158 -0.0292
12765W        W29612   5.416   3.602  10.392  0.0215  0.1903 -0.0024
12766W        W29613   3.544  16.760   9.455  0.2299  0.0044  0.2276
12767W        W29614   2.233  16.124   4.225 -0.1714 -0.1555 -0.0838
12768W        W29615   8.585   2.272   0.646  0.1589 -0.1106  0.2426
12769W        W29616  19.793  10.775   0.087 -0.1119  0.0293 -0.0559
12770W        W29617   1.402   1.338   2.516 -0.2194 -0.0892  0.0338
12771W        W29618   8.918   7.109  13.619 -0.1252 -0.1116 -0.3265
12772W        W29619  19.846   9.316  10.816  0.4080  0.0297 -0.2585
12773W        W29620   2.578   4.384  10.517  0.1331  0.0234 -0.0605
12774W        W29621   1.084  16.832  12.714  0.0141 -0.2105  0.1723
12775W        W29622  14.173   3.882   2.400  0.0285  0.2722  0.1100
12776W        W29623  10.430   5.345   9.693 -0.1041  0.1475 -0.1869
12777W        W29624   3.918   8.339   1.815  0.0876  0.0627 -0.0171
12778W        W29625  12.188   2.486   9.996  0.0824  0.0261 -0.0031
12779W        W29626   8.920   3.912  11.387  0.0945  0.0023  0.2514
12780W        W29627   4.624   4.516   1.676 -0.2033 -0.0774  0.1768
12781W        W29628  19.922  12.564  10.398 -0.2438  0.2113  0.0121
12782W        W29629   8.698   3.989  10.729 -0.2257  0.2226 -0.1219
12783W        W29630   4.592   9.668   4.525  0.1370 -0.1164 -0.3589
12784W        W29631   6.206   9.105   2.307  0.1215  0.0239 -0.4348
12785W        W29632   9.901  14.450  12.716 -0.4236 -0.1184 -0.2268
12786W        W29633   7.814  17.097   9.469  0.1350  0.0936 -0.0768
12787W        W29634  19.131  15.835   4.264  0.1055  0.1995  0.1435
12788W        W29635  15.095  18.774   3.358  0.0848 -0.1071  0.3376
12789W        W29636  15.746   0.659   1.817  0.0199  0.2676 -0.1028
12790W        W29637   0.367  16.351   3.322 -0.0385  0.2052  0.0878
12791W        W29638  12.006   5.677   3.059 -0.1115  0.1247 -0.0905
12792W        W29639  19.343   5.052   1.679  0.0582 -0.0756 -0.1473
12793W        W29640   8.342   3.695  14.159 -0.2702  0.0077  0.2486
12794W        W29641   2.638  10.210  10.716  0.1760  0.0109  0.2091
12795W        W29642  18.498   1.153   1.697 -0.3247 -0.1444  0.0400
12796W        W29643   6.351  18.475   3.175 -0.1125  0.6892 -0.1769
12797W        W29644  12.310   9.718   3.771  0.0665 -0.2861  0.0773
12798W        W29645   7.888   9.499  10.673 -0.0581  0.0694 -0.0464
12799W        W29646   5.697   2.553  10.229 -0.0803  0.0758  0.5456
12800W        W29647  19.658   5.218   0.492 -0.0951  0.3779  0.1107
12801W        W29648  19.391   1.215   2.147 -0.1140 -0.1322  0.1880
12802W        W29649  14.655  17.287  11.657  0.2126  0.2222 -0.0424
12803W        W29650  19.811  15.555   0.892  0.2195 -0.0346 -0.0608
12804W        W29651   7.706  10.443  13.875 -0.1102 -0.0308  0.0925
12805W        W29652  11.425   1.805   2.893  0.0905 -0.0214 -0.0962
12806W        W29653  13.382  14.703  13.648 -0.2145 -0.0532  0.0422
12807W        W29654  15.851  10.181  11.601  0.0165  0.0569  0.0481
12808W        W29655  18.334   5.538   0.603  0.0849 -0.1460 -0.1462
12809W        W29656   6.947   3.109  10.527  0.3251  0.0564 -0.4287
12810W        W29657   2.695  16.889  12.818  0.0050  0.0253 -0.0820
12811W        W29658   1.623  12.325   4.878 -0.1994  0.2338 -0.1660
12812W        W29659  15.408  10.507   2.921  0.0747 -0.1627 -0.1209
12813W        W29660   4.953  14.848  13.638 -0.1083 -0.0976  0.1687
12814W        W29661   4.226  13.371   1.442 -0.0950 -0.2303 -0.0284
12815W        W29662  16.298  19.148  11.594 -0.1629  0.0394 -0.0901
12816W        W29663   1.907   2.506  12.598  0.1614 -0.2717 -0.3271
12817W        W29664   3.230   7.449   2.688 -0.1344 -0.0390 -0.1437
12818W        W29665   4.506  10.346  14.124 -0.1246 -0.1521  0.0360
12819W        W29666   0.653  10.305  11.905  0.1876 -0.0157 -0.2504
12820W        W29667  14.964  18.676   1.841  0.2553 -0.1834  0.2937
12821W        W29668  11.325  17.770   2.772 -0.1783  0.1855 -0.1249
12822W        W29669   1.346  13.789  10.523  0.1089  0.0664  0.0891
12823W        W29670  17.884   3.127  13.775 -0.0964 -0.5413  0.0172
12824W        W29671   5.983   2.012   2.236 -0.0863  0.3766 -0.1450
12825W        W29672  15.983   2.571  14.010  0.2527  0.0988  0.0347
12826W        W29673  18.629  11.939  14.144 -0.3566  0.1046  0.3544
12827W        W29674   6.935  10.769   2.054 -0.0799 -0.0980 -0.1558
12828W        W29675   8.912  19.633  11.428  0.0637  0.5229 -0.2073
12829W        W29676  15.803  16.786   2.171  0.1440  0.0300 -0.0082
12830W        W29677  19.728   3.503   2.058 -0.3920  0.2575 -0.1531
12831W        W29678  11.124  14.300   0.286 -0.2813  0.0655  0.1221
12832W        W29679  18.428  13.704   0.766 -0.2934  0.0432 -0.0141
12833W        W29680  19.543  18.229   2.194 -0.1691 -0.2503  0.1136
12834W        W29681   5.066   4.546  10.402 -0.1856  0.1776  0.3943
12835W        W29682  11.650   2.170  11.741 -0.0253  0.1491 -0.3242
12836W        W29683   1.772   3.549   1.470 -0.3537 -0.4357  0.3197
12837W        W29684  13.440  17.497  11.171  0.2321  0.1982 -0.0782
12838W        W29685   0.931   4.285  11.277 -0.2501 -0.0554 -0.0629
12839W        W29686   1.003   1.092  11.567 -0.1540  0.0772 -0.0543
12840W        W29687  14.232  11.836   0.899 -0.1068  0.2752  0.1684
12841W        W29688   6.550  18.586  13.281 -0.0090 -0.0507  0.1781
12842W        W29689   0.753  13.104   4.263  0.1172 -0.1440 -0.1461
12843W        W29690  15.922   0.696  11.673  0.0694  0.1490 -0.1293
12844W        W29691   9.224  16.747  11.984  0.1511  0.3556 -0.0721
12845W        W29692  14.480   0.659  11.163  0.0847  0.2652 -0.0235
12846W        W29693  13.421   3.157   4.494 -0.3083 -0.0733  0.5874
12847W        W29694  10.194   8.194  12.855  0.4027  0.0466 -0.0172
12848W        W29695  19.084  12.808   0.737  0.3403  0.2757 -0.0774
12849W        W29696   4.390   8.487  10.795  0.1481 -0.1290 -0.1253
12850W        W29697   4.626   2.595   1.749 -0.1036  0.2695  0.0153
12851W        W29698  18.010   8.866   0.856 -0.0701 -0.1567 -0.0028
12852W        W29699   5.219  10.527   0.561  0.1892 -0.0013 -0.1400
12853W        W29700  10.821   0.171  11.614 -0.3590  0.1416  0.1967
12854W        W29701   8.571   7.470  11.271  0.1464  0.1434 -0.1049
12855W        W29702   1.713  12.843   5.136  0.3314  0.0597 -0.2621
12856W        W29703   2.280  15.249   2.262  0.1727  0.1032 -0.2623
12857W        W29704   0.951   0.865   0.706  0.0854 -0.2241 -0.0309
12858W        W29705   7.334   7.345   3.978 -0.1896  0.0255 -0.0917
12859W        W29706  19.261   0.461   4.786  0.4844 -0.0800 -0.0883
12860W        W29707   0.934  18.958  10.327  0.0783 -0.1240 -0.1477
12861W        W29708  10.859   7.429   4.746 -0.0006 -0.0669 -0.1189
12862W        W29709   9.621   8.499   0.250  0.2586 -0.2651 -0.0331
12863W        W29710   5.308   5.156   2.619 -0.1880  0.0975 -0.0461
12864W        W29711   6.654   9.816  10.347 -0.3095 -0.0599  0.2254
12865W        W29712  12.465  14.348   5.311 -0.0960  0.0999 -0.3320
12866W        W29713   4.274  10.260   3.222 -0.3640 -0.2352  0.1973
12867W        W29714   8.136   1.587   9.983  0.0110  0.3299  0.0472
12868W        W29715   4.246  12.774   2.630  0.1055  0.3408  0.2548
12869W        W29716  11.076   2.613   2.097 -0.3791 -0.0639 -0.0272
12870W        W29717   3.732  12.896   3.277 -0.0111  0.1883 -0.3346
12871W        W29718   8.266   4.528  10.139  0.1219 -0.3351  0.1450
12872W        W29719  12.358   4.816   2.059  0.0577 -0.5353  0.0636
12873W        W29720   8.765  14.225   2.595  0.2521 -0.0080 -0.0521
12874W        W29721  19.547   3.784  11.271  0.3751 -0.0550 -0.0750
12875W        W29722  14.949   5.709   4.650 -0.3366 -0.0012  0.0081
12876W        W29723  18.522   1.768  12.738  0.3585 -0.0756 -0.0695
12877W        W29724   6.869  16.633  10.284 -0.0211  0.4754  0.0157
12878W        W29725   4.611   4.092   4.305 -0.1485 -0.2282 -0.2074
12879W        W29726  12.645  19.863   9.975 -0.0304  0.0593  0.3500
12880W        W29727  12.257   8.085  11.248  0.3295 -0.0439 -0.2300
12881W        W29728   7.489  15.509   1.280  0.0534  0.3046 -0.2730
12882W        W29729  12.648   8.136  11.507  0.3150  0.1788  0.3406
12883W        W29730  14.470  12.147  12.391 -0.2220  0.1208  0.4707
12884W        W29731   9.603   9.374  12.445  0.1349  0.3431  0.0952
12885W        W29732   5.626  13.832   3.896  0.2872  0.1556 -0.2898
12886W        W29733   9.698  13.233   0.507  0.1238 -0.2570 -0.0039
12887W        W29734   7.561   6.654   2.271  0.0038 -0.1239  0.0454
12888W        W29735   2.180   5.783   3.610 -0.1483  0.0593 -0.1630
12889W        W29736   3.357   6.388   1.123  0.2013  0.0672 -0.0387
12890W        W29737   7.965  17.613  12.021  0.0001 -0.0663 -0.0488
12891W        W29738   0.380   6.059   1.305  0.1152  0.1015  0.2185
12892W        W29739  13.231  16.867   4.579  0.4370 -0.0537  0.0139
12893W        W29740   7.929   4.522  13.788 -0.0296 -0.1604  0.1068
12894W        W29741   7.363   4.175   9.813  0.0516 -0.1252  0.0596
12895W        W29742   9.870   1.307   1.360 -0.1421  0.1026 -0.2510
12896W        W29743   2.297  11.510  13.703  0.1049  0.2155 -0.1076
12897W        W29744  16.034  14.807  10.992 -0.0191  0.3571  0.2552
12898W        W29745  18.628  15.301   1.317  0.1324 -0.0882 -0.0469
12899W        W29746   4.175   4.276  13.678  0.4638 -0.2194  0.0474
12900W        W29747   0.669   4.469  13.703 -0.0824 -0.1391 -0.1416
12901W        W29748  10.074   3.753  11.804 -0.1696 -0.0100  0.2402
12902W        W29749   1.798  10.368   0.165  0.0367  0.0453  0.0643
12903W        W29750   7.731  14.293  13.856 -0.0049  0.0403 -0.4326
12904W        W29751   2.669   9.628  13.961  0.0472  0.1106 -0.1321
12905W        W29752   6.195  12.751   2.747 -0.2578  0.0075  0.1536
12906W        W29753  11.998  16.549   1.502 -0.1624  0.0816  0.0120
12907W        W29754  14.821   2.668   2.732  0.0466 -0.1594  0.1749
12908W        W29755  14.246  12.577   3.554 -0.0090 -0.0826 -0.1053
12909W        W29756   2.678  12.119   2.237  0.2297  0.1258  0.3140
12910W        W29757   1.680   7.995  12.638 -0.3539  0.2876 -0.1379
12911W        W29758   0.327  12.861   4.090  0.0233  0.0184  0.3947
12912W        W29759  13.124   5.192   4.560  0.4458 -0.0713  0.2232
12913W        W29760   5.128   2.535   1.848 -0.1325 -0.2011  0.2831
12914W        W29761   8.770   7.952   0.145 -0.2306 -0.2000  0.1451
12915W        W29762   8.787  16.549  10.674  0.0706 -0.0607 -0.2584
12916W        W29763  17.673   8.608  14.280  0.0033 -0.0600 -0.0703
12917W        W29764  12.361  18.709   1.294 -0.3936 -0.1292 -0.0784
12918W        W29765  16.743  13.330   1.970 -0.1461 -0.1228  0.0465
12919W        W29766  12.068  19.096  12.705 -0.4091  0.1639  0.3947
12920W        W29767  14.387   6.152   4.156  0.0919 -0.2960  0.3487
12921W        W29768   1.320   8.126  10.785 -0.1537 -0.1639  0.2904
12922W        W29769   6.177  18.894  13.246  0.0809  0.0637  0.3561
12923W        W29770  16.386  18.730  13.340 -0.0838  0.0112  0.2678
12924W        W29771   7.107   0.722   3.116 -0.0193 -0.2458  0.0164
12925W        W29772  12.252   7.015   0.847 -0.0752 -0.3651 -0.6319
12926W        W29773   5.234   5.097  13.786  0.0972 -0.2589 -0.2495
12927W        W29774  16.739  16.388  12.768 -0.1868 -0.0487 -0.0140
12928W        W29775   7.937  16.385  10.065  0.0065 -0.1164  0.2197
12929W        W29776  17.350   6.184   2.868  0.1063 -0.1579 -0.0798
12930W        W29777   9.249   8.908  14.197 -0.0731 -0.0256  0.1960
12931W        W29778  11.706   8.254  10.480  0.4656  0.0006 -0.0445
12932W        W29779  13.819   7.806   9.592  0.0996 -0.0844 -0.2100
12933W        W29780   1.507  18.784   3.338  0.1862 -0.2016 -0.0437
12934W        W29781  18.133  15.201   3.090 -0.0552 -0.2524 -0.0381
12935W        W29782  16.727  13.742   5.555  0.3528  0.0088 -0.0703
12936W        W29783   9.750   3.095  11.614 -0.1499 -0.2619 -0.0911
12937W        W29784  18.422  11.635   2.409 -0.1467 -0.0864 -0.2027
12938W        W29785   7.333  10.454   4.807  0.1666 -0.0708  0.0793
12939W        W29786   2.241  16.879   1.366  0.3118  0.1598  0.1530
12940W        W29787  13.075  14.981  13.313 -0.2491  0.0865  0.1748
12941W        W29788   0.428   6.861   1.736  0.0239 -0.0342  0.3475
12942W        W29789   4.882  10.176   9.979 -0.2698  0.1269 -0.1281
12943W        W29790  13.407   6.741   8.864 -0.0725 -0.1524  0.0229
12944W        W29791  13.741  10.799  13.765  0.0835  0.1602  0.0541
12945W        W29792  11.568  17.764   0.892  0.1608 -0.0832  0.2887
12946W        W29793  11.399   8.841   4.064  0.0587  0.4708 -0.1021
12947W        W29794   9.095  10.512  11.848 -0.1435 -0.0419 -0.2420
12948W        W29795   1.033  16.955   3.664 -0.1136  0.0852 -0.0286
12949W        W29796  12.329  14.904   0.666 -0.2318  0.1438 -0.1551
12950W        W29797   5.362   2.222  12.176 -0.1971  0.1541 -0.2253
12951W        W29798  17.959  12.761   0.835  0.0165 -0.0748 -0.3113
12952W        W29799  10.667  12.252   1.285  0.0415 -0.0178  0.1127
12953W        W29800  19.670   8.080   3.930  0.1581  0.4832 -0.1417
12954W        W29801   3.958  11.373   0.467 -0.2625  0.2987  0.4020
12955W        W29802  17.691  10.102   2.475 -0.0577  0.1712  0.0158
12956W        W29803  18.321   8.175   0.465  0.0279 -0.1356  0.1101
12957W        W29804  16.066  11.071  12.905 -0.0345 -0.2649 -0.1031
12958W        W29805  18.508   0.734   4.592 -0.2338 -0.1509 -0.1687
12959W        W29806   4.372   0.102   1.234  0.0113 -0.2759  0.1279
12960W        W29807  13.073  13.615   0.352 -0.3361 -0.0874  0.0710
12961W        W29808  16.230  15.954  10.270 -0.0669 -0.1201  0.1591
12962W        W29809   7.642  11.384   2.984  0.0721 -0.0323  0.0249
12963W        W29810  17.248   5.761   3.845 -0.2836 -0.1262 -0.4366
12964W        W29811  12.279   4.439  13.145  0.3078  0.0141  0.4178
12965W        W29812   9.258   7.244  11.231  0.3607 -0.1093 -0.2064
12966W        W29813   6.222  13.768   2.783 -0.0734 -0.4080  0.1945
12967W        W29814   4.250   6.506  11.757  0.2767  0.1973 -0.3040
12968W        W29815   7.391  12.245   2.753  0.1529  0.1990 -0.0017
12969W        W29816   4.500   3.793  13.050 -0.0291  0.1542  0.4657
12970W        W29817  12.859  17.224   4.519 -0.0188  0.1161  0.0590
12971W        W29818   7.527  10.243  10.351  0.2237  0.1558  0.1361
12972W        W29819  14.987   5.448  14.164 -0.0636 -0.0167 -0.0901
12973W        W29820   6.372   9.540  10.617 -0.0261 -0.0470 -0.1041
12974W        W29821  12.764  14.090   4.973 -0.2175 -0.1809  0.1776
12975W        W29822   6.298  17.801   2.436  0.1410  0.1254  0.1359
12976W        W29823  19.485   8.056   0.113 -0.0414  0.0723  0.0110
12977W        W29824  13.925   6.993   0.536 -0.1919  0.1362  0.2100
12978W        W29825   2.057   3.870   2.752  0.5005  0.0505  0.0740
12979W        W29826   5.577  10.754   9.806 -0.2667 -0.0077 -0.0043
12980W        W29827  12.926  11.691   2.331 -0.1676 -0.4241 -0.3078
12981W        W29828  15.094  14.212   1.693 -0.0923 -0.2920 -0.0240
12982W        W29829   4.877  14.271   2.817 -0.2203 -0.0355  0.0754
12983W        W29830  17.840  19.021   5.740 -0.2589  0.2878  0.3785
12984W        W29831   5.785   1.712  12.407 -0.2242  0.1657  0.0075
12985W        W29832   0.166  19.892   2.471 -0.0649 -0.0875 -0.0230
12986W        W29833  17.765  17.072  11.715 -0.1586 -0.2375 -0.0802
12987W        W29834  11.563   8.612   1.754  0.1133  0.0636  0.0535
12988W        W29835   5.505  11.765  11.520  0.4515  0.0256 -0.0766
12989W        W29836  17.119   9.532   4.664 -0.0191  0.1267  0.4138
12990W        W29837  11.173   8.007   0.879  0.0912 -0.2512  0.2916
12991W        W29838  15.495  11.646  12.431 -0.1386  0.0307  0.1773
12992W        W29839  15.294   0.825  10.199  0.0593 -0.1167  0.1157
12993W        W29840  13.527  12.662   3.559  0.2086  0.2548  0.1702
12994W        W29841   0.919   8.701  13.302  0.2011 -0.0164 -0.1395
12995W        W29842  12.507  17.543   0.618 -0.0642 -0.1098 -0.4178
12996W        W29843  12.803   9.649  13.405  0.0205  0.0467  0.4087
12997W        W29844   3.106   5.164  13.013 -0.0206 -0.0249  0.0951
12998W        W29845  16.306  13.518   1.066 -0.0763 -0.4373 -0.1122
12999W        W29846  12.554  13.044  12.743 -0.0845 -0.1065  0.4655
13000W        W29847   7.848  13.190  11.627 -0.1152  0.0439  0.3797
13001W        W29848   0.413   7.006  10.885  0.2413  0.2362 -0.1206
13002W        W29849   0.091  16.751  12.673  0.0986 -0.0403 -0.1944
13003W        W29850   5.868   5.706  12.640 -0.0673 -0.1801  0.0740
13004W        W29851   3.821   8.810  13.989 -0.1613 -0.0729 -0.0971
13005W        W29852  17.395   3.614   3.520 -0.0446  0.0430  0.0009
13006W        W29853   2.940  10.933  13.254 -0.1262 -0.1430  0.0206
13007W        W29854   2.947   9.747   0.162  0.0347 -0.0873 -0.0150
13008W        W29855   8.479  17.495   4.264 -0.0718  0.4605 -0.1640
13009W        W29856  16.152  19.197  12.105  0.3891 -0.1093  0.2757
13010W        W29857   2.882   2.142   2.446 -0.2709  0.1018  0.3779
13011W        W29858  16.063   3.719   5.002 -0.1619  0.2677  0.0116
13012W        W29859   6.839   6.598   4.347 -0.1265  0.0294 -0.0061
13013W        W29860  18.878  19.133  10.061 -0.1824 -0.2269 -0.1322
13014W        W29861  19.428   3.746  12.505 -0.1244  0.1277 -0.0573
13015W        W29862  19.149   8.767   1.359 -0.3584 -0.0429  0.0774
13016W        W29863   4.178   8.244   1.425 -0.1142  0.2383  0.0841
13017W        W29864  14.426   2.380   4.470  0.1891  0.0272 -0.0381
13018W        W29865  12.444  19.801   2.468 -0.1564  0.2825 -0.1272
13019W        W29866  19.464   9.792   2.288  0.3531 -0.4546 -0.1885
13020W        W29867   7.718  11.833   1.763  0.3643 -0.0276 -0.1753
13021W        W29868   3.960   5.493   1.525  0.1832 -0.1928  0.2063
13022W        W29869  13.071  14.690   2.328 -0.2124  0.0203  0.0767
13023W        W29870   0.843   2.823  10.111  0.1617  0.2137 -0.2965
13024W        W29871  14.214   6.148  10.492  0.0214  0.2064 -0.0720
13025W        W29872   3.579  19.253   3.050 -0.0125  0.2138 -0.3314
13026W        W29873  11.403  19.480  13.353 -0.0781  0.0486 -0.0712
13027W        W29874   5.085  12.476  13.781 -0.0926 -0.2001 -0.2099
13028W        W29875   2.669  13.671  12.769  0.3039  0.1898  0.3337
13029W        W29876   2.836   4.332   9.795  0.0781 -0.0787 -0.0423
13030W        W29877   7.385  10.634   3.563 -0.1564 -0.2597  0.1192
13031W        W29878   2.889   6.903   9.904  0.1625 -0.2070  0.0750
13032W        W29879   0.346   3.628   4.118  0.0879 -0.2730  0.0505
13033W        W29880  12.185  14.229   3.047  0.0336  0.2594  0.0474
13034W        W29881   9.351  12.338   3.458 -0.0741  0.0860 -0.0439
13035W        W29882  16.135   2.142  11.942  0.2031  0.1167  0.2561
13036W        W29883  13.105   0.162   1.157  0.0598 -0.0939  0.1151
13037W        W29884  15.639  11.623  11.517  0.3438  0.4167 -0.5256
13038W        W29885  15.694   6.635   3.957 -0.0634  0.4113 -0.1059
13039W        W29886  16.065  13.414  12.184 -0.0597  0.1043  0.1559
13040W        W29887  17.361   4.512   3.139 -0.1773 -0.2596 -0.2465
13041W        W29888   8.426  12.296  12.566  0.0391 -0.0858  0.0447
13042W        W29889   3.723  14.937  12.318 -0.1998 -0.1263 -0.0157
13043W        W29890   8.989  17.421   1.004  0.0137  0.1775 -0.0710
13044W        W29891   6.935   6.495  13.567  0.2545 -0.0818 -0.0165
13045W        W29892  17.441  14.685   2.906  0.0814  0.2509 -0.6288
13046W        W29893  19.320  15.571  10.300 -0.0891  0.1190  0.3136
13047W        W29894  13.957  18.980   3.988  0.0699  0.0082 -0.2253
13048W        W29895   4.339   1.126   2.228 -0.1491 -0.2343 -0.1844
13049W        W29896  17.464  13.318  12.410 -0.1755  0.0079  0.0208
13050W        W29897   9.074   7.569   1.778 -0.1550  0.2725 -0.0085
13051W        W29898  10.107   7.227   9.840 -0.1022 -0.0491  0.2807
13052W        W29899  18.238  13.211   4.631 -0.3532 -0.2365  0.0325
13053W        W29900  14.690  18.351   3.511 -0.1076  0.2640  0.1894
13054W        W29901  17.094   9.530   2.441 -0.2150  0.3774  0.0797
13055W        W29902  17.151  16.477  12.005 -0.2602 -0.0979 -0.0505
13056W        W29903   9.419  13.998   1.905 -0.1648  0.2204  0.6844
13057W        W29904  14.887  16.315  11.846 -0.1457  0.0056 -0.2925
13058W        W29905  15.117  19.218   5.561 -0.1251 -0.0217 -0.1724
13059W        W29906  19.561   2.363   0.712 -0.0266  0.0470  0.1138
13060W        W29907   8.342   2.277   3.116  0.3662 -0.1766 -0.3045
13061W        W29908   1.295   2.596   1.491  0.0244 -0.0310  0.3818
13062W        W29909   3.005   1.568   2.556 -0.3146 -0.2191 -0.1322
13063W        W29910   3.380  16.095   5.149 -0.1519  0.3764  0.1637
13064W        W29911   9.175  19.472  10.579 -0.2950 -0.1725  0.0768
13065W        W29912  19.602   4.083   0.011 -0.2023 -0.2272 -0.3138
13066W        W29913   7.685   2.035   3.812  0.1666 -0.0090 -0.0445
13067W        W29914   8.131  11.894   3.090 -0.2192  0.0660 -0.1976
13068W        W29915  19.754  12.088  14.229 -0.0300  0.0696  0.3674
13069W        W29916   4.133  17.882   9.447  0.0207 -0.0801 -0.3447
13070W        W29917   1.657  19.295   3.267 -0.0286 -0.3075  0.0804
13071W        W29918   8.066   1.755  14.243  0.0161  0.0061  0.0484
13072W        W29919   0.611  13.890   2.521  0.1442 -0.2307  0.2695
13073W        W29920   0.737  14.282   3.578  0.1128  0.3026 -0.0369
13074W        W29921  10.733  15.499   3.212 -0.0433  0.1561  0.0867
13075W        W29922   0.339   2.230   2.591  0.0516 -0.3363  0.0484
13076W        W29923  11.090   9.011   2.441 -0.3601  0.0865  0.1746
13077W        W29924   7.522  18.107   0.089 -0.0489  0.3114  0.0856
13078W        W29925  15.893   4.438  10.889 -0.1533 -0.0944 -0.1703
13079W        W29926   0.306   1.621   4.675  0.0224 -0.1879  0.2027
13080W        W29927  13.637  11.775   4.401  0.0963  0.2783  0.0885
13081W        W29928   3.022  14.899   4.644  0.2743  0.2001 -0.0205
13082W        W29929   1.400   1.854   3.791  0.1910 -0.4576  0.0315
13083W        W29930  17.041   1.371  14.183 -0.3606 -0.0920  0.1888
13084W        W29931   9.807  13.755   0.568  0.0042  0.3088 -0.0118
13085W        W29932   2.807   2.528  12.233  0.1328 -0.2292 -0.0466
13086W        W29933   8.754  16.988   1.517  0.1908 -0.1185  0.1732
13087W        W29934   5.492   1.723  12.883  0.1844  0.1903 -0.2674
13088W        W29935   3.073   7.391  11.137  0.1269  0.1637  0.2928
13089W        W29936   1.075  13.517   1.955 -0.0746  0.0180 -0.2579
13090W        W29937   1.250   3.354   4.226 -0.1045  0.0430  0.0407
13091W        W29938  19.357   9.960  11.398 -0.2158  0.2711  0.2328
13092W        W29939  11.930   3.117   3.608  0.2786 -0.1054 -0.2019
13093W        W29940   2.444   0.964  11.100 -0.2005 -0.0092  0.2104
13094W        W29941   7.501   3.305   4.978  0.0978  0.1587 -0.1722
13095W        W29942   5.640   3.417   0.018  0.1221 -0.1158 -0.0820
13096W        W29943   4.540   5.326  12.757  0.3670  0.0359  0.0585
13097W        W29944  10.534   5.181  12.268 -0.2229  0.0731 -0.1782
13098W        W29945  11.916   5.419  13.918  0.0636 -0.1906 -0.0558
13099W        W29946  13.897   9.193  13.774  0.2589  0.0335 -0.2744
13100W        W29947   4.279   3.053  11.152 -0.2521 -0.1830 -0.3676
13101W        W29948  19.200  13.767   1.994 -0.0684 -0.2374  0.0657
13102W        W29949  17.318   7.784  10.583 -0.0340  0.3600  0.3475
13103W        W29950   6.932  19.258   3.738 -0.0931  0.5622 -0.1282
13104W        W29951  18.160   5.668   2.457  0.3761 -0.0118  0.1633
13105W        W29952   8.700   8.167  12.121 -0.0047  0.0350  0.3119
13106W        W29953   5.912  15.178  10.414  0.0705  0.0168 -0.1800
13107W        W29954   3.328  11.325  10.562 -0.2671 -0.2851 -0.4841
13108W        W29955   4.351   8.213  14.085  0.0104  0.3381  0.0624
13109W        W29956   2.872  15.530  11.592  0.0748 -0.1842 -0.0910
13110W        W29957   7.906   8.999  13.337  0.3395  0.0484  0.0893
13111W        W29958  13.590  11.237  11.937 -0.0525 -0.2736 -0.1313
13112W        W29959   9.389   9.436  11.946  0.1298  0.0205 -0.0383
13113W        W29960   5.589  14.620   3.183  0.3951  0.4634  0.0668
13114W        W29961   6.893  13.692   4.162 -0.0679  0.1219 -0.0769
13115W        W29962   4.042  15.034   0.266 -0.1592  0.0381 -0.0875
13116W        W29963   5.520   8.972  11.327  0.1235  0.0999  0.0659
13117W        W29964   3.879   6.624   4.828  0.1186 -0.5320 -0.3269
13118W        W29965   7.443   7.067  10.377 -0.4576  0.1088 -0.2964
13119W        W29966  12.100   8.322   4.750  0.5747 -0.1610  0.2656
13120W        W29967   0.458   4.569  12.021  0.0267  0.4296  0.0089
13121W        W29968  15.911  17.170   1.739 -0.0590  0.1754  0.5224
13122W        W29969   3.987  13.806  10.375  0.2008 -0.1403  0.2324
13123W        W29970  10.638   8.102  13.595 -0.0549  0.1639  0.5932
13124W        W29971   8.626  15.308  13.359 -0.2010  0.0641  0.1033
13125W        W29972   4.543   2.176  12.898 -0.0587  0.0483  0.0114
13126W        W29973   8.841   2.428   1.135  0.1266 -0.0430 -0.0847
13127W        W29974   4.569   1.116   4.105 -0.1174 -0.0296  0.0843
13128W        W29975  14.407  13.438   1.536  0.0227  0.0304 -0.1547
13129W        W29976  17.867  15.486   3.879 -0.0389 -0.0110  0.1893
13130W        W29977   4.393   7.398   4.265  0.1346  0.0651 -0.1491
13131W        W29978  16.388   2.493  13.189 -0.1755 -0.0829  0.0408
13132W        W29979  14.713   3.510   1.250 -0.0600  0.0477 -0.2352
13133W        W29980   0.524   8.365  11.587  0.0710  0.1235 -0.1440
13134W        W29981  15.793   5.907  12.479  0.0154  0.0012 -0.2306
13135W        W29982   2.211  17.013  12.817 -0.0115 -0.1879 -0.0577
13136W        W29983  11.930   6.829   3.924  0.1036 -0.0165 -0.0455
13137W        W29984   0.536   9.680  10.224 -0.3778 -0.0877  0.2501
13138W        W29985  16.057  12.382   2.942  0.2498 -0.1546 -0.1703
13139W        W29986  15.558  10.612  11.542 -0.0326  0.1782  0.0203
13140W        W29987   3.808  13.717  13.273 -0.3792  0.2521 -0.1909
13141W        W29988  14.107   9.579  12.048  0.2057  0.0707 -0.0601
13142W        W29989   8.406   3.301   4.154  0.3508  0.0448  0.1713
13143W        W29990   9.154   1.530   3.960  0.5616 -0.1517  0.2428
13144W        W29991  13.631  14.828  11.577 -0.1121 -0.1866  0.0523
13145W        W29992   1.093   9.296   1.640  0.5006 -0.0089 -0.1246
13146W        W29993  10.235   5.385   2.030  0.0352  0.0107 -0.0962
13147W        W29994  16.744   4.998  13.842 -0.0927 -0.1209  0.0291
13148W        W29995  11.586  16.357  10.758 -0.3258 -0.0675  0.3339
13149W        W29996  13.550  10.994  14.248  0.1978 -0.2228  0.1609
13150W        W29997   0.604  18.151   2.526  0.5486 -0.0511  0.0196
13151W        W29998  18.632  16.824  14.306  0.1884  0.0596 -0.2547
13152W        W29999   8.504   3.622   3.798 -0.0730  0.0249  0.1314
13153W        W30000   1.076   7.990   2.252 -0.0377  0.1814 -0.0350
13154W        W30001  16.086   0.420   3.181 -0.1151  0.0410  0.0457
13155W        W30002   3.593  15.205   0.509  0.2340 -0.0087 -0.0042
13156W        W30003  15.886  18.959   2.451 -0.0001 -0.2561  0.0931
13157W        W30004  11.798  17.988   0.279 -0.2552 -0.2137  0.1117
13158W        W30005  18.612   7.527   4.744 -0.1675  0.1014  0.0223
13159W        W30006  18.828   0.327  12.473 -0.3120  0.0218  0.5475
13160W        W30007  12.046  18.061   2.408 -0.2690  0.0279 -0.2106
13161W        W30008   7.064   3.808  10.045  0.0523 -0.1633 -0.2009
13162W        W30009  19.492  16.344   0.864 -0.0713  0.1360  0.3633
13163W        W30010   8.163  11.855  11.962  0.0885 -0.1559 -0.0193
13164W        W30011  11.793   7.529   1.221  0.1469 -0.0123 -0.2015
13165W        W30012   8.775  13.301   4.355 -0.0903 -0.3484  0.1792
13166W        W30013  19.449   5.510  11.945  0.3520  0.1222  0.2350
13167W        W30014   9.791   8.534  10.966  0.0219  0.0068 -0.0495
13168W        W30015  12.573  13.512  10.530  0.3234 -0.1398 -0.0947
13169W        W30016   5.217  11.591  10.284  0.0022  0.2448  0.1634
13170W        W30017  11.482  11.512  12.296 -0.3068 -0.0303 -0.4879
13171W        W30018   3.589   7.316   3.509 -0.3274  0.2069  0.1536
13172W        W30019  19.538   5.250  13.745  0.2063 -0.1042  0.0895
13173W        W30020  14.362   7.052   4.331  0.0241  0.1148  0.1780
13174W        W30021   8.754   1.370   2.946  0.0118 -0.0992 -0.1739
13175W        W30022  10.383   0.063  11.401 -0.0986  0.0327 -0.2111
13176W        W30023  16.867   8.983  12.035 -0.2186 -0.1440  0.1747
13177W        W30024  11.299   4.601  11.498  0.2887 -0.0725 -0.4600
13178W        W30025  16.365   0.960   5.750  0.0239 -0.3454  0.0252
13179W        W30026  15.018   4.506   5.273 -0.1383  0.0756 -0.2057
13180W        W30027  17.822   3.483   0.477 -0.0947 -0.2009 -0.2733
13181W        W30028  18.784   4.019  11.929 -0.0049 -0.2217 -0.1713
13182W        W30029   0.636  13.178  11.305 -0.0214  0.0127  0.1723
13183W        W30030  19.046  14.732   0.586  0.1723  0.1580  0.1101
13184W        W30031   5.517   4.566  13.167 -0.0302 -0.2186 -0.3024
13185W        W30032   1.216  13.310   5.158  0.0671  0.0143 -0.5714
13186W        W30033   3.150   9.134   0.929 -0.4607  0.0005 -0.1237
13187W        W30034  12.602  15.998   4.543 -0.0272 -0.2745  0.2015
13188W        W30035  19.488   2.875   4.429 -0.0063  0.1521  0.1363
13189W        W30036  10.334   5.478  12.669  0.0822  0.3724  0.1161
13190W        W30037   0.757   6.587   4.479 -0.1474 -0.1283  0.0848
13191W        W30038   4.075   1.875   3.411  0.0996  0.0657  0.1802
13192W        W30039   8.480   2.989  13.971 -0.1656 -0.0593  0.3182
13193W        W30040  11.777  18.684  11.251  0.0671 -0.0037  0.2529
13194W        W30041  17.880  12.966  13.549  0.2136 -0.1267 -0.0169
13195W        W30042   8.391   7.865  14.181  0.1873  0.4677 -0.2040
13196W        W30043   7.395  11.019   2.043 -0.2853  0.1767  0.1458
13197W        W30044   6.239  14.196  10.873 -0.1377 -0.0191  0.2995
13198W        W30045   3.907   0.634   1.158  0.1439  0.2175 -0.0522
13199W        W30046  16.872  13.697  13.959  0.0306  0.1191  0.1111
13200W        W30047  19.265  12.913  14.260 -0.0538  0.1125  0.2839
13201W        W30048   5.916  18.183   2.970  0.2321 -0.3354  0.0403
13202W        W30049   4.200   4.345   0.156  0.0933  0.0655 -0.2838
13203W        W30050  17.824  10.270   2.014 -0.0196  0.1762  0.1876
13204W        W30051   4.900  19.871   9.331 -0.3749 -0.1155  0.3398
13205W        W30052   0.250   4.142  13.475  0.3987  0.0224  0.1595
13206W        W30053   3.673   5.059  13.005  0.0470 -0.0057 -0.0821
13207W        W30054   5.004   3.354  13.730 -0.2501  0.1320  0.1347
13208W        W30055  16.690   0.373  10.706 -0.1421 -0.0658 -0.1176
13209W        W30056  17.780   1.121  13.581  0.1224  0.2709 -0.0443
13210W        W30057   7.427  11.214  13.873 -0.0313 -0.0243  0.3449
13211W        W30058   1.511   1.559  10.216  0.0562 -0.0071 -0.1836
13212W        W30059   3.379   8.697   0.938 -0.1292  0.0602 -0.0031
13213W        W30060   1.669   8.889  11.810 -0.3158  0.0687  0.0986
13214W        W30061   2.767  15.882  12.512  0.0992 -0.2720 -0.0872
13215W        W30062   1.137  10.289   2.734  0.1061  0.2972  0.0966
13216W        W30063   0.177   4.435   5.269  0.2876  0.1944 -0.1462
13217W        W30064   1.347   4.401   1.137  0.3616 -0.1187  0.0537
13218W        W30065   8.378  14.338  10.894 -0.0509 -0.0327 -0.2765
13219W        W30066   4.127   6.843  12.509  0.2502 -0.0392  0.5176
13220W        W30067   4.652   3.041  10.821 -0.4343 -0.0889 -0.1058
13221W        W30068  13.000   1.888   0.101  0.0246 -0.0845 -0.1761
13222W        W30069   9.633   2.726  12.499  0.2574 -0.0777 -0.2216
13223W        W30070  16.785   4.256  12.891 -0.1095  0.0227  0.1205
13224W        W30071  10.822  10.775   2.837  0.3296  0.1915  0.0370
13225W        W30072   1.824  12.000   3.452  0.2243  0.3302 -0.0834
13226W        W30073   8.767   5.289  13.760  0.2652 -0.2156  0.0259
13227W        W30074  14.094   3.406   3.271  0.0775 -0.1174  0.0892
13228W        W30075   6.603   6.199   2.580  0.0787 -0.2450  0.1846
13229W        W30076  16.682   7.542  11.832 -0.1112 -0.3161  0.1642
13230W        W30077  15.955   9.131   3.132  0.5333  0.2158  0.1933
13231W        W30078   8.089   4.688  11.951 -0.0224 -0.1670 -0.0819
13232W        W30079   7.145   3.220   2.151 -0.1029 -0.0793  0.2061
13233W        W30080   5.908  16.630   9.756 -0.1889 -0.3500  0.2433
13234W        W30081   9.612  10.584   3.215 -0.1935 -0.1120 -0.1550
13235W        W30082  15.240  19.618   5.163 -0.0387  0.2068 -0.1824
13236W        W30083  12.677  14.505   1.553 -0.3375 -0.1953  0.3026
13237W        W30084  18.468  11.259   1.587  0.2092  0.3023  0.0272
13238W        W30085  16.984   3.201  11.916 -0.0955  0.1388  0.1059
13239W        W30086  16.956   1.944   4.541  0.0303  0.1924  0.0711
13240W        W30087   2.822   3.204   0.609 -0.0798 -0.0576 -0.1469
13241W        W30088   6.148   7.198   3.236 -0.5622  0.0821  0.1448
13242W        W30089  12.529   8.486  11.107  0.0371 -0.2726 -0.0012
13243W        W30090  17.047  16.099   4.799 -0.1090 -0.0380  0.3181
13244W        W30091   9.843   3.522  11.312 -0.1520 -0.1463 -0.0677
13245W        W30092   6.254  17.049   0.459 -0.2937  0.1088 -0.2589
13246W        W30093   4.262  13.221  13.516 -0.0144 -0.2378  0.3026
13247W        W30094  15.847  18.175   1.912  0.3713  0.3133  0.1675
13248W        W30095   8.978   7.585  11.009 -0.0230  0.0909 -0.3536
13249W        W30096   6.558   3.539   3.367  0.3247 -0.0750  0.0231
13250W        W30097  10.287   1.517   4.493  0.3076 -0.1028  0.3204
13251W        W30098  14.950   9.175  13.699 -0.0645  0.0199  0.1965
13252W        W30099  19.627  16.928  12.412 -0.1567 -0.1050 -0.0992
13253W        W30100   4.967   1.598   3.401 -0.0824 -0.0422 -0.6953
13254W        W30101   4.311   3.405   2.837  0.5385 -0.1904  0.0401
13255W        W30102  12.964  15.051   9.359  0.3280  0.4730 -0.0377
13256W        W30103  18.831   7.978   5.474 -0.0717 -0.2712 -0.0943
13257W        W30104  14.433   7.589   2.653  0.4382  0.0399  0.1838
13258W        W30105  16.289  12.995   4.545 -0.0242  0.0405  0.1995
13259W        W30106  14.415  12.957   4.007 -0.3342  0.1206  0.1691
13260W        W30107  14.036  12.946   0.737  0.0215 -0.0441 -0.1089
13261W        W30108  13.103  16.516   1.656 -0.0232 -0.0898  0.0289
13262W        W30109   7.026  17.827  10.513  0.0070  0.0709  0.1169
13263W        W30110  17.428  14.618   0.102 -0.1887 -0.1378 -0.2328
13264W        W30111   2.094   0.639  10.833 -0.1734  0.1755  0.1690
13265W        W30112  16.020   6.064   0.945  0.2495 -0.0611 -0.1892
13266W        W30113   4.752  11.607  12.613  0.0212  0.0761 -0.1945
13267W        W30114  11.374  15.692  11.889 -0.2943 -0.0285  0.1500
13268W        W30115   1.805   3.320  11.808 -0.0063  0.1501 -0.0339
13269W        W30116  14.848  18.358  10.728  0.0962  0.1953 -0.0755
13270W        W30117   2.412  16.454   2.289  0.4761 -0.1043 -0.0398
13271W        W30118  11.785  10.249   2.845 -0.1205  0.1711 -0.4168
13272W        W30119   7.884   3.748   4.777 -0.0972  0.2048 -0.1026
13273W        W30120  11.841  13.054  13.995  0.0438  0.0242 -0.0735
13274W        W30121   2.306   2.541   1.530  0.0301  0.1031  0.2604
13275W        W30122   5.352  15.819  11.582  0.2635 -0.4603  0.2246
13276W        W30123  11.581   1.348   1.487  0.2900 -0.0970 -0.2820
13277W        W30124   2.679   3.338  11.110  0.1798 -0.0507 -0.3156
13278W        W30125  11.875  17.470   2.956  0.2102 -0.0671  0.0699
13279W        W30126  10.050  12.908  13.004  0.1213  0.2383 -0.0618
13280W        W30127  10.678   1.770   4.184 -0.0552 -0.0405  0.4684
13281W        W30128  11.905  18.031  14.097 -0.1732  0.0713  0.3480
13282W        W30129   6.178  13.784   2.152  0.0918 -0.1424  0.2691
13283W        W30130   8.114  11.882  12.784 -0.0005 -0.1000  0.2330
13284W        W30131   1.788  19.209  13.599 -0.1745  0.0215 -0.2329
13285W        W30132   3.109  16.584   9.593 -0.3764  0.2502  0.1155
13286W        W30133  11.067   1.327   0.579  0.2465 -0.1109  0.1542
13287W        W30134  17.964   4.705   1.421  0.0854  0.2767  0.2208
13288W        W30135  16.600  19.583   2.517  0.1648  0.1714 -0.4102
13289W        W30136   9.732  19.752   1.344  0.1182  0.1523 -0.2077
13290W        W30137   3.970   2.750  13.288  0.0922 -0.0768 -0.0675
13291W        W30138  17.606  19.293  12.466  0.1560 -0.4123 -0.0079
13292W        W30139  12.720   1.728  13.166 -0.1303  0.2439  0.0560
13293W        W30140  16.871   5.141   4.518 -0.0666  0.1045 -0.0442
13294W        W30141   2.219   1.816   4.794  0.0043  0.0442 -0.0353
13295W        W30142  19.719   0.833   3.159 -0.2135 -0.0120  0.1729
13296W        W30143   3.983  14.588   4.444 -0.0714 -0.1385 -0.2077
13297W        W30144  19.354   2.495  10.217 -0.0275  0.1874 -0.3643
13298W        W30145  18.894   6.244   0.410 -0.0491 -0.1554  0.2109
13299W        W30146  16.107  13.947   4.164  0.0192  0.0316  0.0991
13300W        W30147  10.622  19.215  10.659  0.0445 -0.0123 -0.0402
13301W        W30148  10.549  15.200   1.936 -0.1707 -0.0216  0.0158
13302W        W30149   0.606  14.503   4.718  0.4097 -0.1810  0.1554
13303W        W30150   8.670  18.335   2.848 -0.1309 -0.4530 -0.0141
13304W        W30151  11.240  13.243   3.884  0.4045 -0.0822  0.1321
13305W        W30152  15.810  19.398  10.527 -0.0472 -0.1104  0.1250
13306W        W30153  16.015  12.647   1.719 -0.0905  0.1408  0.0073
13307W        W30154  15.559   3.517   3.532  0.2563 -0.2291  0.1356
13308W        W30155  12.126   7.444   3.755  0.1326 -0.1523  0.1240
13309W        W30156   5.033   0.197   2.319 -0.1898  0.2002  0.0481
13310W        W30157   7.251  13.044   1.124  0.1529  0.2610 -0.0354
13311W        W30158   1.758   1.569  11.242 -0.1125  0.1465  0.0544
13312W        W30159  13.974  10.431   4.759 -0.1886 -0.1360 -0.2237
13313W        W30160   2.815   4.090  12.456 -0.1654 -0.2338 -0.0591
13314W        W30161  17.712  11.623  11.814 -0.1924 -0.0228 -0.0229
13315W        W30162  15.833  15.862  11.588 -0.4756  0.2775  0.1249
13316W        W30163  11.285   7.024  12.846 -0.0583 -0.1493  0.1258
13317W        W30164  11.647  18.285  12.977  0.5067 -0.5081 -0.2773
13318W        W30165  13.681  15.435  10.538  0.0089  0.0156 -0.5079
13319W        W30166  18.210  14.085  14.204 -0.0183  0.3364  0.1694
13320W        W30167   2.769  15.424  12.609  0.3610  0.0697  0.0307
13321W        W30168   0.518  10.817  11.878  0.2003 -0.0748  0.2169
13322W        W30169  13.554   0.345  10.812 -0.2246 -0.1752 -0.0334
13323W        W30170  11.427  12.396   3.422  0.1355  0.2032  0.1616
13324W        W30171  10.688   8.808  13.979 -0.0577 -0.0526  0.0475
13325W        W30172  15.508   9.088  10.873 -0.0035  0.0188  0.0961
13326W        W30173   7.825  15.598  13.337 -0.0072 -0.1288 -0.1283
13327W        W30174   9.674  12.244   5.236  0.2349  0.0475  0.4720
13328W        W30175   8.462   7.377   0.534 -0.3480 -0.3344 -0.0710
13329W        W30176  15.363   5.612   1.433 -0.1537 -0.1820 -0.2592
13330W        W30177  12.254  10.573   1.957 -0.0494  0.2931 -0.1948
13331W        W30178   6.712   1.030  10.503  0.1563 -0.1470  0.0361
13332W        W30179   9.445  19.582   3.042 -0.1177 -0.0819  0.1397
13333W        W30180  12.722  11.476   0.742 -0.1114  0.0698 -0.3333
13334W        W30181   0.041  18.602  13.618  0.0152  0.2844  0.0181
13335W        W30182   4.649  15.921  12.931  0.5180  0.0494  0.2236
13336W        W30183  17.204   7.733   4.753 -0.0033  0.1405 -0.2506
13337W        W30184  11.390  19.813  12.569  0.0214 -0.0286  0.0195
13338W        W30185   0.494  12.678   1.291  0.2397 -0.0007  0.1849
13339W        W30186   1.167  12.022  11.378  0.0264 -0.1452  0.1341
13340W        W30187  17.639   9.224   4.242  0.0875  0.3477  0.1035
13341W        W30188   4.578   7.052  10.914  0.0982  0.2823 -0.2859
13342W        W30189  12.995  10.962   8.802 -0.0313  0.0616  0.0344
13343W        W30190  15.455   9.864  11.604  0.1861  0.0948  0.0341
13344W        W30191  17.329   8.815  14.010  0.4334 -0.0806  0.3412
13345W        W30192   1.678   4.324  10.741 -0.0066  0.0948 -0.1814
13346W        W30193   5.669  12.378  10.846 -0.2311  0.0053  0.0733
13347W        W30194   5.620   0.307   4.554  0.1094  0.0066  0.2275
13348W        W30195   6.684  12.958   2.939  0.0727  0.1326 -0.0101
13349W        W30196   5.707   0.736   3.188 -0.3138 -0.1408 -0.1593
13350W        W30197   2.123  17.812   0.773 -0.2465 -0.0650  0.0983
13351W        W30198  15.274  13.508  11.373 -0.2156 -0.0479 -0.0635
13352W        W30199   9.127  17.514  10.538 -0.1600  0.1801 -0.2151
13353W        W30200  12.386   8.907   0.333 -0.1409 -0.1361 -0.2408
13354W        W30201  16.091   2.660  12.170  0.2208 -0.2775  0.1804
13355W        W30202   0.920   9.206  13.458  0.0007 -0.0212  0.0743
13356W        W30203  10.173  12.361  10.483 -0.3116 -0.0912 -0.4628
13357W        W30204  16.847   6.225   1.121 -0.2384 -0.1905 -0.3373
13358W        W30205  19.858   7.949  10.580 -0.0106 -0.0854  0.2760
13359W        W30206   0.007   7.854  11.121 -0.0295 -0.0567  0.2843
13360W        W30207  13.147  11.628   4.204 -0.1282  0.0681  0.1629
13361W        W30208   2.655  18.687   2.392 -0.5396  0.0869 -0.2941
13362W        W30209   4.106   3.796  12.094 -0.1224 -0.4240 -0.1139
13363W        W30210   0.434  10.432  12.349  0.0229 -0.2378  0.2782
13364W        W30211  19.837  10.143   0.042 -0.2848  0.2546 -0.0407
13365W        W30212  18.214   7.331  12.568  0.1523 -0.0316  0.2120
13366W        W30213  16.214   4.958  13.643 -0.0727 -0.2507  0.0407
13367W        W30214   5.162  16.755  10.131 -0.3147  0.1259 -0.0560
13368W        W30215   3.893   6.331  13.497  0.0480 -0.0358 -0.1697
13369W        W30216   9.101  10.588   3.912 -0.0927  0.1048 -0.0249
13370W        W30217  13.937  11.914   1.784  0.0928 -0.1189 -0.2238
13371W        W30218  13.256   0.543  11.644  0.4546  0.2212 -0.1723
13372W        W30219   0.354  11.367  11.122  0.2924  0.2194 -0.0609
13373W        W30220  19.061  12.697   1.548  0.1331  0.1263 -0.1679
13374W        W30221   1.398  11.917  10.463 -0.2400  0.3679  0.2062
13375W        W30222  11.114   8.675   2.024  0.1521  0.1563  0.0008
13376W        W30223  13.763   5.351   4.020  0.0291 -0.1539  0.0562
13377W        W30224  17.812  14.688  12.907 -0.1475 -0.0224  0.1631
13378W        W30225  12.485  13.264   1.311 -0.2390  0.0243  0.0987
13379W        W30226  14.437  19.516  11.750  0.0039  0.2019  0.1342
13380W        W30227  16.015   3.795   0.142  0.1495 -0.2167 -0.0625
13381W        W30228   0.595   4.702  10.356 -0.1149 -0.5217  0.4256
13382W        W30229   0.383  16.025   3.886  0.0149 -0.1014 -0.0000
13383W        W30230   5.381   0.946   4.441 -0.1572  0.0672 -0.3675
13384W        W30231   1.499   4.039  14.162  0.0963 -0.1535  0.0746
13385W        W30232   5.838  10.523   3.879 -0.1899  0.4355 -0.0812
13386W        W30233  18.349   7.937   1.935 -0.1125  0.0673 -0.0134
13387W        W30234   1.306   0.887   4.871 -0.2706  0.1669  0.1802
13388W        W30235   4.706   6.140   4.143 -0.3222 -0.1857  0.4192
13389W        W30236   5.650  17.194   2.024  0.2704  0.2909 -0.0958
13390W        W30237   1.116   6.904   2.287 -0.2219 -0.1343 -0.1809
13391W        W30238  12.070  12.533   0.148 -0.2923  0.1657  0.0084
13392W        W30239  14.901  17.538   3.345 -0.0225 -0.0686  0.0346
13393W        W30240  13.762  12.194  12.513  0.2459  0.0812  0.0870
13394W        W30241  10.062  14.204  13.190 -0.2749 -0.1225 -0.0611
13395W        W30242   7.685  10.047  12.757 -0.2122  0.5560  0.0787
13396W        W30243  15.870   3.055   2.770  0.0630  0.0247  0.1743
13397W        W30244  18.360  15.009   1.675  0.3956  0.0293 -0.0072
13398W        W30245  14.048   5.287   3.227  0.3491 -0.1640 -0.0873
13399W        W30246  13.712   0.531   3.648 -0.1567  0.2265 -0.0553
13400W        W30247   5.753   1.347  13.849  0.1527 -0.1179  0.0100
13401W        W30248  13.407   9.854  12.749 -0.0956  0.0295 -0.0452
13402W        W30249  16.833  10.941   5.176 -0.1974 -0.0140  0.0290
13403W        W30250  13.869  11.590   2.175 -0.2196  0.1124 -0.1571
13404W        W30251  13.963   3.413   0.005 -0.1377 -0.0057 -0.1651
13405W        W30252  10.164  11.916   3.791  0.1523  0.0219  0.2807
13406W        W30253  19.654  16.975   0.141  0.0907 -0.1102 -0.1419
13407W        W30254  11.953   0.792  13.014  0.2174  0.4475  0.3737
13408W        W30255  17.781   3.506  13.089  0.1827 -0.0554  0.0932
13409W        W30256   0.793   4.860   9.944  0.1129  0.0462 -0.1987
13410W        W30257  10.568  11.705  14.196 -0.1548  0.3369  0.0308
13411W        W30258  17.755   2.538  13.084  0.1634  0.0441 -0.3799
13412W        W30259  12.950  14.851   0.796 -0.0526 -0.6092  0.0128
13413W        W30260  16.368  18.949   2.263 -0.1918 -0.0448  0.0374
13414W        W30261   1.325   1.943  12.187 -0.0507 -0.0777  0.0625
13415W        W30262   9.291   0.821  11.492  0.2256  0.1399  0.0778
13416W        W30263   4.846  11.439  13.889 -0.2229  0.3576  0.1581
13417W        W30264  19.730  16.370   3.313 -0.1029 -0.3562  0.2133
13418W        W30265   8.920  17.065  10.651 -0.1478  0.3079 -0.0044
13419W        W30266   7.127   9.380  12.752  0.0588 -0.0354  0.1397
13420W        W30267   8.075  13.926   9.559 -0.0346  0.2160 -0.1952
13421W        W30268   3.398  10.574  11.652 -0.0207  0.1950  0.1734
13422W        W30269  13.135   7.291   2.812 -0.0458 -0.2094 -0.0907
13423W        W30270  10.248  18.377  13.760  0.0711 -0.0184  0.2052
13424W        W30271  10.231   2.389  13.182  0.1498 -0.3210  0.2737
13425W        W30272   4.632   2.729   3.106  0.0893 -0.3329 -0.0066
13426W        W30273  12.094  12.790  12.802  0.1252  0.0960  0.1884
13427W        W30274   6.657  18.517  13.798  0.0375 -0.0629 -0.1719
13428W        W30275   3.042  19.729   1.797  0.0603 -0.1639 -0.0177
13429W        W30276   4.482  11.237   0.305 -0.1980  0.3678 -0.1878
13430W        W30277  12.021   7.462   0.461  0.0936 -0.2888  0.0012
13431W        W30278   4.907  11.550   9.803 -0.2046 -0.2698  0.0221
13432W        W30279   8.691   0.383  13.653  0.0132 -0.2281 -0.0240
13433W        W30280  13.646   1.910  11.669  0.0874 -0.1031  0.1155
13434W        W30281  12.784  13.027  11.879 -0.0968 -0.0422 -0.0587
13435W        W30282  10.933  12.501   5.027 -0.0198  0.0238  0.0282
13436W        W30283   1.135  10.771  11.326 -0.2129  0.1065  0.1344
13437W        W30284   9.547   3.152   0.439 -0.1173  0.0976 -0.0367
13438W        W30285   9.215   9.711   0.447  0.3682  0.1728  0.2978
13439W        W30286  16.491  17.936   0.047  0.0827  0.0901 -0.1191
13440W        W30287   8.714  17.798   0.301 -0.0915 -0.2375  0.0123
13441W        W30288  19.477  11.634  14.103 -0.0503  0.2074  0.0595
13442W        W30289  12.561   7.178  13.577  0.1122  0.3195 -0.0317
13443W        W30290   3.596  11.724   4.180 -0.1917  0.1338  0.0623
13444W        W30291  11.524   5.264   0.054 -0.0114 -0.0707  0.2764
13445W        W30292   6.785  14.896  10.128  0.3390  0.2135 -0.0524
13446W        W30293   8.618  10.129   3.287  0.3572  0.0983 -0.1993
13447W        W30294  15.896   8.279  10.881  0.3278 -0.3922 -0.2836
13448W        W30295  13.751   3.100  14.001 -0.4771  0.0598  0.0675
13449W        W30296   9.539  10.255  12.146  0.0401  0.2558  0.0907
13450W        W30297  11.620   5.228  10.108  0.2179 -0.1054 -0.1405
13451W        W30298   6.815   0.267   0.898  0.3719  0.1848 -0.2321
13452W        W30299  13.114   6.500  12.154  0.0852  0.0269 -0.0950
13453W        W30300  14.356   7.926  13.860 -0.1091 -0.0114 -0.0040
13454W        W30301  10.944   3.487  10.486 -0.0220 -0.1652 -0.0899
13455W        W30302  14.741   9.567  12.904 -0.0011  0.1647  0.1790
13456W        W30303  13.436  12.085   3.477  0.2406 -0.1361 -0.0977
13457W        W30304  12.983  10.394  11.944 -0.0900 -0.1813 -0.2332
13458W        W30305   4.283  17.537  12.295  0.1623 -0.0999  0.2422
13459W        W30306   9.627  16.039  10.252  0.1132  0.0527 -0.2532
13460W        W30307  13.076   8.097  12.335  0.1028  0.2641  0.0836
13461W        W30308  13.089   7.452  11.689 -0.1223  0.3895 -0.2149
13462W        W30309  15.320  11.369   4.290 -0.3012  0.0968  0.2560
13463W        W30310  15.648  13.236   1.655  0.0194  0.1199 -0.0731
13464W        W30311  14.956  10.119   5.152  0.1562 -0.0909  0.0043
13465W        W30312   0.571   1.246   3.400  0.3560 -0.3293 -0.4092
13466W        W30313  15.024   3.213   0.965 -0.2697 -0.0368 -0.1551
13467W        W30314  10.516  19.863   4.251 -0.2188  0.3530  0.2063
13468W        W30315   1.984  13.327   4.259  0.3529 -0.1102  0.2163
13469W        W30316   7.514   7.980   3.971 -0.2772 -0.3341  0.0705
13470W        W30317  16.308   0.282   0.623 -0.0840 -0.3118  0.0506
13471W        W30318  17.059   5.162  10.841  0.0667 -0.1811  0.2239
13472W        W30319  17.411   7.420   3.370 -0.2240  0.2441 -0.1301
13473W        W30320  16.864  16.773   4.033 -0.2120 -0.1089 -0.1138
13474W        W30321  14.315  10.013  13.666 -0.1348 -0.0333  0.0455
13475W        W30322   4.900   8.534  13.950 -0.0420  0.3030  0.1232
13476W        W30323  13.001   7.507  12.273  0.4097 -0.0596 -0.4142
13477W        W30324  14.420  13.948   3.144  0.0119 -0.1853 -0.1792
13478W        W30325   5.096   4.670   9.920 -0.1499 -0.1935  0.1834
13479W        W30326   1.749   2.176  13.076 -0.0076  0.1482 -0.0604
13480W        W30327  17.138   3.163   1.700  0.2516  0.1992  0.2386
13481W        W30328   6.513   4.216   0.784 -0.3360 -0.0808  0.0626
13482W        W30329   6.093   6.973  13.087 -0.1580 -0.0009  0.0127
13483W        W30330   8.640   7.773   9.978 -0.2694 -0.1390 -0.2920
13484W        W30331  14.543  13.954   4.521 -0.0989  0.0955 -0.0648
13485W        W30332   7.451  18.522   5.087  0.3241  0.0996 -0.5702
13486W        W30333  12.445  11.012  12.440  0.0276 -0.4082 -0.3017
13487W        W30334  15.522   1.017  10.558 -0.0598  0.0426 -0.0148
13488W        W30335   9.503   1.706   2.675  0.1833 -0.1132  0.2398
13489W        W30336  13.167   7.311  14.309 -0.4244 -0.1049 -0.3050
13490W        W30337   5.132   0.603   4.777  0.1416 -0.2088  0.4965
13491W        W30338   3.860  10.510   1.213 -0.0841  0.0878 -0.0068
13492W        W30339  19.636  17.341   0.508  0.0901 -0.1536  0.1798
13493W        W30340   8.516  16.055   3.147  0.2839 -0.0597  0.0308
13494W        W30341   2.107  10.727  11.489  0.0555 -0.2266 -0.0472
13495W        W30342  11.894  16.520   3.406 -0.1222  0.0787 -0.1872
13496W        W30343   8.008  12.530   4.922 -0.4328 -0.0326  0.0103
13497W        W30344   5.482  14.939  10.454  0.2336  0.0028 -0.0297
13498W        W30345  10.805  14.009  13.824 -0.2894  0.0525  0.0963
13499W        W30346   9.636   6.361   4.552 -0.2273  0.1226  0.1739
13500W        W30347   2.322   5.357   0.395 -0.0419  0.1041 -0.1983
13501W        W30348  15.757  19.925  10.570  0.2281 -0.1815  0.0467
13502W        W30349   3.964   4.672   3.053  0.1477 -0.2969 -0.4275
13503W        W30350   1.621   8.551   4.459  0.2186  0.3234 -0.1968
13504W        W30351   7.873   5.599   1.934 -0.1966 -0.0790 -0.0375
13505W        W30352   1.579  15.511   2.783 -0.2558 -0.1959 -0.0784
13506W        W30353  16.426   0.030   2.923  0.1930 -0.4677 -0.1637
13507W        W30354   8.464  17.173  14.185  0.3966  0.0429  0.0360
13508W        W30355  16.560  11.729   3.878  0.0133  0.1548  0.1950
13509W        W30356   7.424  14.456  11.349 -0.0262  0.1429  0.4062
13510W        W30357   3.450  18.480  11.400 -0.2541 -0.2484  0.0892
13511W        W30358  14.841  13.492   2.963  0.0769 -0.2600 -0.4415
13512W        W30359   1.349   3.119   0.236  0.1442  0.0837 -0.1505
13513W        W30360   1.615   9.614   3.212 -0.0840  0.2337  0.1053
13514W        W30361  14.860   1.234   2.198  0.1186 -0.2524  0.0462
13515W        W30362  16.332   2.006   4.970 -0.0046  0.0946  0.0004
13516W        W30363   6.797   6.476  14.181  0.1499 -0.0207 -0.1123
13517W        W30364  16.321   0.813   0.547 -0.1857  0.0157  0.0538
13518W        W30365  17.583  14.439   9.596  0.2376  0.1173 -0.0011
13519W        W30366   2.025   6.067  10.854  0.0473  0.3815 -0.3471
13520W        W30367  13.737  13.464   0.900 -0.0459 -0.0712 -0.0779
13521W        W30368  17.153   0.225   0.845  0.2053 -0.0625  0.1008
13522W        W30369  12.880   8.449   3.830  0.0888  0.0583 -0.0867
13523W        W30370  16.846  14.882  11.368 -0.0494 -0.0720 -0.1701
13524W        W30371   3.784   8.502  13.144 -0.2907  0.1900  0.1083
13525W        W30372  14.945   4.632   3.014  0.4029 -0.3839  0.0001
13526W        W30373   1.335  15.619  13.614  0.0724  0.4336  0.1238
13527W        W30374  18.673   0.451  14.129 -0.0541  0.1055 -0.1940
13528W        W30375  13.765  14.138  13.416 -0.0808 -0.0061 -0.1422
13529W        W30376  18.316   9.976   0.819  0.2422 -0.1286  0.0722
13530W        W30377   2.823  11.663  12.011 -0.1092  0.1438  0.0814
13531W        W30378   8.679  19.382  12.680 -0.2499 -0.0397 -0.0860
13532W        W30379  15.794   8.584  11.714  0.1582  0.0671  0.2045
13533W        W30380   6.342  12.088   3.841 -0.0635 -0.0081 -0.0013
13534W        W30381  14.806   1.101  12.429 -0.0989  0.1020  0.0974
13535W        W30382  14.295   9.887  13.207 -0.2004  0.2545 -0.1236
13536W        W30383  10.901   4.846   3.697 -0.0250  0.2423 -0.0126
13537W        W30384  16.652   8.769   3.433  0.1519 -0.1358 -0.1413
13538W        W30385  17.733   1.707   0.609 -0.0303  0.1238  0.2893
13539W        W30386   5.053  10.029   1.485 -0.1541 -0.1618  0.2808
13540W        W30387   0.973   5.891  12.071  0.1287 -0.2420 -0.1021
13541W        W30388  15.988  14.232  12.301  0.2164  0.5686 -0.0939
13542W        W30389   8.783   7.192  10.750  0.4349 -0.2806 -0.1690
13543W        W30390   3.875  15.322   3.249 -0.2368  0.2545 -0.2035
13544W        W30391   8.121   7.336  12.520  0.2425  0.0052  0.0283
13545W        W30392   1.257   0.022   4.739  0.0858 -0.4091  0.1144
13546W        W30393  10.905   6.021  10.198  0.0283 -0.0389  0.0620
13547W        W30394  19.227   7.580   4.630  0.1967 -0.1025 -0.1124
13548W        W30395  11.480   0.421  12.395  0.1231  0.1376 -0.0979
13549W        W30396   0.751  11.213   4.143 -0.1397  0.0167 -0.0935
13550W        W30397  18.673   2.076  13.586 -0.2522  0.3885  0.4606
13551W        W30398  10.817  17.184   1.948 -0.2969  0.2596 -0.0638
13552W        W30399  15.005  18.994  11.876  0.0721  0.0154  0.1434
13553W        W30400  13.562   2.604   2.923 -0.0075  0.0208  0.2825
13554W        W30401  15.852   7.676   5.704 -0.1967  0.1953  0.2137
13555W        W30402  18.810  13.684  12.058  0.2251  0.0543 -0.0546
13556W        W30403  15.392   7.721   0.693 -0.0812  0.0357  0.0671
13557W        W30404  11.349   9.349   2.726 -0.1090  0.1444  0.0865
13558W        W30405  13.435   8.480   2.260  0.1963 -0.0077  0.0776
13559W        W30406   7.088   4.322  13.794  0.1778 -0.1427  0.5842
13560W        W30407   0.428  16.172   9.527  0.2508  0.2664 -0.3780
13561W        W30408  14.096   4.073   1.565 -0.2001 -0.1025  0.0377
13562W        W30409   1.455   2.779  13.704 -0.1088  0.1126 -0.2885
13563W        W30410  14.769   9.909  13.314 -0.2500 -0.1578  0.0941
13564W        W30411  13.532   6.235  11.793 -0.1316  0.2819  0.1518
13565W        W30412   1.000  11.342  13.018 -0.1544 -0.0082  0.2460
13566W        W30413   9.869  15.229  10.152 -0.0253  0.2029 -0.0096
13567W        W30414   7.423  14.406   5.009 -0.0364 -0.0445 -0.0755
13568W        W30415   1.166   7.342   3.572 -0.0567  0.3156 -0.1412
13569W        W30416  14.637   3.308  11.766  0.2724  0.0504 -0.1011
13570W        W30417   9.861  14.420   5.424  0.1368  0.0504 -0.1789
13571W        W30418  16.895   3.970  11.361  0.1221 -0.0064  0.1382
13572W        W30419  13.027  10.046  12.505 -0.1189  0.0630  0.1034
13573W        W30420   1.968   2.653  13.964 -0.0886  0.1307 -0.0496
13574W        W30421   5.982   2.049   3.376 -0.1037 -0.1829 -0.0728
13575W        W30422   4.978   9.755  11.109  0.3317 -0.0587 -0.2364
13576W        W30423   5.690   0.449   2.161  0.1871 -0.2659  0.0123
13577W        W30424  13.475  18.338  10.810  0.0923 -0.0576  0.3939
13578W        W30425   3.037  19.394  10.494  0.2091  0.0895 -0.0356
13579W        W30426   0.582   2.603   2.279 -0.0974  0.0541 -0.0700
13580W        W30427   8.069   7.358   1.019 -0.3104  0.1414 -0.0373
13581W        W30428  12.319   4.298   5.189 -0.2318 -0.3282 -0.1043
13582W        W30429  13.856   6.252   5.768  0.1966 -0.0763 -0.0840
13583W        W30430  10.495  19.173  12.024  0.0835 -0.1382 -0.1562
13584W        W30431   7.335   3.925   3.544  0.0579 -0.1621  0.1362
13585W        W30432  13.875  17.590  12.850 -0.1783 -0.3031  0.2218
13586W        W30433  13.488   5.838  12.418 -0.1049 -0.2145  0.1752
13587W        W30434   8.760  12.106   0.464 -0.0543  0.3124 -0.2302
13588W        W30435   0.140   6.593  10.688 -0.0609  0.3067  0.0194
13589W        W30436  10.412   5.537   3.105 -0.0153 -0.1050  0.1481
13590W        W30437   0.877  16.255   0.502  0.0369 -0.0202  0.1982
13591W        W30438  15.151  16.190   2.976 -0.0220  0.0611 -0.1533
13592W        W30439   1.824   8.890   2.278 -0.2778 -0.0140 -0.0287
13593W        W30440   7.313   3.703   0.973 -0.0473 -0.0569 -0.1359
13594W        W30441  19.637  17.321   3.769 -0.0033 -0.2638 -0.2585
13595W        W30442   8.489   8.383  13.861  0.0530  0.2098 -0.1273
13596W        W30443   7.091   5.623  12.936  0.0716  0.0127 -0.2183
13597W        W30444  11.416  11.158  10.469  0.2590  0.3110 -0.0862
13598W        W30445  15.947   9.278   2.596  0.0404  0.1175  0.2790
13599W        W30446  11.687  19.588  13.987 -0.0087  0.3146 -0.1277
13600W        W30447  15.226   8.819  10.279 -0.1809  0.2217  0.0665
13601W        W30448  10.024   3.560   2.376 -0.1589 -0.0223  0.1738
13602W        W30449  17.986   6.125   4.656  0.1910 -0.0228 -0.0143
13603W        W30450  10.847   7.103   3.783  0.1945  0.3421 -0.1215
13604W        W30451   0.032   1.224   3.420 -0.2724  0.1669  0.0689
13605W        W30452   8.302   1.629   1.968 -0.0038  0.0718  0.0338
13606W        W30453  14.961  12.558   0.777  0.0487  0.1053 -0.0694
13607W        W30454  11.237  13.482   2.869 -0.2221  0.0714 -0.1641
13608W        W30455   5.198  12.287   5.651 -0.3486 -0.3336  0.3251
13609W        W30456   5.642   1.615   0.031 -0.0818 -0.0010 -0.1975
13610W        W30457  16.096   2.216  12.853 -0.0492 -0.0018 -0.0505
13611W        W30458  16.395  19.499   3.708 -0.1729 -0.0132  0.0921
13612W        W30459  14.760  15.749   3.743 -0.0544  0.0680  0.2477
13613W        W30460   6.390   3.021   2.047 -0.1566 -0.0869 -0.0031
13614W        W30461   0.829   3.475  12.724 -0.0612  0.1601 -0.0428
13615W        W30462   4.429   9.636  11.062 -0.3807  0.0780 -0.1639
13616W        W30463  10.128  16.813   2.470  0.0046 -0.0798  0.1758
13617W        W30464   3.713   8.247   9.783  0.2107 -0.1334 -0.0397
13618W        W30465   5.464  12.213   4.490 -0.1951  0.2600  0.2744
13619W        W30466   5.893  14.128   4.812  0.1045  0.0543  0.2614
13620W        W30467   4.268  12.837   0.512  0.1610 -0.2986  0.1903
13621W        W30468   4.369   3.296   1.733 -0.4356 -0.1904 -0.1077
13622W        W30469  12.056  14.692   3.229  0.1456  0.1616 -0.3223
13623W        W30470   4.188  15.525  11.961  0.3512  0.0201 -0.2375
13624W        W30471  17.267  11.646   0.074 -0.0222 -0.0962  0.2168
13625W        W30472  15.485  11.788  10.431  0.0029 -0.2498 -0.1013
13626W        W30473  19.084   4.860   4.052  0.1876  0.1319 -0.4543
13627W        W30474   1.946  17.261   1.830 -0.1036  0.0879  0.1712
13628W        W30475   7.607  13.870   9.865 -0.1193 -0.0415 -0.1329
13629W        W30476  14.132  12.773  11.770  0.1370 -0.1509  0.1307
13630W        W30477  17.279   5.578  12.778  0.1875 -0.0399 -0.1330
13631W        W30478  10.052   9.967   4.533 -0.2664 -0.1521 -0.0945
13632W        W30479  17.112  10.388  13.785 -0.3265  0.0743  0.0544
13633W        W30480  18.649   2.347  11.048 -0.1291 -0.1872 -0.0976
13634W        W30481  19.105   4.370  13.899  0.5275 -0.2022 -0.2313
13635W        W30482   4.640   7.120  11.450 -0.2651 -0.0590  0.0587
13636W        W30483   8.271   2.266   3.953  0.3452 -0.1295 -0.0160
13637W        W30484   4.517  16.204   3.123  0.4228  0.0314 -0.3391
13638W        W30485   5.033   8.366   1.498  0.1375 -0.3491 -0.1378
13639W        W30486  18.295   7.923   3.762  0.1757 -0.1533 -0.1327
13640W        W30487   6.498  10.035   5.587 -0.0713 -0.2676  0.2028
13641W        W30488   3.529  18.530   9.513  0.2849  0.1811 -0.0577
13642W        W30489   5.390   3.127  12.146  0.0802  0.3608  0.0995
13643W        W30490   4.373  17.449  13.398 -0.0604  0.1412  0.2359
13644W        W30491   3.920  19.574  13.776  0.2803  0.0132 -0.1932
13645W        W30492   2.042   5.834  12.854  0.0390  0.2924  0.0631
13646W        W30493   1.767  16.562  13.347  0.0607 -0.0926  0.3181
13647W        W30494  19.227   8.714   2.492  0.2893 -0.1247  0.0369
13648W        W30495  16.159   5.292   3.336  0.0013  0.3879  0.0725
13649W        W30496   8.238  14.030   2.615 -0.1631 -0.6456 -0.0863
13650W        W30497  15.080  18.694   4.411 -0.1172  0.0871  0.2607
13651W        W30498   2.013  13.413   2.567  0.1817  0.2817 -0.0925
13652W        W30499  18.503   0.418  10.546 -0.3173 -0.1554  0.4584
13653W        W30500   1.099   7.894   2.934 -0.0425 -0.1811 -0.2717
13654W        W30501  12.661  18.192   0.619 -0.1470 -0.1094 -0.1058
13655W        W30502   9.300  16.110  11.661  0.3167  0.2473  0.0286
13656W        W30503  14.749   8.022  11.194 -0.0112 -0.0211 -0.2513
13657W        W30504  12.273  13.958   2.031 -0.2746  0.0997 -0.0998
13658W        W30505  12.040  14.741  13.177 -0.0223 -0.1815 -0.0438
13659W        W30506   6.648  17.717   1.257  0.0602 -0.1514  0.0803
13660W        W30507  16.979  14.938   1.954 -0.0132  0.0360 -0.0013
13661W        W30508  17.636  10.560  13.613 -0.3538  0.0051 -0.2935
13662W        W30509  18.014  15.607   5.174  0.2303 -0.1126  0.0721
13663W        W30510   1.208   3.984  13.332  0.0941 -0.1411 -0.1038
13664W        W30511  17.989  13.962   3.591 -0.1183 -0.0604  0.0954
13665W        W30512   2.477  11.724   9.381  0.3314 -0.1498  0.4036
13666W        W30513   4.450   4.778  13.844  0.1562 -0.0948 -0.1928
13667W        W30514   6.129   9.587  10.164 -0.2500 -0.3592  0.1116
13668W        W30515  19.882   4.565   3.683  0.1297  0.2727 -0.0129
13669W        W30516   6.595   5.143  11.717 -0.0932  0.1047  0.1956
13670W        W30517   7.451   8.772  11.646  0.1033  0.0625  0.0503
13671W        W30518   7.827   4.999  14.000  0.3280  0.5456 -0.1111
13672W        W30519   9.453   9.799  12.332  0.0882 -0.0846  0.2226
13673W        W30520  17.188  13.682  13.247  0.3318  0.1337  0.1525
13674W        W30521   9.271  14.868   1.112  0.0619  0.0849  0.2103
13675W        W30522   3.870  17.333   2.149 -0.3100 -0.0688  0.4455
13676W        W30523  17.868   6.230   5.147  0.1011 -0.0284 -0.2573
13677W        W30524  15.353  15.961   4.598  0.1118 -0.1189  0.1113
13678W        W30525   1.932  16.592  12.869  0.0311 -0.0467  0.2054
13679W        W30526   8.909   1.491   0.353 -0.2233  0.3717  0.1802
13680W        W30527   7.547  16.956  13.697  0.0058 -0.2758 -0.0717
13681W        W30528   6.663  15.537  11.345  0.0595  0.2015  0.0351
13682W        W30529   9.100  15.398  14.084  0.1672  0.0872 -0.2070
13683W        W30530   4.714  13.886  10.584  0.2500  0.0291 -0.1274
13684W        W30531  10.524   4.646   0.565  0.3859 -0.0431  0.2936
13685W        W30532   1.629   6.436  13.198  0.0302  0.0715 -0.0124
13686W        W30533  18.525   9.542   3.212 -0.1488  0.1176  0.2206
13687W        W30534  18.427  19.756  10.860  0.2334  0.0242  0.2150
13688W        W30535  15.116  14.003  12.512  0.0174  0.0417  0.1933
13689W        W30536   1.146  15.857   0.856 -0.0698  0.0639  0.1937
13690W        W30537   2.138   5.398   4.926  0.4969  0.0010 -0.2766
13691W        W30538  17.210  10.081   1.531  0.1349  0.0743 -0.1029
13692W        W30539   1.886   4.116  12.172  0.0783  0.1786  0.4740
13693W        W30540  16.823   1.941   0.625 -0.2182 -0.3163  0.0714
13694W        W30541  11.781   6.255   2.312 -0.0046 -0.1862  0.1476
13695W        W30542   3.639   7.532   3.030  0.1927 -0.1664 -0.0824
13696W        W30543  19.670  13.245   1.248 -0.2022  0.1056 -0.1820
13697W        W30544  11.017   8.036  13.206 -0.1037  0.1817  0.2904
13698W        W30545   6.870  18.272   1.958  0.3187  0.4710 -0.2162
13699W        W30546   3.878   6.224   4.487 -0.1439  0.1805 -0.0827
13700W        W30547   4.203   6.153   1.801 -0.1665 -0.0978 -0.1719
13701W        W30548  11.533   0.969  10.091  0.3109  0.2465 -0.1266
13702W        W30549   4.705   7.232  12.913 -0.1709  0.0469 -0.2787
13703W        W30550  18.434   6.542   2.689 -0.3095  0.0904 -0.0070
13704W        W30551  10.545   1.525   0.581  0.1401  0.4248  0.0279
13705W        W30552  16.188   4.326  12.218 -0.0508 -0.0796  0.1206
13706W        W30553   2.743   8.716   1.662  0.1130 -0.0886 -0.1011
13707W        W30554  10.982  13.501   3.605  0.1361 -0.0543  0.2035
13708W        W30555   4.247   1.945   2.822  0.1312  0.4183 -0.0431
13709W        W30556  18.804  12.872  13.113  0.0962  0.4658 -0.1322
13710W        W30557   8.298   8.353   5.144 -0.2642 -0.0749 -0.1365
13711W        W30558  17.111   5.333   3.083  0.3577  0.2405 -0.0235
13712W        W30559   0.231   2.445  10.641 -0.0026  0.1149  0.1543
13713W        W30560  17.655  12.563  13.835 -0.0211 -0.2527 -0.0246
13714W        W30561   4.826   0.870  12.735 -0.1388 -0.1684  0.0570
13715W        W30562  19.753   5.950  11.920 -0.0852 -0.2463 -0.2237
13716W        W30563  12.164  16.095   1.288  0.2757 -0.0005 -0.1490
13717W        W30564  12.470   0.512  10.847 -0.2590  0.2408  0.1957
13718W        W30565  10.662   8.196   4.564  0.1455 -0.3357  0.3194
13719W        W30566  11.603  16.529   4.865  0.2261  0.0182 -0.0360
13720W        W30567   9.680  14.630   9.565  0.0684  0.0056  0.2442
13721W        W30568   2.386   7.088   3.449 -0.0288 -0.1767  0.0914
13722W        W30569   5.168  14.145   0.914 -0.1328 -0.0466 -0.1267
13723W        W30570   3.898   3.265   1.950 -0.0864  0.3940 -0.2425
13724W        W30571  17.819  15.203  13.610 -0.4130 -0.0913  0.1795
13725W        W30572  10.852  12.298   3.166 -0.2002 -0.4896 -0.0049
13726W        W30573   5.350   0.683  11.585 -0.0559  0.1588 -0.0649
13727W        W30574   0.243  11.394   0.614  0.0130  0.0069 -0.0932
13728W        W30575   7.838   1.733  10.411 -0.1292 -0.3078 -0.2638
13729W        W30576  16.959   9.732   2.949  0.1557  0.1689  0.0097
13730W        W30577   2.583   3.169   4.238 -0.1643  0.1864 -0.1196
13731W        W30578   9.571  18.058   0.074 -0.1002 -0.0968 -0.1271
13732W        W30579   0.100  15.926  13.213  0.4618 -0.1754 -0.0669
13733W        W30580   1.491  13.651  13.706  0.1913  0.2142  0.2567
13734W        W30581  10.217   7.870   1.901 -0.1745  0.1723 -0.1755
13735W        W30582   1.724  11.151   3.062  0.0602  0.0532 -0.2110
13736W        W30583   8.414   4.977  12.871  0.1534  0.0159  0.1836
13737W        W30584   5.109   2.819   2.296  0.4188 -0.0185  0.1797
13738W        W30585   5.054  15.707   4.428 -0.1201  0.0622  0.3169
13739W        W30586   9.629   5.561   0.262 -0.3147 -0.0801 -0.1372
13740W        W30587   8.399  18.976   2.492  0.0979 -0.1045  0.3336
13741W        W30588  15.710  12.588  14.305  0.2168 -0.0068  0.0428
13742W        W30589   2.604   9.842   4.432  0.0144  0.2114 -0.2115
13743W        W30590  19.140   7.587  11.579 -0.0137 -0.0810 -0.0161
13744W        W30591   6.349   3.480   3.825 -0.0107  0.0572 -0.1187
13745W        W30592  14.725   0.283  13.905 -0.2616 -0.0129 -0.0688
13746W        W30593   8.381   2.529  12.968 -0.1028  0.0009  0.3457
13747W        W30594   9.907   1.959   2.767 -0.0958  0.1004  0.1019
13748W        W30595   4.848   7.231  13.918  0.1291  0.1351 -0.0262
13749W        W30596  10.727  10.758   1.836  0.2332  0.2766 -0.0340
13750W        W30597   8.857  15.291  12.084  0.3218  0.1297 -0.5794
13751W        W30598   8.993   3.360  13.933 -0.0373  0.2106  0.2847
13752W        W30599   0.436   1.888  14.238  0.3460 -0.3695 -0.0017
13753W        W30600   3.503   0.167   2.606 -0.0118  0.1078 -0.0187
13754W        W30601   9.862   5.691   1.306  0.3330  0.0659 -0.0802
13755W        W30602   1.808   0.140   0.572 -0.0597 -0.0995  0.0658
13756W        W30603  10.107   0.515   1.945  0.2580 -0.3624  0.1565
13757W        W30604  11.443   7.866  11.488  0.2162 -0.2932 -0.3358
13758W        W30605   4.289  19.399  11.720  0.0580 -0.1425  0.0468
13759W        W30606   8.836  11.887   1.483 -0.0645 -0.3944  0.3617
13760W        W30607  10.448   2.940   3.541  0.0189 -0.0873 -0.0843
13761W        W30608   8.590   9.649   3.993 -0.1633  0.0887  0.1090
13762W        W30609   6.125   4.732   2.628  0.1151  0.2654 -0.1088
13763W        W30610  18.794   5.674  13.381  0.0485  0.0592 -0.2440
13764W        W30611  18.624   8.312   3.411  0.1946 -0.0798  0.3662
13765W        W30612   7.907   8.084   1.549 -0.1042 -0.0506  0.1430
13766W        W30613   4.377  15.974  11.974  0.1999 -0.0669  0.0086
13767W        W30614  10.037   2.025   1.058 -0.0226  0.0249 -0.0282
13768W        W30615  17.490   4.421  10.438  0.0891 -0.1112  0.2549
13769W        W30616  14.284  15.281  11.078 -0.0013  0.0953  0.0271
13770W        W30617   6.383  19.043   0.492  0.3121  0.0636  0.0722
13771W        W30618   5.588  17.383   4.499  0.0932 -0.1293  0.0859
13772W        W30619   9.903   9.063  13.316 -0.0329 -0.2512  0.1769
13773W        W30620   4.641   5.905   9.389 -0.1716  0.0500 -0.3829
13774W        W30621   6.567   6.969   3.447 -0.1679 -0.1205 -0.1530
13775W        W30622   1.539  11.368   0.981 -0.0461 -0.1771  0.0057
13776W        W30623   6.658   7.740   3.020  0.0153  0.1145  0.1361
13777W        W30624   5.041   9.589   4.293  0.0751 -0.3927  0.0106
13778W        W30625   5.346  14.209   3.012 -0.2639 -0.1346 -0.0105
13779W        W30626   7.980   2.301   3.560  0.1019 -0.1488 -0.0271
13780W        W30627   4.633   2.228   3.070 -0.1887  0.0618  0.0427
13781W        W30628  14.642  17.758   0.842  0.0995  0.2493 -0.1708
13782W        W30629  10.002  19.327  10.768  0.0628  0.1640  0.0662
13783W        W30630  16.091  14.694  14.208 -0.0996 -0.1147 -0.1650
13784W        W30631   6.673   2.265  13.878 -0.0530 -0.1136  0.1046
13785W        W30632   8.388   8.550   4.440 -0.1769 -0.2680 -0.0427
13786W        W30633   3.395   2.245   3.155 -0.0676  0.0232 -0.0302
13787W        W30634  19.552   8.842  11.358  0.0216 -0.3461  0.1587
13788W        W30635   8.835   6.875  10.352  0.1659  0.2714 -0.0758
13789W        W30636  14.868  16.024   4.323 -0.0187  0.0239 -0.1180
13790W        W30637   2.101  17.928   4.953  0.0809  0.2637  0.1312
13791W        W30638   2.125  10.473  13.620  0.1164 -0.3409 -0.1471
13792W        W30639   1.930  10.612  10.840  0.2858  0.0441 -0.2870
13793W        W30640  12.546  19.411   1.440  0.1060  0.2334 -0.0535
13794W        W30641   6.889  11.816   0.069 -0.0261 -0.0537 -0.0784
13795W        W30642   2.288   3.757   3.380 -0.1523 -0.2154 -0.2562
13796W        W30643  19.797   8.927  10.436  0.1980 -0.5748 -0.0267
13797W        W30644  11.858  18.755   3.432  0.3710 -0.2430 -0.3219
13798W        W30645   5.154  17.388   0.036 -0.1410  0.2043 -0.2826
13799W        W30646   9.579  11.886   3.232 -0.2195  0.0707 -0.0769
13800W        W30647   9.304  19.405   1.263  0.2090  0.3886 -0.0868
13801W        W30648  10.006  17.508  12.115  0.1534 -0.1668 -0.1784
13802W        W30649   9.144  19.381   3.688  0.3045  0.0310  0.3263
13803W        W30650   2.878  12.448   2.628 -0.0216  0.3736 -0.0929
13804W        W30651   4.260  19.798   4.761  0.1550  0.2324  0.0022
13805W        W30652   3.018  10.973   1.703  0.1246 -0.1893 -0.0889
13806W        W30653   1.419   9.221   1.966 -0.2583  0.3131 -0.1744
13807W        W30654   7.022  19.037   1.016 -0.2464  0.1294 -0.3062
13808W        W30655  19.270   4.181   1.659 -0.0766  0.3736 -0.0498
13809W        W30656  13.841  19.842   0.564 -0.0218  0.1093 -0.0051
13810W        W30657   5.340  13.821  12.344  0.3880  0.0755  0.2382
13811W        W30658  18.886   1.266  12.447  0.2752 -0.0351  0.1126
13812W        W30659  16.727   2.057   3.351 -0.4998  0.1975  0.0004
13813W        W30660   6.486  13.903  11.913  0.1564  0.3242  0.1906
13814W        W30661  13.988   3.484  11.246 -0.1546  0.0356 -0.0307
13815W        W30662  16.819  13.304  11.223 -0.0982  0.0820 -0.0021
13816W        W30663   2.209   8.475  13.014 -0.0995 -0.0682  0.0547
13817W        W30664  10.560   8.070   1.519 -0.3395  0.2199  0.0402
13818W        W30665  19.239   8.789   0.569 -0.0262 -0.0312  0.2089
13819W        W30666   4.100   7.730  13.262 -0.0221 -0.1408  0.0105
13820W        W30667  18.355   1.878   2.933 -0.1538  0.2450  0.0754
13821W        W30668   6.154  10.903   1.548 -0.0362 -0.1734 -0.0287
13822W        W30669  19.662  17.752  13.351 -0.1857 -0.1057 -0.1026
13823W        W30670  13.863  12.367   3.247  0.0691  0.0218 -0.0898
13824W        W30671   1.000   0.979   9.756 -0.1783 -0.1053 -0.1128
13825W        W30672   0.476   8.227   4.948  0.1452  0.1147  0.2728
13826W        W30673  10.628  13.945   1.600 -0.0849 -0.1578  0.0275
13827W        W30674  12.006   1.542   0.278  0.0771 -0.2998  0.0080
13828W        W30675  14.780   7.755   3.108 -0.3109  0.0597 -0.1923
13829W        W30676  11.255  13.399   0.916  0.1403  0.1445  0.2465
13830W        W30677   6.944  11.729   2.422  0.1533 -0.2199 -0.1814
13831W        W30678   5.150   2.879  12.712  0.0271  0.0243 -0.0927
13832W        W30679   2.901  10.076   1.966 -0.2446  0.1284  0.0849
13833W        W30680   1.122   2.288   2.945 -0.1683  0.1018 -0.1601
13834W        W30681   2.719  13.959   2.985 -0.2134  0.1633  0.1673
13835W        W30682  12.535   0.867   3.674  0.0728  0.1464 -0.1577
13836W        W30683   7.033   6.424  12.623 -0.0479  0.0849 -0.2890
13837W        W30684  13.050   0.007   0.307 -0.3652 -0.1086 -0.2727
13838W        W30685   9.848  17.580  11.109  0.1467  0.2018  0.4517
13839W        W30686  15.118  16.228   3.908  0.0735 -0.0725  0.0055
13840W        W30687  18.975   1.114   1.890  0.1742 -0.1655 -0.0870
13841W        W30688  12.202  10.473   4.129 -0.2403  0.0022  0.0678
13842W        W30689   9.514  15.437   9.033  0.2163  0.0459 -0.0114
13843W        W30690  19.656   9.954  10.941 -0.1966 -0.2041 -0.0184
13844W        W30691   0.553  16.700   3.674  0.1752 -0.1499  0.1934
13845W        W30692  13.804  11.772   3.559 -0.0934 -0.0820 -0.0345
13846W        W30693   9.292   9.134  12.798  0.0154 -0.0729  0.1736
13847W        W30694  12.348   9.642  14.228  0.1340  0.1253 -0.1507
13848W        W30695  10.027  15.213  12.907 -0.0124 -0.3001  0.0619
13849W        W30696   6.751  15.043   3.215  0.0198  0.2146 -0.1509
13850W        W30697   5.062  17.585  12.164 -0.0004  0.2048 -0.1133
13851W        W30698   5.936   9.958   2.075  0.2136  0.3621 -0.0613
13852W        W30699   2.528   8.486   0.322  0.2851 -0.1358  0.1328
13853W        W30700  12.195   1.759   0.808 -0.0213  0.0015  0.3083
13854W        W30701  17.450  14.492   1.009 -0.2572  0.0926  0.0904
13855W        W30702   3.966   8.358  12.229  0.0287  0.0354 -0.1961
13856W        W30703   7.282   6.819   3.840  0.2527 -0.2936  0.1300
13857W        W30704  13.494   9.721   9.671  0.0172  0.0455 -0.1369
13858W        W30705  11.498   4.715  13.604 -0.0466  0.4374  0.0126
13859W        W30706  17.858   9.125  11.947 -0.1156  0.0223  0.1460
13860W        W30707   1.559   8.014   1.936 -0.1500  0.0567 -0.1062
13861W        W30708   1.128  15.802   3.471  0.0452  0.2583  0.0044
13862W        W30709   2.016   5.821  12.340  0.1549  0.0351  0.3358
13863W        W30710   7.690   6.934   0.577 -0.0539 -0.0737  0.0355
13864W        W30711   0.243  17.183   2.850 -0.0349  0.1015 -0.0955
13865W        W30712  15.668   0.534  10.451  0.0196 -0.1899 -0.3000
13866W        W30713   2.823   6.249   4.054 -0.0647  0.0233 -0.1269
13867W        W30714  14.666   5.335  12.477 -0.1312  0.1582 -0.0713
13868W        W30715  12.635  14.407   2.255  0.1229 -0.0613 -0.1195
13869W        W30716  10.805   0.445   3.579  0.1374 -0.3954 -0.1258
13870W        W30717   0.612  12.258  11.056  0.0336  0.1936 -0.1972
13871W        W30718  15.928  10.742  12.514 -0.1343 -0.1655 -0.1132
13872W        W30719   5.097  12.811   4.236  0.0129  0.3860  0.2328
13873W        W30720  18.950  18.499   4.502  0.1754  0.0388  0.3007
13874W        W30721  16.981   6.663   4.357  0.3190 -0.0752 -0.2497
13875W        W30722   9.286   1.925   0.317 -0.1730  0.2182  0.1150
13876W        W30723  10.510  14.008  11.475 -0.0383 -0.1774 -0.2303
13877W        W30724   0.123   9.796   1.838 -0.2132 -0.0565  0.0922
13878W        W30725  13.841   2.448   3.557 -0.1974 -0.2999  0.0603
13879W        W30726  19.759  11.575   4.027 -0.2491 -0.3331 -0.2823
13880W        W30727  12.392  19.819   1.183 -0.1869 -0.2839  0.1590
13881W        W30728  10.408   5.600  13.731  0.1978 -0.2327 -0.1229
13882W        W30729  10.659   9.328   2.073 -0.2033  0.0642 -0.1079
13883W        W30730  16.673   1.143  13.953 -0.0060  0.3466  0.0873
13884W        W30731   6.233   5.251   2.649  0.2671  0.1621 -0.2127
13885W        W30732   3.174   2.775   2.270  0.1043 -0.0068  0.1997
13886W        W30733  13.063  14.777  12.304 -0.1428 -0.0501 -0.0550
13887W        W30734   3.877   6.920  11.448  0.1220  0.2746  0.1588
13888W        W30735   7.489   3.297   1.775 -0.0315  0.2386 -0.1795
13889W        W30736  11.642  19.100  10.937 -0.0841 -0.1994 -0.2120
13890W        W30737  16.393  14.032   4.691  0.2169  0.0514  0.0818
13891W        W30738  12.518  12.240  13.646  0.3023  0.2499  0.2124
13892W        W30739  15.047  12.421  10.936 -0.1023 -0.1989 -0.0140
13893W        W30740   9.007   6.249   4.497 -0.0872 -0.0000  0.0449
13894W        W30741  16.067   6.092   1.893 -0.1349 -0.2672 -0.3510
13895W        W30742   3.976   1.506  11.516  0.1944 -0.1572 -0.1665
13896W        W30743  16.848  17.081   0.401 -0.0494  0.0544 -0.1342
13897W        W30744   4.136   5.910  10.430 -0.4887  0.0193  0.2333
13898W        W30745   4.939  13.169   9.453 -0.1070 -0.0220 -0.2847
13899W        W30746   6.508   0.658   0.488  0.0462  0.1833 -0.0417
13900W        W30747   0.854   1.194   4.938  0.0272  0.1247  0.0444
13901W        W30748   2.746   9.383   1.071 -0.2147  0.2639 -0.2587
13902W        W30749  15.597   8.498  13.551  0.0424 -0.0801  0.2698
13903W        W30750   2.241  12.193   3.700 -0.0245 -0.0234 -0.1105
13904W        W30751  10.333   8.408   4.882 -0.0177  0.2618  0.1003
13905W        W30752   0.218   0.573   9.774 -0.1230 -0.1637 -0.1327
13906W        W30753  17.184  13.713   0.227 -0.1170 -0.2618  0.1238
13907W        W30754   4.135   4.950   0.393 -0.3641  0.2483  0.1302
13908W        W30755  19.665  15.431   3.588 -0.2685 -0.0169 -0.2591
13909W        W30756   3.542   4.797   9.917 -0.4174  0.2081 -0.2664
13910W        W30757   2.383  18.985  13.962 -0.1785  0.1212  0.2189
13911W        W30758  18.304  18.312  12.895 -0.1501 -0.0997  0.1312
13912W        W30759  19.297   9.611  11.048 -0.0349  0.0345 -0.4333
13913W        W30760  13.020  19.258   0.607  0.0705 -0.0477 -0.3657
13914W        W30761   0.948   3.223  14.290 -0.5748  0.4651  0.0526
13915W        W30762   6.947   6.668  10.900  0.0668 -0.0597  0.0222
13916W        W30763  13.457  13.712   2.329  0.4117  0.5453  0.0552
13917W        W30764  14.610  10.706  12.929 -0.0308 -0.2902 -0.1377
13918W        W30765   3.028   4.555  11.769 -0.1619 -0.1490  0.0088
13919W        W30766  11.249  18.822   1.582 -0.2986  0.0100  0.0238
13920W        W30767  15.727  19.201   1.588  0.0385 -0.1296  0.0105
13921W        W30768  17.930   0.706   0.347  0.1868  0.3232  0.1301
13922W        W30769  14.528   4.479   1.638  0.1618 -0.0685 -0.0092
13923W        W30770   7.354   3.255   1.250  0.0594 -0.0392 -0.2335
13924W        W30771  10.303   0.081  14.079 -0.0079 -0.0967 -0.0375
13925W        W30772  17.068  18.390  13.721  0.0852  0.2552  0.0577
13926W        W30773  10.260  11.871   4.772 -0.0465  0.0880  0.1794
13927W        W30774  11.711   5.439   1.924 -0.3545 -0.2318 -0.0450
13928W        W30775   2.451   6.303   2.321 -0.0154  0.2160  0.0400
13929W        W30776   3.791   9.981  13.109  0.0685  0.0736 -0.1187
13930W        W30777   5.817   5.035   1.355 -0.1533  0.1557  0.4015
13931W        W30778   3.185  15.342  10.866  0.0429 -0.2716  0.0944
13932W        W30779   6.804   1.620  11.144 -0.2491 -0.1052  0.2266
13933W        W30780  14.975  10.561   2.493 -0.2401 -0.1935  0.1198
13934W        W30781   3.678  11.925   0.423  0.1073  0.2974  0.2820
13935W        W30782   3.191   6.858   2.803 -0.0454  0.0542  0.0861
13936W        W30783  10.232   8.075   3.136  0.0778  0.0087  0.2078
13937W        W30784   8.202  11.100  13.498 -0.0994 -0.2052  0.2703
13938W        W30785  14.134  14.823   3.336  0.0941  0.0513  0.0558
13939W        W30786   7.115  11.728   3.588  0.2375 -0.2848  0.2053
13940W        W30787   0.933  15.845  10.932  0.0970  0.0179  0.1477
13941W        W30788   1.645   2.331  10.842 -0.2885 -0.0623  0.4546
13942W        W30789   5.132   0.675   3.701  0.2474  0.3312  0.3003
13943W        W30790   5.630   6.694   3.191  0.1374 -0.5627 -0.0417
13944W        W30791   5.135  17.451   1.383 -0.2554 -0.3013  0.0542
13945W        W30792   9.975  14.683  14.001 -0.2194  0.0850 -0.1503
13946W        W30793  10.062   6.079   1.656  0.2057  0.0645  0.1748
13947W        W30794   3.682  12.034   1.526 -0.0698  0.2553 -0.0986
13948W        W30795   9.383  11.311  11.972  0.0208  0.1584  0.0468
13949W        W30796   4.725   9.631   9.042  0.2751 -0.3309  0.4253
13950W        W30797  19.076   5.832  13.025  0.2423 -0.2920  0.3712
13951W        W30798   3.892   9.898  10.833  0.1410  0.1561 -0.1056
13952W        W30799  15.781  17.303  13.080  0.0738 -0.0993 -0.1899
13953W        W30800   8.987   8.466   2.005 -0.0904 -0.2629  0.0997
13954W        W30801   9.875  12.730  10.813  0.2607  0.0239  0.2332
13955W        W30802  10.589  11.252  11.301 -0.1474 -0.0073 -0.2693
13956W        W30803   7.273   8.511   1.861  0.0756  0.2625  0.1453
13957W        W30804  15.830   8.359  10.302  0.0378  0.2768 -0.1000
13958W        W30805   6.286   5.051   3.597  0.0293 -0.3571 -0.2246
13959W        W30806  11.290  13.122   2.425  0.0663 -0.0578  0.2499
13960W        W30807  15.300  17.344  13.315 -0.0550 -0.1116 -0.1400
13961W        W30808  18.334  16.991   1.213 -0.1066  0.0836 -0.0771
13962W        W30809   8.846   2.070  11.597 -0.2073 -0.0884  0.0115
13963W        W30810   0.692   0.249   3.740  0.2828 -0.0395 -0.0989
13964W        W30811  17.716   5.486  10.328  0.1021  0.1476 -0.2525
13965W        W30812   9.793  11.898  11.186 -0.0885  0.0997  0.2516
13966W        W30813   4.685  12.815   1.777  0.0080  0.2111  0.2874
13967W        W30814   7.175  14.475   1.920 -0.0771  0.2511 -0.1678
13968W        W30815   4.434  18.242   1.283  0.3076  0.1699 -0.0450
13969W        W30816   1.388  17.957   1.005  0.0812 -0.0779  0.0482
13970W        W30817  15.777  16.292   3.142  0.1585 -0.2190  0.0767
13971W        W30818  19.836  17.847   1.017  0.4543 -0.1259  0.0428
13972W        W30819  12.332  16.025  11.331 -0.0612 -0.1016  0.1338
13973W        W30820  17.144   8.568  11.622 -0.1512  0.0011  0.1832
13974W        W30821  17.575  19.536  10.521  0.2718  0.0892 -0.2105
13975W        W30822  18.437  14.057   2.322  0.1623  0.3656 -0.1555
13976W        W30823  19.843  18.975  11.491  0.2910  0.2805 -0.3589
13977W        W30824  16.466   2.759  11.887 -0.3025  0.0108  0.1741
13978W        W30825  19.781  17.885   1.873  0.1031 -0.1378 -0.3106
13979W        W30826  11.260   0.041  11.219 -0.0174 -0.0303  0.2499
13980W        W30827  10.460  11.549  13.701 -0.0456  0.0411 -0.2338
13981W        W30828  14.089  15.925   5.186 -0.0730 -0.3519 -0.0875
13982W        W30829   8.119   3.312   0.726  0.2370 -0.1865 -0.1943
13983W        W30830  12.519  18.607   2.740  0.1880  0.2559 -0.0436
13984W        W30831   6.465   8.746  13.971  0.4644  0.2002 -0.1160
13985W        W30832   1.577  16.080   2.807 -0.1236  0.1713 -0.1773
13986W        W30833   0.596  15.886   1.548 -0.0829 -0.0475  0.0146
13987W        W30834   7.534  14.149   2.552 -0.1984 -0.2044 -0.3096
13988W        W30835  12.799   6.057  13.816  0.0230 -0.1073 -0.2399
13989W        W30836  10.965  13.873  10.062 -0.0494 -0.3202 -0.0227
13990W        W30837   9.846   9.962  13.344  0.0598 -0.0273  0.0489
13991W        W30838   4.976  19.307   2.988 -0.0539 -0.2322 -0.1708
13992W        W30839  17.360   9.118  11.807 -0.0041  0.0892  0.1598
13993W        W30840  19.627  13.479  11.307  0.3275  0.2836 -0.1713
13994W        W30841   7.916   8.955   2.677  0.1564 -0.3196 -0.0106
13995W        W30842   3.855   7.942   2.160 -0.3763  0.2552  0.0208
13996W        W30843   5.078  11.578   2.393 -0.1669 -0.0670 -0.1074
13997W        W30844   0.608  13.099  10.254  0.0492 -0.3619  0.0614
13998W        W30845  11.143   4.863   2.976  0.0272 -0.1264 -0.1071
13999W        W30846   3.040   3.686  11.156 -0.2278  0.2623 -0.0942
14000W        W30847  14.656  16.413  13.651  0.0751 -0.1659 -0.0666
14001W        W30848   9.251   9.379   0.921  0.0604 -0.1608  0.3503
14002W        W30849  16.035   2.946  12.573 -0.0274 -0.0062 -0.0109
14003W        W30850   0.261   9.026  11.824 -0.1337 -0.3257  0.0466
14004W        W30851  15.883   2.372   4.360  0.0432  0.0963  0.1886
14005W        W30852  19.042  12.893   2.857  0.0037 -0.0059  0.2290
14006W        W30853  19.712  13.334   9.715 -0.0048 -0.0473  0.0193
14007W        W30854  16.931  11.134   0.582 -0.0790  0.1223 -0.1143
14008W        W30855  10.745   9.807  12.491  0.0891 -0.0211 -0.0475
14009W        W30856   3.015   1.878   3.430  0.1113  0.0739 -0.2718
14010W        W30857  10.238  17.364  13.457 -0.1541  0.0325 -0.4253
14011W        W30858   2.772   4.436   3.990  0.0275  0.0584  0.2169
14012W        W30859   1.879   9.014  11.299  0.0650 -0.0187 -0.2949
14013W        W30860   0.185  17.897  13.338  0.0741 -0.1456  0.0699
14014W        W30861  17.518   2.293   1.461  0.0581  0.0126  0.2195
14015W        W30862   9.479   2.377  11.083 -0.2430 -0.3437  0.0460
14016W        W30863  14.895  14.337  12.128  0.0211  0.3897 -0.0461
14017W        W30864  13.192  18.197  13.892  0.1838 -0.2006 -0.0490
14018W        W30865  11.748  12.628  11.894  0.1834 -0.0176  0.1174
14019W        W30866   2.615  12.703   9.838  0.0647 -0.2435 -0.2009
14020W        W30867  19.618  11.474   1.603  0.1837 -0.2411  0.1930
14021W        W30868  14.594   3.790  11.437  0.0451  0.2452  0.0602
14022W        W30869   1.039  12.390   2.995 -0.2969 -0.0070  0.3105
14023W        W30870   2.334  12.771  10.843 -0.2511 -0.0546  0.0967
14024W        W30871   7.214  19.735   0.396 -0.1565  0.0574 -0.0488
14025W        W30872  11.435  11.649  10.140  0.0028  0.2619 -0.1756
14026W        W30873   9.124  14.587  10.328 -0.3130 -0.0795  0.1795
14027W        W30874   2.752   1.901   1.240 -0.1996 -0.2747 -0.0684
14028W        W30875  17.707  10.394   9.623 -0.0023 -0.0494  0.0547
14029W        W30876   9.113   3.178   0.697 -0.0547  0.1577  0.1961
14030W        W30877  14.240   5.525   0.770  0.0511  0.1317 -0.1520
14031W        W30878  12.437  12.094   1.235 -0.3100  0.0749 -0.0033
14032W        W30879  15.642  11.917   3.673 -0.1773  0.0300  0.1591
14033W        W30880   8.872  13.986  12.641 -0.1085 -0.0551  0.0628
14034W        W30881   2.675  13.098   1.257 -0.2798  0.0842 -0.0283
14035W        W30882  19.189   6.074  12.551 -0.0698 -0.5023  0.1372
14036W        W30883  17.306  14.023   1.912 -0.1998  0.1534  0.0386
14037W        W30884   1.742   4.605  13.027 -0.1042 -0.3206  0.3196
14038W        W30885  11.116  16.516   4.842 -0.0323  0.0123  0.0388
14039W        W30886  13.407  10.354   3.201  0.0178  0.0736  0.1748
14040W        W30887  12.680  10.530  13.317  0.0228  0.1494 -0.0182
14041W        W30888  12.750  12.159   8.811 -0.0736 -0.2531 -0.1204
14042W        W30889   4.506   8.806   9.921  0.1448  0.2012  0.3095
14043W        W30890   7.031   6.493   1.308 -0.2923  0.0827 -0.1276
14044W        W30891  16.027   4.751   3.457  0.1977 -0.4351 -0.1358
14045W        W30892   7.026   8.593  13.161 -0.0513  0.0857  0.1682
14046W        W30893   2.912   2.882   9.666  0.1300  0.3296  0.3427
14047W        W30894  18.451  19.605  10.344 -0.1553  0.1610  0.1557
14048W        W30895  11.720  17.447  12.061  0.2157 -0.4251 -0.3328
14049W        W30896  14.932   8.349   4.344 -0.0873 -0.2776  0.0234
14050W        W30897   7.541   9.759   1.518  0.1106 -0.0884  0.0273
14051W        W30898   4.729   6.107   1.864 -0.3210 -0.5194  0.0263
14052W        W30899  17.462  10.565  13.049 -0.0449 -0.0903  0.0281
14053W        W30900   6.893  19.625   2.882 -0.1471 -0.1825  0.2271
14054W        W30901  10.093   4.852   1.757  0.2702  0.0017  0.2266
14055W        W30902   4.201   9.465  10.622 -0.0775  0.2908  0.0994
14056W        W30903  18.352   6.436   3.591 -0.1401 -0.2242  0.5600
14057W        W30904  12.809  15.293  13.624  0.0163  0.1031 -0.1533
14058W        W30905   2.973   6.415   4.533 -0.1079 -0.2794  0.0550
14059W        W30906   1.028  12.930  12.199 -0.1396 -0.0200 -0.0476
14060W        W30907  18.932  10.811  13.914 -0.3227 -0.0265 -0.2273
14061W        W30908   8.358   1.156  13.588  0.2387  0.1728 -0.1215
14062W        W30909  16.041  17.840  13.024 -0.3517  0.0121  0.2039
14063W        W30910  11.780   2.054   3.216  0.3096 -0.0300  0.1273
14064W        W30911  16.207  17.169   1.286  0.1683  0.1720  0.1870
14065W        W30912   2.968   7.955  10.014  0.1360 -0.1492 -0.2821
14066W        W30913   3.148   6.493   2.329 -0.1526  0.1771  0.0697
14067W        W30914   4.240  19.424   1.337 -0.0204  0.0236  0.1400
14068W        W30915   5.063   7.940   3.121 -0.0788  0.1609 -0.0453
14069W        W30916   8.944  14.455   1.591  0.0745 -0.0704  0.0650
14070W        W30917  16.698  12.072  10.441  0.0886  0.1119 -0.3718
14071W        W30918   6.710  17.990  13.804 -0.0065  0.2871  0.0257
14072W        W30919   8.239  10.672   3.802 -0.1149 -0.0862 -0.2434
14073W        W30920   2.916  19.722  10.924 -0.2261 -0.0978 -0.1501
14074W        W30921  12.080   3.828  13.274 -0.1162 -0.4850 -0.0872
14075W        W30922  16.520   3.445   3.863 -0.0636 -0.1634  0.0308
14076W        W30923   2.856   2.593   3.684  0.3951  0.3660 -0.3460
14077W        W30924   5.124   1.438   5.293  0.2462 -0.2606 -0.4326
14078W        W30925  18.821  13.118   1.069  0.1272 -0.0011  0.2429
14079W        W30926  13.894   6.774   2.010 -0.2317  0.1309  0.2046
14080W        W30927  10.731   5.606   2.008  0.0426 -0.0464  0.0420
14081W        W30928   3.139   3.213   1.474  0.0971 -0.0375  0.0787
14082W        W30929   4.949  18.206   3.061  0.1065  0.1128 -0.2560
14083W        W30930  19.156   2.956  13.013 -0.1147 -0.1208 -0.0256
14084W        W30931  14.399   4.671  11.513  0.0070 -0.0796  0.2437
14085W        W30932  16.789   6.612   0.007  0.1372 -0.1160 -0.1651
14086W        W30933  18.940   7.272  11.273  0.0565 -0.1342  0.0723
14087W        W30934  18.817  11.472   0.397 -0.2844  0.0356 -0.0902
14088W        W30935  14.715  16.764   0.504 -0.1372  0.0474  0.2288
14089W        W30936   1.823  10.251  11.742 -0.0711 -0.0104 -0.4828
14090W        W30937  10.569  12.214   4.481  0.0520  0.2025 -0.0966
14091W        W30938  11.920  12.236   4.893 -0.1276  0.2210  0.2188
14092W        W30939   5.111  11.852   3.359 -0.1404  0.2014 -0.1709
14093W        W30940  19.278   7.774   3.790 -0.1802  0.0576 -0.2456
14094W        W30941   6.227  15.935   3.963  0.3139  0.4804  0.0345
14095W        W30942   7.459  10.037   3.535  0.1708  0.4006  0.1434
14096W        W30943  13.644   5.554  13.039 -0.0706  0.0222 -0.1692
14097W        W30944   9.376  15.235  13.696 -0.1853 -0.2416 -0.0865
14098W        W30945   1.457   3.725  11.910 -0.0376  0.1940  0.0692
14099W        W30946   9.639   5.681   8.887 -0.1592  0.1853 -0.2458
14100W        W30947   2.025  17.333   3.412 -0.0829 -0.1421  0.0679
14101W        W30948  16.342   6.500   1.996  0.3519 -0.2138  0.1011
14102W        W30949   9.195   7.762   0.859  0.1591 -0.2669  0.2589
14103W        W30950   4.108  14.084   4.148 -0.2863  0.2039 -0.2787
14104W        W30951   5.146  17.076  12.941  0.1234 -0.1893 -0.1840
14105W        W30952   7.786  17.128  11.444  0.2477  0.3435  0.0177
14106W        W30953   2.043   1.487   0.303 -0.1165 -0.2682 -0.1352
14107W        W30954  11.486  13.753   1.232  0.1002  0.3464  0.0702
14108W        W30955   5.162   9.382   2.843 -0.1831  0.0508 -0.2691
14109W        W30956   0.973  12.624   0.844 -0.1156  0.1526 -0.1829
14110W        W30957  14.133  18.027  12.822 -0.0451  0.1903  0.1862
14111W        W30958   4.998  15.598  13.098 -0.2631 -0.0041  0.1301
14112W        W30959  17.811   4.547   3.388 -0.0746 -0.3103  0.6792
14113W        W30960   2.017  13.723  13.112  0.3683 -0.1080  0.2042
14114W        W30961   3.537  14.844   4.428  0.1867 -0.0314  0.0625
14115W        W30962  14.259   8.218  11.319  0.4126 -0.1061 -0.0413
14116W        W30963   8.800   6.699  10.833 -0.3111 -0.1445  0.1668
14117W        W30964  17.967   7.833   2.855 -0.0500  0.1959 -0.1082
14118W        W30965  10.979  18.265   1.375 -0.2002 -0.1835  0.0140
14119W        W30966   2.087  10.793   2.286 -0.1201 -0.0746 -0.3085
14120W        W30967  14.395  11.864  10.914  0.0784  0.2538  0.2278
14121W        W30968  11.990   5.768   4.195 -0.0000  0.3510 -0.0662
14122W        W30969   4.519   4.915   2.717 -0.4411  0.4644  0.2307
14123W        W30970  13.934   6.789  13.759 -0.1465 -0.3373 -0.4260
14124W        W30971   8.994  12.504  12.362  0.2119  0.0523  0.1039
14125W        W30972  19.382   7.161  11.705 -0.3459  0.0859 -0.1017
14126W        W30973   2.061   4.654  10.731 -0.3231 -0.0360  0.2306
14127W        W30974   5.719  11.740  10.237 -0.0133 -0.0744 -0.0974
14128W        W30975  11.548  18.687   0.836 -0.1678 -0.0810 -0.1625
14129W        W30976  16.428   2.464   2.311  0.3178  0.1700 -0.1365
14130W        W30977  14.979  14.982   1.983  0.1391 -0.1105 -0.0036
14131W        W30978  19.201   5.500  10.727 -0.2521 -0.0962  0.0169
14132W        W30979  18.400   6.998   0.935 -0.0438  0.1016  0.0034
14133W        W30980   3.336   0.151   3.691  0.0449  0.2783 -0.2836
14134W        W30981  15.375  14.730   4.192  0.4007  0.1820  0.1046
14135W        W30982  13.566   0.826   3.280  0.4471  0.0261 -0.0653
14136W        W30983  18.016  12.675  11.524 -0.2054 -0.2923 -0.1024
14137W        W30984   1.484  14.528  12.672  0.2811  0.0877  0.2068
14138W        W30985  13.870  17.521   0.868 -0.2088  0.1805  0.1479
14139W        W30986  17.266   0.541  13.036 -0.1593 -0.3179  0.0476
14140W        W30987   9.952   0.592   3.457 -0.0405 -0.1269  0.0546
14141W        W30988   3.044   4.039  13.000  0.0056  0.0062  0.2292
14142W        W30989   8.048   3.461  13.773 -0.0403 -0.4141  0.0856
14143W        W30990  17.017  12.998   1.052 -0.2199 -0.1117 -0.2156
14144W        W30991   3.068  17.385   0.965 -0.1226  0.0316 -0.1147
14145W        W30992  17.951   2.410   3.265  0.0960 -0.0819 -0.3471
14146W        W30993   0.477   0.228  12.605 -0.1203 -0.2581  0.2269
14147W        W30994   9.169  13.589  13.774 -0.0818  0.2554 -0.1639
14148W        W30995   0.188  13.569   4.483  0.1820 -0.1228 -0.2272
14149W        W30996  17.632   4.915  10.342  0.0029 -0.1156  0.0719
14150W        W30997  19.009   1.199  10.107  0.0396 -0.2956  0.1489
14151W        W30998   2.482  17.528   9.437  0.0634  0.3156 -0.2585
14152W        W30999   6.776   6.753   3.892  0.1031 -0.2730  0.2448
14153W        W31000  13.648   1.327  10.755 -0.1906 -0.0281  0.4689
14154W        W31001  16.761   6.415   0.597  0.2693  0.0661  0.1601
14155W        W31002   1.362   0.042   8.722 -0.2712  0.1108 -0.2628
14156W        W31003  11.273   6.857   1.703  0.0323 -0.0441  0.3767
14157W        W31004  11.678  14.250   8.985 -0.1393  0.0672 -0.0140
14158W        W31005  10.422   5.938  11.996 -0.3147  0.1734 -0.1335
14159W        W31006   8.618   2.393   3.533  0.1367 -0.0788  0.0506
14160W        W31007   6.770  13.328  10.642 -0.1961  0.0775 -0.2854
14161W        W31008   8.647  12.765  14.128 -0.1098  0.3253 -0.1249
14162W        W31009  12.966  13.216   1.652  0.0707  0.3783 -0.0230
14163W        W31010   3.292  13.445  11.103 -0.0976 -0.3236  0.0545
14164W        W31011  16.639   7.675   0.718 -0.0638 -0.0749  0.0368
14165W        W31012  11.622   3.536   2.092  0.0420  0.1036 -0.2048
14166W        W31013  17.318  10.003   4.635 -0.1321  0.1492 -0.0026
14167W        W31014  16.529   9.647   0.818 -0.4099  0.1456 -0.4599
14168W        W31015  19.697   0.079   0.446 -0.3397 -0.0964 -0.3112
14169W        W31016  14.451  13.489   3.338  0.1949  0.2801 -0.0889
14170W        W31017   6.093   5.718  10.413 -0.1805 -0.2073  0.2881
14171W        W31018   6.580  19.811   4.574 -0.0458  0.0099  0.0796
14172W        W31019  10.132   7.776  12.344  0.2592  0.1756  0.0888
14173W        W31020  13.774   7.198   2.236  0.1265 -0.0837  0.4017
14174W        W31021   2.265   5.904   2.524 -0.0809 -0.0559  0.0047
14175W        W31022   9.387   8.618  11.959  0.3521 -0.0512 -0.1471
14176W        W31023   3.276  11.303   9.535  0.0481  0.0183 -0.1253
14177W        W31024   7.969  12.574  12.976 -0.0799  0.0488 -0.1151
14178W        W31025   6.159  10.316   2.347  0.0069 -0.1082 -0.0499
14179W        W31026  11.298  19.920  13.020  0.0213 -0.0919 -0.1586
14180W        W31027  14.116   4.356  11.066 -0.1723  0.1919  0.3335
14181W        W31028  10.668   0.629   0.522 -0.2745 -0.2616 -0.1197
14182W        W31029  16.091   5.413  11.205  0.1578 -0.0277 -0.1405
14183W        W31030   6.600  14.873  14.264  0.1555  0.0611  0.1560
14184W        W31031   8.031   0.570   0.447 -0.1780  0.3254  0.3918
14185W        W31032   6.670   4.011   2.246 -0.1152 -0.2448  0.0823
14186W        W31033   3.048   4.018  10.807 -0.0883 -0.5369  0.2199
14187W        W31034   4.436  18.446   1.769 -0.0279  0.0001 -0.0746
14188W        W31035  11.629  16.002   4.185  0.4381  0.3202  0.4462
14189W        W31036   4.979   3.191  11.891 -0.2890 -0.2617  0.0527
14190W        W31037   0.807  19.064   1.426 -0.0321  0.0385 -0.0622
14191W        W31038  15.517  12.895  12.959 -0.1093 -0.0771  0.0953
14192W        W31039  17.660   8.648  13.682 -0.3463 -0.4717  0.0013
14193W        W31040  11.681  11.608  11.145 -0.0537 -0.1044 -0.1218
14194W        W31041   4.437   3.941  10.361  0.3065 -0.6844  0.3072
14195W        W31042   0.410   3.252   5.327  0.1885  0.2632  0.0203
14196W        W31043   7.037  19.349  12.021  0.2911  0.3073 -0.2535
14197W        W31044  14.306  17.159  11.997  0.0766  0.1303 -0.0642
14198W        W31045  17.306  18.436   3.590  0.0175  0.0939 -0.0614
14199W        W31046  12.002   9.238  13.824 -0.1525  0.1510 -0.1134
14200W        W31047  15.617   8.221   3.585  0.3012  0.1159  0.0847
14201W        W31048   4.522   3.889   0.934 -0.3813  0.3517  0.3212
14202W        W31049  17.739  16.144  13.071  0.3673 -0.3773  0.1435
14203W        W31050  18.564  16.108   1.043 -0.1649 -0.1091  0.2816
14204W        W31051  15.512  17.264   9.893 -0.2766  0.1042 -0.0826
14205W        W31052   7.864  13.115   5.284  0.0780 -0.0061  0.1188
14206W        W31053   1.912   2.614  11.247  0.0223 -0.2928  0.0447
14207W        W31054   8.501   8.593  13.167 -0.1640  0.1019 -0.2279
14208W        W31055   5.472   5.408  12.629  0.1506 -0.1845  0.2326
14209W        W31056  16.092   4.708   3.996 -0.5863  0.1336 -0.1318
14210W        W31057  18.381  10.775  12.667  0.0144  0.2993  0.0406
14211W        W31058   1.056   6.916   3.254 -0.1149  0.2060  0.0255
14212W        W31059   1.093   0.994   4.370 -0.2081  0.5918  0.0835
14213W        W31060  13.386  18.100   3.041  0.1920 -0.1659 -0.1192
14214W        W31061  10.502  17.355   2.277 -0.1205  0.0428 -0.1900
14215W        W31062  16.159  12.971  13.900 -0.1664  0.4778 -0.1026
14216W        W31063   3.895   2.012   0.775  0.2650  0.0820  0.2493
14217W        W31064   5.126   0.303   1.070 -0.1195  0.0623 -0.1707
14218W        W31065  11.727  12.722   0.479 -0.2400 -0.3335  0.0127
14219W        W31066  12.495  12.379  12.006  0.2191  0.0307 -0.0069
14220W        W31067  10.644  12.763  12.239  0.0434  0.4962 -0.0644
14221W        W31068  14.987   4.998  13.940  0.1701 -0.0163 -0.2812
14222W        W31069  16.722   5.215   3.406  0.3305  0.2887 -0.0346
14223W        W31070  16.783   2.528   4.181  0.1822  0.0712  0.0899
14224W        W31071  19.450   7.098  11.028 -0.2231  0.0634  0.0926
14225W        W31072   2.415  19.616   1.450  0.1231 -0.1221 -0.3859
14226W        W31073  15.404  11.476   3.685  0.1738  0.1029 -0.1801
14227W        W31074  10.703   4.726  12.373  0.1844 -0.4072 -0.1117
14228W        W31075   4.158  15.877   0.502 -0.0563 -0.1924  0.0958
14229W        W31076   4.547  14.730   3.273 -0.0023 -0.2101 -0.0745
14230W        W31077  16.994  18.637  11.816  0.1468  0.3531 -0.1830
14231W        W31078   5.270  11.375   1.947 -0.4917 -0.3730  0.0676
14232W        W31079   0.642   4.049   4.084 -0.0314 -0.1153 -0.3490
14233W        W31080  18.099  13.935  13.240  0.2360 -0.0314  0.0243
14234W        W31081   1.481  17.627  12.892 -0.0433 -0.1448  0.1406
14235W        W31082  12.942   6.642   4.157  0.1344 -0.1702  0.1125
14236W        W31083  10.824   8.128   0.192  0.1290  0.0512 -0.0992
14237W        W31084   9.822  13.103   2.340 -0.1340  0.3205  0.0617
14238W        W31085   8.304  18.274   1.039 -0.1770 -0.0110 -0.0625
14239W        W31086   7.176   6.230  10.975  0.2626  0.0644 -0.2663
14240W        W31087   4.141   4.579  12.783  0.2004 -0.2076 -0.1430
14241W        W31088  14.897   1.978  10.673  0.0131  0.1740  0.0962
14242W        W31089   9.105  10.237   1.208 -0.0340 -0.0412 -0.1049
14243W        W31090  13.098   8.617   1.876 -0.2293 -0.3139 -0.3452
14244W        W31091   9.708   7.009   0.417 -0.0283  0.0635 -0.2061
14245W        W31092  13.200  12.279  10.486  0.1524 -0.0699 -0.1129
14246W        W31093   0.121   3.712  13.655 -0.0117  0.0717 -0.0670
14247W        W31094   8.805   3.282   3.000 -0.0769  0.1187 -0.1150
14248W        W31095  16.561  16.481  14.014 -0.1431  0.1906  0.1132
14249W        W31096  11.945   9.148  12.342  0.2247  0.2804 -0.0154
14250W        W31097   1.120   9.113  12.462  0.0791  0.2503 -0.1368
14251W        W31098  12.741   1.674   3.209  0.1953 -0.1549 -0.0149
14252W        W31099  10.367  12.249  12.090  0.2311  0.0648  0.4460
14253W        W31100   6.374  15.570   1.161  0.1396 -0.0682  0.2568
14254W        W31101   5.657  11.842  10.928  0.2081  0.0406 -0.1810
14255W        W31102   9.111  11.388   3.401  0.1984 -0.0295 -0.2023
14256W        W31103   1.949   3.230   4.578  0.4083 -0.0503  0.0926
14257W        W31104  17.770   8.735   4.715 -0.1352  0.1987 -0.1839
14258W        W31105  12.915  10.144   3.621 -0.0100  0.2304 -0.0024
14259W        W31106  12.550   4.902  11.124 -0.2464  0.2184 -0.1736
14260W        W31107   5.814   4.965  11.412 -0.2048 -0.1182 -0.0852
14261W        W31108   2.416   5.337  10.419  0.0945  0.0569  0.1325
14262W        W31109   1.576   1.359  10.809  0.1859 -0.0702  0.0105
14263W        W31110  12.496   5.963   2.915  0.1204  0.3131 -0.2208
14264W        W31111  10.384  15.016   9.442  0.0977  0.2871  0.4650
14265W        W31112   5.852  16.248  12.220 -0.1763 -0.2754 -0.1623
14266W        W31113  15.301   8.470  11.595 -0.1279 -0.2026  0.2081
14267W        W31114   3.955   1.614   1.065  0.1378 -0.1680  0.0409
14268W        W31115  13.858  11.132  10.460 -0.2867  0.1936 -0.0543
14269W        W31116  12.658   7.283  11.958  0.2315  0.5888  0.0904
14270W        W31117   3.163  12.158   0.320  0.0619  0.0339 -0.0115
14271W        W31118  14.921  11.001  11.792  0.1611 -0.0457  0.2989
14272W        W31119   5.468  13.859   3.341  0.0940 -0.4581 -0.1803
14273W        W31120  11.089  16.019   2.985  0.1377  0.3134  0.2575
14274W        W31121  19.829  17.144  10.411 -0.0111  0.0664  0.0975
14275W        W31122   9.276   0.802   2.910  0.2691  0.0893  0.0819
14276W        W31123  17.521  11.635   0.830  0.1755 -0.1996  0.2743
14277W        W31124  10.373   9.866   3.313  0.2738 -0.2005 -0.1649
14278W        W31125  15.528   2.484  13.156 -0.1867 -0.1621  0.1426
14279W        W31126   9.740   1.429   4.397 -0.0792 -0.2968  0.2323
14280W        W31127  19.494   9.709  12.651 -0.0424 -0.0218 -0.4497
14281W        W31128  17.958  15.096   5.147 -0.0543 -0.0595  0.0178
14282W        W31129   0.733   1.049   0.282 -0.0663  0.0363  0.0921
14283W        W31130  14.021   4.594  13.348 -0.1074 -0.1993 -0.3041
14284W        W31131   6.499  11.005  10.232  0.0368 -0.1171  0.1839
14285W        W31132  14.705  19.142   1.794  0.0090 -0.3030  0.0105
14286W        W31133  13.462  10.864  12.289 -0.2054 -0.0096 -0.0291
14287W        W31134   9.441  18.409   4.196  0.0035 -0.2385  0.3815
14288W        W31135  16.348   7.004   1.781  0.1390  0.1461 -0.2745
14289W        W31136   4.567  13.546   3.227 -0.0668  0.1250  0.1961
14290W        W31137   8.941  17.167   5.018  0.0795  0.1125 -0.1984
14291W        W31138  17.116  16.012   5.336 -0.0113  0.3296  0.0592
14292W        W31139  14.026   8.627   0.660 -0.0727  0.0314  0.1532
14293W        W31140   5.323  10.575   4.176  0.3256 -0.0401  0.2239
14294W        W31141   2.949  12.529   3.149  0.0777 -0.1456 -0.3461
14295W        W31142   8.726   3.305  10.605  0.1660 -0.0161 -0.1148
14296W        W31143   7.988  14.953   0.843  0.4183 -0.0101  0.4430
14297W        W31144  18.739  17.444  12.998  0.2754  0.0268  0.2327
14298W        W31145   1.821  13.494   0.716  0.2503  0.5456 -0.1153
14299W        W31146   9.558  17.526   1.867 -0.2217  0.0010 -0.1246
14300W        W31147   1.796   1.068   0.195 -0.1253  0.6046  0.0817
14301W        W31148   7.547   5.520  10.322 -0.1902 -0.1398  0.0998
14302W        W31149   6.936  10.449   0.585 -0.3645 -0.1901 -0.2006
14303W        W31150   2.416   5.638  12.641  0.1272 -0.0957 -0.0441
14304W        W31151  16.214  19.602  13.750  0.0850  0.1437 -0.3136
14305W        W31152  16.282  16.236   3.102 -0.0248 -0.0508 -0.1881
14306W        W31153   4.822   1.461   0.563  0.0948 -0.2588  0.0674
14307W        W31154  14.599  12.905   3.575  0.1339 -0.4411 -0.2890
14308W        W31155   7.026  11.311  10.682 -0.2572  0.0612 -0.1435
14309W        W31156  12.443  13.223   1.846  0.1681 -0.0560  0.4323
14310W        W31157   8.067   0.340   2.301 -0.0499 -0.3138  0.1285
14311W        W31158   5.242   1.560   2.883 -0.0366  0.1109  0.1483
14312W        W31159  19.036  12.187  10.302 -0.0702  0.1522 -0.3243
14313W        W31160   1.956  17.250   4.662  0.0221 -0.0460  0.1934
14314W        W31161  17.421  18.853   1.823 -0.0959 -0.1078 -0.1159
14315W        W31162  12.451   8.675   3.587 -0.2039  0.0922  0.1867
14316W        W31163   1.319   8.435   1.772  0.3610  0.0411 -0.2939
14317W        W31164   5.616  14.842   4.288 -0.1082 -0.0817 -0.0646
14318W        W31165  16.459   0.829   6.186 -0.0861  0.4095  0.0071
14319W        W31166  10.504  17.549  14.254  0.0807  0.1423 -0.3090
14320W        W31167   0.050   5.792   4.380  0.3037 -0.2500 -0.1390
14321W        W31168  12.007   2.811  11.462  0.0083 -0.4465  0.2159
14322W        W31169  13.485  12.668   0.730  0.0890 -0.0034 -0.1838
14323W        W31170  16.376   2.598  10.430 -0.3874  0.0594  0.1229
14324W        W31171   3.707  18.085   8.287  0.0224  0.0460  0.3176
14325W        W31172   4.373   5.342   2.469 -0.0021  0.2345  0.1106
14326W        W31173  16.502  18.254  11.836  0.2780  0.3982  0.0700
14327W        W31174  13.137  15.250  12.074  0.3338  0.0099  0.2447
14328W        W31175  11.548  18.890  12.797  0.1508  0.0087  0.0440
14329W        W31176   8.671  13.820   2.255  0.0850  0.3688 -0.0164
14330W        W31177  18.792  10.566  11.728 -0.0114 -0.0670  0.1244
14331W        W31178  16.820  15.207   0.795 -0.3146  0.1364  0.3625
14332W        W31179   8.099   7.943   5.321 -0.1029 -0.4068  0.1440
14333W        W31180   0.709   5.525   2.551 -0.0910 -0.0326  0.0184
14334W        W31181   7.957   1.989   0.527  0.0101  0.0538  0.0874
14335W        W31182  19.845   1.816   1.951 -0.0194  0.0106  0.2953
14336W        W31183  15.893   2.214  12.398  0.2039 -0.4312 -0.0466
14337W        W31184   9.986   8.875  12.385  0.0080  0.1005  0.0578
14338W        W31185   2.078   3.700   2.035 -0.0095  0.0775  0.0267
14339W        W31186  16.517  14.184   4.106  0.1151  0.1891 -0.1885
14340W        W31187   2.751   4.604   1.781 -0.0548  0.1977  0.0178
14341W        W31188  18.244  11.428  14.033 -0.0891  0.0479  0.1259
14342W        W31189   0.813   5.210   3.390  0.0753 -0.4159  0.2065
14343W        W31190  11.316   3.202  13.399  0.3297  0.1335  0.1308
14344W        W31191   8.727   4.459   0.567  0.1368  0.0212 -0.3402
14345W        W31192  11.087   5.954   1.882 -0.0559 -0.0644  0.4913
14346W        W31193   1.361  12.399   3.554 -0.0158  0.4154 -0.2040
14347W        W31194   4.566   8.914  10.418 -0.0652  0.1903  0.1257
14348W        W31195   9.437   5.100   3.596 -0.5098  0.5275  0.0644
14349W        W31196  15.289  19.132   4.720 -0.5218  0.0787 -0.0450
14350W        W31197   9.727  11.485  11.612  0.0046 -0.0294  0.0077
14351W        W31198  12.030   9.024  10.739  0.0125 -0.0737  0.1828
14352W        W31199   9.437   7.654  12.282 -0.3729 -0.3441  0.1950
14353W        W31200  12.747   7.202   3.674  0.1167 -0.3522  0.0422
14354W        W31201   9.600  13.222   1.525  0.0300  0.0079  0.0297
14355W        W31202  11.856  18.600   5.301 -0.0306 -0.0796  0.2895
14356W        W31203  19.339  16.351  13.656 -0.2695  0.0434 -0.1768
14357W        W31204  12.834   0.338  14.149 -0.0555 -0.2247 -0.3115
14358W        W31205   5.647   2.268   0.529 -0.0252 -0.3603  0.0349
14359W        W31206   3.334   3.608   1.078  0.0947 -0.0557 -0.2166
14360W        W31207  13.175  10.662   2.740 -0.1225  0.0061 -0.3252
14361W        W31208  15.181   7.742  10.664 -0.1351  0.1616  0.1230
14362W        W31209   3.082  10.841   0.241  0.0038  0.0838 -0.3675
14363W        W31210  15.785  12.149   1.179  0.1006 -0.1671 -0.2742
14364W        W31211  19.900   3.782   4.334  0.1513 -0.1896 -0.1499
14365W        W31212  10.920   5.008   0.466 -0.2038 -0.2810 -0.0615
14366W        W31213  14.889  10.399   4.016  0.1530 -0.2723 -0.2115
14367W        W31214  10.032   9.976  11.538  0.0130 -0.0812  0.2571
14368W        W31215  10.093  14.769   3.674 -0.2266 -0.0689  0.0067
14369W        W31216   3.807   1.695   3.786 -0.0561  0.0360 -0.1338
14370W        W31217   4.947   3.251   4.242 -0.1095 -0.5339 -0.1004
14371W        W31218   1.895   2.407   1.257  0.1382  0.3325 -0.3142
14372W        W31219  14.994   6.415   3.478  0.0003  0.0461 -0.0150
14373W        W31220  11.840   7.030   2.793 -0.2122 -0.0300  0.1243
14374W        W31221   8.005   3.538   3.273 -0.1739  0.0150  0.0945
14375W        W31222  10.053  17.602  13.968 -0.0954  0.1134  0.0755
14376W        W31223  13.869  18.425   2.582 -0.1571 -0.1191 -0.1927
14377W        W31224   1.425  10.310  11.482 -0.1376 -0.2588  0.0772
14378W        W31225   7.570   7.035   4.317  0.1372 -0.3441  0.5518
14379W        W31226   7.835  11.694  12.375  0.2332  0.1062 -0.0313
14380W        W31227  18.357  11.576   1.180 -0.1653 -0.2334 -0.1836
14381W        W31228   7.680   1.190   3.783 -0.2237 -0.0174 -0.0323
14382W        W31229   1.340  10.614  14.241 -0.3435 -0.0816  0.0792
14383W        W31230  15.220  16.489   3.400 -0.1958 -0.2136  0.1018
14384W        W31231  12.231  11.079   9.841  0.2040 -0.0400  0.0798
14385W        W31232  15.915   1.318  12.701  0.2728  0.2093 -0.2654
14386W        W31233   9.057   0.688   9.740 -0.0739 -0.0449 -0.1487
14387W        W31234  10.944   2.656   0.753 -0.0849  0.4411 -0.0353
14388W        W31235   0.678  10.895   9.537 -0.2027 -0.3408  0.0485
14389W        W31236   1.377  18.498   0.330 -0.0676 -0.1615 -0.0091
14390W        W31237   6.659   2.749  12.790  0.2024 -0.0110  0.0915
14391W        W31238   5.786  10.558   2.617 -0.0050 -0.3495 -0.0477
14392W        W31239  18.222  18.882   2.949 -0.0695  0.1355  0.0131
14393W        W31240  13.853   8.456   0.200 -0.1015  0.2317 -0.1167
14394W        W31241   8.233   1.206   3.783  0.0314  0.0187 -0.0363
14395W        W31242   3.447   3.193   4.951 -0.2920 -0.0371 -0.1635
14396W        W31243   5.206  18.299  10.986 -0.0250 -0.0547 -0.1599
14397W        W31244   4.716  10.328  11.509 -0.3981 -0.1108 -0.2842
14398W        W31245   5.807   2.993   1.235  0.0765 -0.0745 -0.3424
14399W        W31246  10.773   5.035  10.747 -0.1274  0.0743  0.2119
14400W        W31247  11.358  15.442   2.246  0.0972 -0.0955  0.3423
14401W        W31248   8.501  13.589   4.676 -0.1079 -0.2519  0.1382
14402W        W31249   8.376   2.845  12.289 -0.5001 -0.5950  0.0868
14403W        W31250   8.741  13.021   3.962 -0.1299 -0.1784  0.1359
14404W        W31251  11.783  14.336  10.002  0.1521 -0.2928  0.3769
14405W        W31252   7.315   5.824   0.936 -0.1884 -0.1887  0.2534
14406W        W31253  15.462   3.988   4.383  0.2231 -0.4031 -0.1088
14407W        W31254   3.524   0.149   2.044 -0.2542 -0.0129  0.2245
14408W        W31255   1.594  15.734   3.306 -0.2228  0.6386  0.0930
14409W        W31256   2.056  14.876   4.818  0.2227 -0.0969  0.3157
14410W        W31257  15.351  19.784   3.680  0.0194  0.0469  0.1355
14411W        W31258  14.711   1.981   5.578 -0.2195  0.0944  0.1254
14412W        W31259   1.354  14.836  13.046 -0.0570 -0.2962 -0.3862
14413W        W31260   3.243   7.680  10.395 -0.0944 -0.2099 -0.1951
14414W        W31261  19.167  19.853   4.755 -0.0703 -0.0570  0.3239
14415W        W31262   8.333   3.109  13.391  0.0528  0.0799  0.0875
14416W        W31263  14.436  14.808   1.173  0.1913 -0.2762  0.3043
14417W        W31264  15.399  13.697   4.185 -0.1964  0.0317  0.3645
14418W        W31265  13.157  17.865   2.302  0.0772  0.2076 -0.4515
14419W        W31266   0.011  10.965  12.561  0.0114 -0.0848  0.0598
14420W        W31267  10.233   9.551   2.481  0.0242 -0.0557 -0.0429
14421W        W31268   6.846  18.408   2.953 -0.0502  0.0153  0.2965
14422W        W31269  11.759  18.753  10.635 -0.1194  0.1567 -0.0922
14423W        W31270   4.532   6.309  10.350  0.0042  0.1519 -0.2297
14424W        W31271  13.799  18.385   4.884  0.0489  0.2130 -0.0219
14425W        W31272  19.089  13.915   4.517  0.0768 -0.0514 -0.2935
14426W        W31273  12.871   3.526  13.481 -0.1336  0.0597  0.1489
14427W        W31274  17.937  14.492   3.794  0.4169  0.2853  0.0708
14428W        W31275   2.352  16.668  10.286  0.1624  0.2281 -0.3575
14429W        W31276   9.070  15.660  11.840 -0.1299 -0.0166  0.1739
14430W        W31277   7.692   5.644   1.207  0.2966  0.0431 -0.0258
14431W        W31278  15.525   4.380  12.830 -0.3330  0.0995  0.2111
14432W        W31279  13.190   1.386   4.072 -0.0618 -0.2834  0.2483
14433W        W31280   4.640   1.666  12.995  0.1920  0.0062  0.0645
14434W        W31281  12.124   9.730  12.275 -0.2472  0.2361  0.0988
14435W        W31282  13.586   9.949  14.034  0.1669 -0.1784 -0.0733
14436W        W31283  17.045  10.464   2.735 -0.1967  0.0489 -0.0168
14437W        W31284   9.732   6.589   5.010  0.1257 -0.0070 -0.1946
14438W        W31285   4.349  17.885   0.976 -0.0178  0.1176 -0.0252
14439W        W31286   4.408   3.174  11.642  0.2588  0.0145  0.0332
14440W        W31287  13.634   6.108  10.247 -0.2365 -0.1208 -0.1282
14441W        W31288   8.200   8.534   9.580  0.2503 -0.5322 -0.1797
14442W        W31289  17.460  19.630   0.876  0.0927 -0.1404  0.0377
14443W        W31290  17.543  11.082  10.389  0.1124  0.1039  0.0356
14444W        W31291  16.371   2.225   1.124 -0.0887  0.2135 -0.1709
14445W        W31292   8.171  11.875  13.424  0.1971  0.4016 -0.3007
14446W        W31293   6.710   2.273   4.851  0.1100 -0.2290 -0.1161
14447W        W31294   7.106  15.992   0.511 -0.1849  0.2090 -0.0025
14448W        W31295   1.922   2.916  13.490 -0.0565  0.0564 -0.1975
14449W        W31296   8.905  17.532   3.706 -0.2115  0.0096  0.0914
14450W        W31297  11.745  19.886   0.654  0.1248  0.3496 -0.3579
14451W        W31298  10.279   7.554   3.957  0.0680  0.1436  0.0347
14452W        W31299  10.046   5.705   5.061 -0.0988 -0.4745 -0.0103
14453W        W31300   5.769  10.635  12.636  0.1687 -0.0523 -0.0571
14454W        W31301  16.911   4.048   2.011 -0.1527  0.0380  0.1479
14455W        W31302  11.780   3.555   1.630  0.1295  0.3834 -0.0633
14456W        W31303  16.901   9.972  11.941  0.2732 -0.1298 -0.1282
14457W        W31304   7.458  13.131  10.655  0.1994  0.0155 -0.0282
14458W        W31305  15.468  14.393   4.847 -0.0212  0.0282 -0.2681
14459W        W31306   4.889   1.078   4.878  0.1033 -0.1227 -0.1372
14460W        W31307   3.787   1.427  12.817  0.0979 -0.0496  0.1271
14461W        W31308  19.661   3.390   3.272 -0.0041  0.4114 -0.1960
14462W        W31309  10.771   6.088  10.670 -0.2191  0.2016 -0.1978
14463W        W31310  13.214  17.967  11.132  0.4482 -0.0932  0.1969
14464W        W31311  18.672  11.349   3.949 -0.4838 -0.3146 -0.0964
14465W        W31312  13.263   0.140   2.281 -0.0531  0.1080  0.1194
14466W        W31313   5.021  10.386  13.049 -0.2537 -0.0695  0.2107
14467W        W31314  17.075  17.326  13.195 -0.0470  0.2840  0.4910
14468W        W31315  19.138   6.993  12.188 -0.0815 -0.1668 -0.1423
14469W        W31316  15.578  16.232   4.209 -0.0456  0.0950  0.1688
14470W        W31317   9.006   9.702  10.002  0.1285  0.1427 -0.0340
14471W        W31318   4.054  11.295  12.630 -0.0788 -0.0032  0.0063
14472W        W31319  11.951  16.558  13.317 -0.0005 -0.2472 -0.0570
14473W        W31320  12.238  10.711  13.647 -0.1879 -0.3561 -0.2671
14474W        W31321  17.345  15.067  10.525 -0.2535  0.0515 -0.4029
14475W        W31322   3.215  18.818   2.932 -0.0999  0.1056  0.0302
14476W        W31323  13.395  14.625  14.217 -0.1632  0.0136 -0.2203
14477W        W31324  14.293  12.119   0.442 -0.0007  0.2134  0.4038
14478W        W31325   2.231   5.409  12.023 -0.0861  0.0445  0.2361
14479W        W31326   9.239   2.790   0.239  0.1904  0.3981  0.0136
14480W        W31327   8.318  14.381  11.400 -0.0629 -0.2634 -0.1172
14481W        W31328   5.894  12.136   4.150  0.0710  0.3471 -0.0809
14482W        W31329  17.813   6.360   2.098 -0.2070  0.0169 -0.1452
14483W        W31330   2.880  17.680  12.491  0.2319 -0.0225 -0.3305
14484W        W31331  13.682   8.046  14.167  0.3344  0.2618  0.0250
14485W        W31332  17.887   9.583   3.955  0.2154 -0.0013 -0.0585
14486W        W31333   5.032  14.845   1.087 -0.1159 -0.0059  0.2355
14487W        W31334  10.968  16.337   2.408 -0.1613  0.0829  0.4409
14488W        W31335  15.349   3.119   2.150  0.1580 -0.2134  0.0156
14489W        W31336  16.601  16.177   1.513  0.2820 -0.0012  0.1564
14490W        W31337  11.869  17.917   1.708 -0.3123  0.1911 -0.0748
14491W        W31338   6.317  15.460   9.632  0.0080  0.0501  0.0765
14492W        W31339  14.204  13.425   2.904 -0.1435 -0.1212  0.0678
14493W        W31340  11.935   7.721  11.367  0.1957 -0.3514  0.2557
14494W        W31341   5.522  18.483   2.689 -0.0232  0.0538 -0.1521
14495W        W31342  16.976  13.962   2.352 -0.0982 -0.1750 -0.3276
14496W        W31343   4.886  12.193  10.481  0.1258 -0.2623  0.1648
14497W        W31344   4.271  16.299  12.773  0.1434 -0.2493 -0.1818
14498W        W31345   0.752  12.215   2.373  0.2607 -0.0797 -0.2134
14499W        W31346   3.894  14.315  11.414 -0.1449  0.3790  0.1048
14500W        W31347  14.169   4.066   4.107 -0.0192 -0.1033  0.1682
14501W        W31348   8.646  11.091  11.403  0.2556 -0.0270  0.0162
14502W        W31349   6.501  11.892  10.449 -0.1129 -0.2426 -0.0004
14503W        W31350   8.850   7.124   0.742 -0.1075 -0.1747  0.1940
14504W        W31351  15.091   6.559  10.169  0.0278 -0.1091 -0.1105
14505W        W31352   2.541  11.501   4.009 -0.3166 -0.1741 -0.3085
14506W        W31353  18.610   6.872   3.606 -0.1014 -0.2928  0.0261
14507W        W31354   9.612   7.937   0.021 -0.2075  0.1444  0.1933
14508W        W31355   7.498  12.498   3.809  0.1887 -0.1630 -0.0395
14509W        W31356  17.972   0.677  13.421  0.1464 -0.1185  0.0132
14510W        W31357   4.341  10.886   1.034 -0.1430 -0.0766 -0.1966
14511W        W31358   4.066  12.392  10.720 -0.0611  0.0274 -0.3168
14512W        W31359   6.325  15.490  13.621 -0.2066  0.1802 -0.3461
14513W        W31360   8.849  18.020   3.720 -0.4084 -0.2004 -0.1142
14514W        W31361   8.512   1.356  11.980 -0.2363 -0.0237 -0.0639
14515W        W31362   8.343  16.033  14.102 -0.0256  0.1183  0.1832
14516W        W31363  18.117  13.801   9.696 -0.2072 -0.0923 -0.1163
14517W        W31364   8.213   9.420   2.048 -0.4385 -0.1871  0.0340
14518W        W31365   8.982   7.784  13.588  0.1663  0.1089  0.1261
14519W        W31366  19.379  13.013   3.226 -0.0715 -0.1258  0.2382
14520W        W31367   9.778   8.767   3.238  0.1055 -0.0867 -0.0974
14521W        W31368   8.816   5.076  13.285 -0.2976  0.3816 -0.1743
14522W        W31369   6.265  10.405   1.351 -0.1889  0.0456 -0.1610
14523W        W31370   9.844  19.729   2.668  0.2962 -0.3066  0.2403
14524W        W31371  12.172  12.853  13.584 -0.2038  0.0636  0.1914
14525W        W31372  12.425  14.885   1.656  0.1595  0.0800  0.3746
14526W        W31373  14.202   7.582   5.949  0.0187  0.2627  0.2366
14527W        W31374   2.444   8.246   2.312  0.2232 -0.0156 -0.0158
14528W        W31375  10.736   2.657  10.459  0.1771 -0.1540 -0.1704
14529W        W31376  11.748  10.514   1.909 -0.0567 -0.2082 -0.0176
14530W        W31377   8.151   7.651   3.407 -0.1279  0.0145 -0.2141
14531W        W31378   5.510  15.424  10.680 -0.0178 -0.3048 -0.1417
14532W        W31379   3.208  10.353  10.376  0.0606 -0.0252 -0.2827
14533W        W31380  12.261   6.881  11.649  0.1461  0.4432 -0.3063
14534W        W31381  19.597   8.751   1.113  0.0559 -0.2270 -0.0633
14535W        W31382  19.223   1.665  11.327 -0.4447  0.1609  0.3484
14536W        W31383   5.212   0.775  13.388 -0.1865  0.4146  0.0857
14537W        W31384  15.802   7.871  13.847 -0.0182 -0.2166 -0.0736
14538W        W31385  14.329   3.488   5.838 -0.2401  0.2221  0.1672
14539W        W31386   7.381   7.674  13.097  0.0197 -0.1428 -0.0527
14540W        W31387  12.131  19.918  12.448 -0.3301  0.0191  0.0710
14541W        W31388   6.418  18.299   0.002  0.0354  0.2488 -0.2227
14542W        W31389  14.214  16.009  11.652  0.2790 -0.1349 -0.0405
14543W        W31390   3.011   8.044   9.225 -0.2394  0.2868 -0.1749
14544W        W31391   9.124  13.976  11.513  0.1566 -0.0385 -0.0229
14545W        W31392   0.497  16.291  10.888  0.1658  0.2994  0.0849
14546W        W31393  18.737  13.474   2.607 -0.2483  0.0686  0.1701
14547W        W31394  19.070  18.019   3.160  0.2763  0.1771 -0.1715
14548W        W31395   8.556   7.392  12.863  0.2848  0.0198  0.5585
14549W        W31396  17.246  10.561   9.980  0.0436 -0.2562 -0.1825
14550W        W31397  18.129   7.567  11.663  0.2675  0.1910 -0.0961
14551W        W31398   2.660  14.710   3.266  0.2614 -0.3261  0.1776
14552W        W31399   8.762  11.608   3.770 -0.0226 -0.0940  0.3070
14553W        W31400  18.462  15.128   4.127 -0.0964  0.1583 -0.5652
14554W        W31401   8.441   6.147  11.365 -0.0784  0.4157  0.2096
14555W        W31402  18.687  19.092   0.987  0.1144 -0.0481 -0.0190
14556W        W31403  16.591  10.831  12.325 -0.0205  0.3057 -0.1234
14557W        W31404   7.895   3.076   4.720  0.3095  0.0586  0.2065
14558W        W31405   0.133   6.067   0.390  0.3271  0.1900 -0.1789
14559W        W31406  11.393  14.653  10.136  0.3138  0.0151 -0.0212
14560W        W31407  18.893   6.297  11.701  0.0708 -0.0040 -0.1274
14561W        W31408   2.590   4.638  12.554  0.0259  0.1808  0.0425
14562W        W31409   8.367  18.191  11.710 -0.0614  0.2110  0.1447
14563W        W31410   2.443  19.276  12.806  0.0838  0.0695  0.1120
14564W        W31411  17.764   7.072   3.040  0.2965 -0.3009  0.3344
14565W        W31412  18.556  14.096  12.299  0.1333  0.0122  0.1744
14566W        W31413  11.592  10.746  11.233  0.1817 -0.0812 -0.4055
14567W        W31414   1.979   1.384   1.214 -0.2959 -0.2284 -0.2078
14568W        W31415  15.693  12.542  11.144  0.2356  0.0002 -0.1184
14569W        W31416   9.483   6.012   3.221  0.0499 -0.0574 -0.1890
14570W        W31417   0.095   4.888   2.926 -0.5040 -0.1598  0.3661
14571W        W31418  16.388   4.163  10.655 -0.0879  0.0284 -0.0721
14572W        W31419   8.255   6.701  14.265 -0.0247  0.0402 -0.3313
14573W        W31420  10.602   1.163   0.247 -0.0463 -0.0045  0.3796
14574W        W31421  10.258  13.999  13.632 -0.1652  0.1507  0.1549
14575W        W31422  10.459  10.662  14.043 -0.4431 -0.0152  0.3027
14576W        W31423  16.173   3.159   4.707  0.0013 -0.4592  0.1072
14577W        W31424   9.768   1.918  12.440 -0.2980 -0.1124 -0.2876
14578W        W31425  19.875   7.459  13.363 -0.0096  0.0740 -0.0172
14579W        W31426   3.564  12.394   0.626 -0.1024  0.0986  0.1132
14580W        W31427  13.934   0.959   0.860  0.0851  0.0140 -0.0326
14581W        W31428   2.468  12.922   0.662  0.1977  0.1438  0.2535
14582W        W31429   3.647  12.268  10.974  0.2056 -0.0280  0.0054
14583W        W31430  10.811   3.695  12.794  0.3320 -0.4297  0.0598
14584W        W31431   9.667   9.871   1.068  0.1112 -0.0866  0.1731
14585W        W31432   2.130   8.107  12.515  0.0460 -0.0997 -0.1358
14586W        W31433  10.487   3.770   2.638  0.4340 -0.1012 -0.1320
14587W        W31434   9.941  16.620   4.237 -0.0888 -0.2790  0.2199
14588W        W31435   7.905   7.967   3.715  0.1543 -0.1469  0.2333
14589W        W31436   3.558  17.570  13.158  0.0542 -0.0005  0.2297
14590W        W31437   0.977   8.262  11.594  0.1940  0.1015 -0.2491
14591W        W31438  19.105   2.603   4.100  0.0096 -0.2128 -0.0072
14592W        W31439  13.338  12.606  10.134  0.2297  0.3119 -0.0730
14593W        W31440   0.858  10.956  13.752 -0.0690  0.1600  0.3306
14594W        W31441  19.368   0.512   0.441  0.0041  0.2824 -0.0089
14595W        W31442  15.938  18.690  11.707  0.1203  0.1098  0.4082
14596W        W31443  12.692  14.304   2.788  0.2286  0.2335 -0.1869
14597W        W31444  17.949  14.456  12.480  0.0633 -0.0236 -0.0464
14598W        W31445   5.995   3.847   1.599  0.0702 -0.0443 -0.0573
14599W        W31446   0.462   8.315   2.919  0.0197  0.0290  0.1854
14600W        W31447  12.076   2.253  11.517 -0.0636 -0.0033  0.1211
14601W        W31448   9.378  12.593  11.042  0.1650  0.2443 -0.3042
14602W        W31449   0.547   4.539  12.768 -0.0371 -0.1466  0.0940
14603W        W31450  17.494   8.043   1.644 -0.0407  0.0359 -0.3591
14604W        W31451  13.640   1.546   0.787  0.0485 -0.1480  0.1698
14605W        W31452   0.301  15.477   3.438 -0.1393 -0.3070  0.1455
14606W        W31453  16.489  14.078   3.119  0.0863 -0.2490  0.0553
14607W        W31454  15.284   5.035  13.399 -0.0626 -0.2928 -0.0008
14608W        W31455  13.928   1.049   0.275  0.0407  0.4592 -0.7397
14609W        W31456  17.515   6.060   2.396 -0.3546  0.5535  0.1013
14610W        W31457  13.390   7.628  10.920  0.2345  0.0559 -0.2167
14611W        W31458   1.303   4.575   2.631 -0.0914  0.0277 -0.0756
14612W        W31459  17.350   7.366  14.272  0.0166 -0.0099 -0.3208
14613W        W31460   3.639  14.238   0.974 -0.4003  0.2433  0.0992
14614W        W31461   2.955   7.046  12.473 -0.2329  0.0305  0.0268
14615W        W31462  11.009   8.945   0.520  0.2049 -0.1031  0.2894
14616W        W31463   2.298   7.167   2.747  0.0577 -0.1316 -0.1098
14617W        W31464   0.760   9.722  12.917 -0.1718 -0.2553  0.2424
14618W        W31465   4.832   6.047   0.950  0.2419  0.1386 -0.1147
14619W        W31466  12.113  18.909   2.181  0.0872  0.1266 -0.0053
14620W        W31467   1.598  12.326  13.695 -0.4519  0.1942 -0.0674
14621W        W31468   9.383   8.524   3.637 -0.3529 -0.3027 -0.1199
14622W        W31469   1.809  11.780  12.525  0.1747  0.2121 -0.1879
14623W        W31470   7.384  19.784   1.400 -0.1480 -0.0187 -0.0869
14624W        W31471   5.858   7.399   2.586  0.0524 -0.1593 -0.1843
14625W        W31472   6.054   4.520   0.848 -0.0014  0.1177  0.0867
14626W        W31473   7.147  16.764  13.042  0.0128 -0.1565 -0.1275
14627W        W31474  14.270   7.663   1.659  0.0624  0.1602 -0.1144
14628W        W31475  17.967  18.087   2.088 -0.0568  0.1530  0.2643
14629W        W31476  16.396   8.306   5.003  0.3789 -0.1130 -0.0980
14630W        W31477  15.378  15.953  11.129  0.2512  0.3196 -0.1558
14631W        W31478   1.213   8.820   1.467  0.2616  0.0699 -0.0111
14632W        W31479   6.040  14.413   3.423  0.2018 -0.0723  0.1224
14633W        W31480  10.266  17.618  12.571 -0.0526 -0.1215 -0.2442
14634W        W31481  18.316  19.082   5.491  0.0841  0.0030 -0.3365
14635W        W31482  10.231  10.270   1.914 -0.4087  0.3619 -0.0753
14636W        W31483  11.553   4.540   2.480 -0.2275  0.1519  0.0605
14637W        W31484  19.051  11.052   1.875 -0.1516 -0.2870 -0.1733
14638W        W31485   3.388  17.700   3.133 -0.2199  0.1865  0.0362
14639W        W31486  16.878   3.638   2.952 -0.0003 -0.0818  0.3325
14640W        W31487  19.497   5.139   4.776  0.1134  0.3304  0.3900
14641W        W31488  16.497   1.526  13.711 -0.1526 -0.3787  0.0078
14642W        W31489  18.132   0.666  12.594  0.1047 -0.1314 -0.0229
14643W        W31490   7.782   0.552  11.081  0.2292 -0.1669 -0.4824
14644W        W31491   2.297  14.737   2.568  0.0988  0.1963  0.0707
14645W        W31492  11.943  14.531   0.855  0.2980  0.0462 -0.0110
14646W        W31493   8.506  18.085   4.881 -0.0148 -0.1220 -0.0469
14647W        W31494   1.379  11.225   2.726 -0.0948  0.1225  0.2837
14648W        W31495  14.002  10.139   0.922 -0.1370  0.0041 -0.0767
14649W        W31496  15.827  16.829   2.713  0.0347 -0.0287 -0.0710
14650W        W31497   4.328  16.566   3.432 -0.3787  0.1146 -0.3002
14651W        W31498  15.492  18.777  11.816 -0.4335  0.0987  0.1279
14652W        W31499  14.878   0.106   3.834  0.0874 -0.3008  0.1597
14653W        W31500   6.471  11.874   3.003 -0.1928  0.0788  0.0095
14654W        W31501   9.371   6.095  13.850 -0.1110  0.0610 -0.1703
14655W        W31502  12.170  12.783  11.069 -0.1534 -0.1364 -0.3860
14656W        W31503   9.101   2.209   4.642 -0.1598 -0.0526  0.0921
14657W        W31504   4.443   2.066  10.003  0.2141 -0.2597 -0.0890
14658W        W31505  18.406  17.291   3.618  0.2214 -0.4094 -0.0707
14659W        W31506   4.560  15.964  13.609  0.0724 -0.2409 -0.3203
14660W        W31507  18.685   9.092   2.097  0.0151  0.1292  0.1189
14661W        W31508   0.979   1.317  10.178  0.1787  0.0433  0.2152
14662W        W31509  13.084   2.791  11.103 -0.0778 -0.1301 -0.1412
14663W        W31510  11.517  17.056  11.886  0.2587 -0.2342  0.0803
14664W        W31511  11.184   3.102   4.684 -0.2834 -0.4082 -0.0570
14665W        W31512   7.429  10.809   4.479  0.3407  0.1612 -0.1501
14666W        W31513  14.821   6.407   2.824  0.1846 -0.2754 -0.2815
14667W        W31514  16.194   3.116  11.110 -0.2925  0.0246 -0.3377
14668W        W31515   1.989   0.782   1.458 -0.2251 -0.1410  0.2224
14669W        W31516   5.636   5.634  12.155  0.2934 -0.1414 -0.0847
14670W        W31517  11.231   6.307   0.354  0.1648  0.3736 -0.4230
14671W        W31518   1.311   0.462   9.011 -0.0529  0.1217 -0.1697
14672W        W31519  11.991   1.033   1.569  0.0508  0.2041 -0.2196
14673W        W31520   7.838   3.767   5.293  0.2844  0.2085 -0.4116
14674W        W31521   8.821  18.371   4.602  0.2028  0.1902  0.0134
14675W        W31522   8.094   0.832   2.188 -0.3533 -0.0063  0.0377
14676W        W31523   7.913  12.203  12.354  0.1207 -0.0595 -0.0518
14677W        W31524   4.316   7.910  12.445  0.0177  0.1691  0.1687
14678W        W31525  12.808  10.470   0.005 -0.1351  0.1483 -0.2910
14679W        W31526   2.637  19.078   3.365  0.2096 -0.1243  0.0542
14680W        W31527  14.051   1.544   0.199 -0.3032  0.1943 -0.1203
14681W        W31528   4.616  16.038   2.376 -0.0489  0.2753 -0.1900
14682W        W31529   7.812  11.064  11.751  0.0354  0.0736  0.1998
14683W        W31530   4.712   1.185   0.185  0.2159 -0.0607 -0.0929
14684W        W31531  15.695  11.919  12.099 -0.2795  0.2815  0.0190
14685W        W31532   3.135  15.210   0.600 -0.1385 -0.0579 -0.1681
14686W        W31533  14.618  11.418  11.959  0.0496 -0.4747 -0.1162
14687W        W31534   2.937   9.802  11.958 -0.3873 -0.0513  0.2218
14688W        W31535  18.493   6.080   4.286  0.2120 -0.1410 -0.0293
14689W        W31536   1.190   4.581   2.117  0.2075 -0.1265  0.3679
14690W        W31537  19.763   4.253   4.319  0.1184 -0.3821 -0.0507
14691W        W31538  14.341   8.478  11.851  0.2291 -0.0053 -0.1279
14692W        W31539  11.241   2.532   1.199 -0.2397 -0.1195 -0.0026
14693W        W31540   8.959  17.911  10.791 -0.1307 -0.0075 -0.2090
14694W        W31541   3.341   7.544   0.165  0.2478 -0.1697 -0.0636
14695W        W31542   8.742   4.742  13.754 -0.0099 -0.0803  0.1694
14696W        W31543   8.468  17.572   3.512  0.1221  0.0548 -0.0748
14697W        W31544  12.573  15.710  11.024  0.0997  0.1280  0.3061
14698W        W31545   7.076   8.507   1.211 -0.0033  0.0080 -0.0922
14699W        W31546  16.171   0.903   1.669 -0.0538  0.2740 -0.1461
14700W        W31547   9.626  11.850  10.529 -0.1815 -0.0411 -0.0975
14701W        W31548  15.816  19.284  13.903 -0.0127  0.0417  0.0765
14702W        W31549   0.386   2.721   9.283  0.0273 -0.2920 -0.2935
14703W        W31550   1.443   1.458   1.244  0.0296 -0.1070  0.2069
14704W        W31551   6.837   0.111  13.594 -0.0446 -0.0934  0.0754
14705W        W31552   7.829   3.501  10.598 -0.0858  0.2074 -0.0355
14706W        W31553   0.870  17.448   4.456  0.4881  0.1413  0.0336
14707W        W31554   6.304   0.028   1.507  0.3485  0.0917 -0.0938
14708W        W31555   8.860   6.414  12.658 -0.1187  0.1257 -0.0200
14709W        W31556  13.357   4.829   2.240  0.0599  0.0115 -0.0900
14710W        W31557  10.493   5.072  12.942 -0.0431 -0.0176 -0.0774
14711W        W31558   5.423  16.395   3.083  0.0408  0.1383  0.0481
14712W        W31559   1.116   1.562   3.534 -0.2808  0.3552  0.1782
14713W        W31560   3.847  13.541   0.016 -0.2051  0.2704 -0.1734
14714W        W31561  16.000  19.129  12.986  0.1086  0.2150  0.0210
14715W        W31562   1.577   5.450  11.537  0.3017 -0.1076 -0.0540
14716W        W31563  12.475  15.743   1.493 -0.1697 -0.0428  0.0775
14717W        W31564  19.600  18.630   1.334  0.3805  0.0732 -0.0554
14718W        W31565  16.117   5.388  12.057 -0.3849 -0.2261  0.2095
14719W        W31566  16.226  18.963   4.771  0.1472  0.2033 -0.0372
14720W        W31567   0.425  19.606  12.603  0.2140  0.3008 -0.2137
14721W        W31568   9.166  18.745  11.626  0.2339  0.3213 -0.1951
14722W        W31569  13.113  14.629  10.080 -0.3908  0.1393  0.1803
14723W        W31570   7.027  14.040   1.232 -0.2323  0.1318  0.1808
14724W        W31571   1.908   5.523   0.646  0.1043  0.1109  0.1697
14725W        W31572   6.024   5.455   0.662 -0.0692 -0.1550  0.1362
14726W        W31573  16.556   9.986   4.132  0.0880  0.1724  0.1990
14727W        W31574   0.612   6.196  13.544  0.0542 -0.2319 -0.0605
14728W        W31575  18.485   5.427  13.812 -0.4179  0.2210 -0.0916
14729W        W31576  14.986  13.797   4.644 -0.0793 -0.2386  0.1424
14730W        W31577  16.695   2.541   2.805 -0.2057  0.4944 -0.1640
14731W        W31578   9.557   5.515   3.382 -0.1124 -0.1703 -0.0800
14732W        W31579   0.646  19.198   3.218  0.0606  0.0064  0.0854
14733W        W31580  16.648   5.568   0.776 -0.2484 -0.2837  0.1201
14734W        W31581   2.286  12.423  12.179 -0.3234  0.0648  0.0017
14735W        W31582   8.909  14.841   2.372  0.0950 -0.0135 -0.1247
14736W        W31583  12.373   6.269  10.564  0.1750 -0.2346 -0.0061
14737W        W31584   6.020  16.524   1.153  0.2343 -0.0629  0.0289
14738W        W31585   9.766  14.877  13.563  0.0475 -0.3277  0.1331
14739W        W31586   4.669   0.577  10.753 -0.0777  0.4501 -0.3556
14740W        W31587  13.021  13.183   4.357 -0.0753 -0.0439 -0.1559
14741W        W31588   8.037  11.447   4.645 -0.1262  0.2225  0.0783
14742W        W31589   9.002  14.426   0.088 -0.3652 -0.3879 -0.0140
14743W        W31590  10.089   1.442   3.510 -0.1315  0.2332  0.0136
14744W        W31591   4.633  14.426   0.114  0.3301  0.0155  0.0956
14745W        W31592  15.296  10.628   1.017 -0.0995  0.0725 -0.0419
14746W        W31593  10.989  14.342  12.877  0.2742 -0.0279  0.2215
14747W        W31594  12.223   2.405  10.497  0.0284  0.2789  0.1809
14748W        W31595  13.777  15.735   0.362  0.2259 -0.1872 -0.0376
14749W        W31596   6.809  17.383  10.432 -0.2307 -0.0310  0.1416
14750W        W31597  11.664   2.294   9.915  0.2488  0.4128 -0.0274
14751W        W31598  19.453   0.382  11.244 -0.0135  0.0122 -0.2365
14752W        W31599  14.661  19.140  10.765  0.0928  0.1239  0.4171
14753W        W31600  11.895  14.267   2.251 -0.1704  0.0754 -0.0498
14754W        W31601   4.388  11.191   3.538 -0.0155 -0.0540 -0.0701
14755W        W31602   9.530   4.932   1.647 -0.1857  0.0434  0.1632
14756W        W31603   3.063   8.711   4.044  0.2010  0.1009 -0.0195
14757W        W31604  12.961   4.811  12.990 -0.1735 -0.1080  0.1194
14758W        W31605  15.451  15.808   3.975  0.1494 -0.0492 -0.2470
14759W        W31606  10.159  19.467   1.215 -0.2037  0.2355 -0.2141
14760W        W31607  13.532   8.684   2.677  0.0584  0.1998 -0.0756
14761W        W31608  18.991   0.911   4.528 -0.1169  0.0174 -0.0325
14762W        W31609  16.134   8.011  13.451 -0.1916  0.4291  0.1700
14763W        W31610   9.474  13.121   3.778  0.1120  0.0169  0.1641
14764W        W31611   7.630   6.206   1.041  0.2129  0.1471  0.0967
14765W        W31612  14.846   4.167  13.477  0.4346  0.0785  0.0845
14766W        W31613  19.324   2.861   2.701  0.0828  0.3583  0.1131
14767W        W31614   3.694   2.282  13.081 -0.0885  0.0530 -0.1142
14768W        W31615  13.872   4.633   0.793 -0.2916 -0.2494  0.0688
14769W        W31616   9.134  16.381  12.286 -0.0272  0.3674  0.2241
14770W        W31617  16.036   0.809   2.249 -0.0349 -0.2822 -0.0309
14771W        W31618  19.649   6.648  11.081  0.6125 -0.1968 -0.1626
14772W        W31619   3.211   4.137  11.368 -0.0850  0.0799  0.0118
14773W        W31620   0.987  14.957   2.416  0.1270  0.0399  0.3723
14774W        W31621   8.611   6.586   1.488 -0.2595  0.3677 -0.1474
14775W        W31622  10.244  18.347  10.007  0.0431  0.1192  0.1029
14776W        W31623   3.741   1.659   2.090 -0.2193 -0.0349  0.2179
14777W        W31624   8.500  12.681   2.013  0.0888  0.1441 -0.0540
14778W        W31625  10.967   8.015   2.449  0.0533 -0.2163 -0.0138
14779W        W31626  13.286  12.337  12.520 -0.2506 -0.3341 -0.0293
14780W        W31627  12.767   8.951  12.029 -0.2248  0.1403 -0.0426
14781W        W31628  10.424  19.827   5.461 -0.0850 -0.0070  0.3535
14782W        W31629  12.836   5.757  12.513 -0.0389 -0.1636  0.1247
14783W        W31630  19.531   2.430  10.713  0.0404 -0.2257 -0.0573
14784W        W31631   0.820   7.037  13.063 -0.0344  0.0796 -0.0381
14785W        W31632   2.485  17.320   4.993  0.1841  0.1223 -0.0602
14786W        W31633   7.190   6.230   3.303 -0.0729 -0.1762 -0.0376
14787W        W31634   7.353  18.281   8.387 -0.0704 -0.2728  0.0713
14788W        W31635   3.100   8.995  12.784  0.2313  0.1206 -0.0799
14789W        W31636   2.464   5.083   0.950 -0.0881  0.2582 -0.2407
14790W        W31637   4.855   2.212  11.935 -0.0942  0.0598 -0.0740
14791W        W31638  19.003  19.360   0.264  0.1492 -0.5823 -0.1528
14792W        W31639  10.107   4.438   2.881  0.0387  0.0895 -0.0647
14793W        W31640   7.976  18.015  13.965 -0.1742 -0.1447  0.1598
14794W        W31641  17.108   1.100  11.409  0.4918  0.1321  0.2937
14795W        W31642   1.555   9.991   3.557  0.2068 -0.1192  0.0620
14796W        W31643  11.736  17.021   2.726 -0.1734 -0.0459 -0.1821
14797W        W31644  19.709   9.244  11.892 -0.0444 -0.2791  0.1447
14798W        W31645   0.442  18.468   2.139  0.0864  0.1590 -0.2131
14799W        W31646  17.276   4.932   4.120  0.0051 -0.1527 -0.0677
14800W        W31647  12.035  12.138  12.917  0.0889 -0.2398  0.1074
14801W        W31648  17.233   4.025   3.264 -0.0362  0.1996 -0.0366
14802W        W31649   8.324  13.139  11.399 -0.0513 -0.4195 -0.1476
14803W        W31650   0.662   2.326   1.438  0.0970  0.2108  0.0395
14804W        W31651   1.032  13.542   0.325  0.0562  0.3848  0.0320
14805W        W31652   9.198   9.319   1.679 -0.0557  0.1859 -0.0499
14806W        W31653   5.339  16.645   8.755 -0.2784 -0.2524  0.0726
14807W        W31654   2.368  10.020   9.956 -0.0969 -0.1453 -0.3104
14808W        W31655   6.829  12.106  13.177  0.2042  0.1210 -0.0542
14809W        W31656  19.755  11.347   2.661  0.1414 -0.1018  0.2022
14810W        W31657   2.048   7.156   0.017 -0.0424 -0.1671  0.0418
14811W        W31658  19.899  19.748   1.812 -0.0554  0.0497 -0.0682
14812W        W31659   9.412   2.779   2.526  0.1227  0.2301  0.0887
14813W        W31660  19.183   4.926  13.385 -0.2666  0.0968  0.0547
14814W        W31661  13.686   8.365   3.365  0.0736  0.2368  0.0948
14815W        W31662   8.437  13.308  12.456 -0.1630  0.0698  0.0569
14816W        W31663  16.899  10.154  13.234 -0.1219  0.0106 -0.0836
14817W        W31664   4.166   1.961  10.597  0.3296  0.0351 -0.1801
14818W        W31665   8.344  11.646  10.699  0.1118 -0.2050  0.2344
14819W        W31666   5.271   0.024  13.478  0.1974  0.1247  0.1127
14820W        W31667   8.843  15.974  10.867 -0.0909  0.0761  0.2091
14821W        W31668   4.247  13.595   2.678  0.2779  0.0982 -0.2153
14822W        W31669   8.841  12.210  13.045  0.0700  0.3382 -0.2812
14823W        W31670   1.807   5.665  11.897 -0.2096  0.1347 -0.1246
14824W        W31671   4.326  17.194   9.849  0.0423  0.2014 -0.2155
14825W        W31672  16.370  16.321  11.088 -0.3051  0.0319  0.1382
14826W        W31673   8.089  10.197  13.029  0.3151  0.0137 -0.0640
14827W        W31674  19.221   2.732   2.121 -0.1443  0.1292 -0.2893
14828W        W31675  15.043  17.888  10.550 -0.0403  0.0127 -0.1952
14829W        W31676  13.574   5.010   0.937 -0.2435 -0.1068  0.0822
14830W        W31677   5.482   1.319  12.496 -0.0025 -0.1298  0.2974
14831W        W31678   4.427   9.430  12.934 -0.1560 -0.0486 -0.0928
14832W        W31679  14.229   2.559  10.976  0.1136  0.1153  0.1349
14833W        W31680   2.588  17.758   9.920 -0.2279  0.2362 -0.2770
14834W        W31681   6.436   9.779  11.080  0.1416 -0.2655 -0.0898
14835W        W31682   1.118   3.719   3.900  0.1348  0.0703 -0.1160
14836W        W31683  11.210  19.083   2.022  0.0058  0.2458 -0.3304
14837W        W31684   6.232   3.576  11.608 -0.1070  0.1804 -0.5112
14838W        W31685   8.704   0.020  13.321  0.3997  0.0660  0.2471
14839W        W31686  13.470   3.224  12.544 -0.2598 -0.1182 -0.0979
14840W        W31687   4.645  16.102   1.821 -0.2059 -0.0900  0.1917
14841W        W31688   6.531   0.225  13.965  0.1498 -0.0031  0.2345
14842W        W31689  13.876  16.396   0.779  0.1920  0.0419  0.0355
14843W        W31690  16.050   0.951   3.731 -0.4540 -0.0953 -0.1840
14844W        W31691  19.241   5.172  12.262  0.0822 -0.1407 -0.1111
14845W        W31692   3.919   4.981   2.479  0.1501 -0.0002 -0.1040
14846W        W31693  11.965  11.804  13.691 -0.0876 -0.2453  0.0141
14847W        W31694   0.913  15.657  12.628  0.4465 -0.0878  0.1902
14848W        W31695  19.310   7.656  13.245  0.0293 -0.2481  0.2459
14849W        W31696   5.316  14.939   1.535 -0.3085 -0.0601  0.1373
14850W        W31697   0.003   6.142  13.371 -0.1439  0.1919 -0.1321
14851W        W31698  18.851   4.839  12.981  0.1701 -0.1022 -0.0937
14852W        W31699   0.202   7.404  12.790 -0.1138  0.3242 -0.0583
14853W        W31700  10.695   7.574  10.868  0.0710  0.0888 -0.4132
14854W        W31701   7.021   3.705   3.193  0.0047  0.2358  0.2260
14855W        W31702  12.104  17.768  12.198  0.0991 -0.0072  0.0356
14856W        W31703   9.937   1.032   0.929 -0.3844 -0.0453 -0.0114
14857W        W31704   7.970   1.806  13.160 -0.0811  0.1732 -0.0398
14858W        W31705  18.806  11.799  13.392 -0.1898  0.1705  0.1346
14859W        W31706  18.781   4.832   0.835  0.2289 -0.0940 -0.1211
14860W        W31707  10.547   8.069  11.398 -0.1053  0.0973  0.1258
14861W        W31708  14.151  11.711  12.359 -0.0097 -0.1994  0.0625
14862W        W31709  19.212   2.379   2.533 -0.2730 -0.1281  0.2655
14863W        W31710   6.925   2.272   3.124 -0.1478  0.1060 -0.0215
14864W        W31711   5.890  19.481   3.442 -0.2379  0.1559  0.3341
14865W        W31712  16.810   6.535   2.318  0.0474 -0.0168 -0.1117
14866W        W31713   8.153   7.533  13.814  0.1703 -0.3044 -0.2523
14867W        W31714  15.312   6.500   3.039  0.0615  0.0584  0.1021
14868W        W31715   7.957   9.581   0.381 -0.0134 -0.1909 -0.1755
14869W        W31716   8.767  11.369   4.205  0.2478 -0.0399  0.0012
14870W        W31717   6.961   6.104  12.096 -0.1504  0.0528 -0.3514
14871W        W31718   2.079   8.371   3.571 -0.0204 -0.1124  0.0514
14872W        W31719  11.113   4.730   1.453 -0.0974 -0.4524  0.1470
14873W        W31720   8.178  17.922   3.300 -0.1942 -0.1869 -0.3432
14874W        W31721   7.674   0.278   3.776  0.1847  0.4415 -0.0293
14875W        W31722  14.813  13.961  10.646  0.1496 -0.1945  0.0886
14876W        W31723   1.124   1.290   2.117  0.0317  0.1214 -0.1354
14877W        W31724   9.093   4.125  12.783 -0.0150 -0.2406 -0.1830
14878W        W31725  13.915   5.605   2.789  0.1085  0.0376  0.3172
14879W        W31726   2.450  15.586  11.312  0.0640  0.2837  0.3085
14880W        W31727   5.241  14.432   4.021 -0.3115 -0.2578  0.0688
14881W        W31728  19.242   2.233   1.210 -0.2738  0.1155  0.0625
14882W        W31729  11.029  10.460   3.222  0.2169 -0.2283 -0.1316
14883W        W31730   6.314   6.236  10.257 -0.1145 -0.0435 -0.1690
14884W        W31731  10.296  13.864   2.930 -0.4633 -0.1345  0.0105
14885W        W31732  10.549  15.399   0.916  0.0357 -0.0485  0.0388
14886W        W31733  16.087   2.034  11.395  0.1250  0.1520  0.0608
14887W        W31734   8.843   3.705   3.185 -0.2685 -0.0711  0.1756
14888W        W31735  16.148   3.462   9.631  0.1333 -0.0955 -0.1449
14889W        W31736   1.024  13.003   1.791 -0.0026 -0.0199  0.0616
14890W        W31737   4.518  14.870   1.255 -0.0315  0.1239 -0.1969
14891W        W31738  12.117  10.142   2.151 -0.1751  0.2842 -0.0993
14892W        W31739  16.384   8.883   2.973  0.1004 -0.1894  0.1284
14893W        W31740   6.998   2.867   2.907 -0.1587 -0.3067  0.0150
14894W        W31741   5.051   7.299  12.590  0.1282 -0.0710  0.0846
14895W        W31742  11.101   5.806  10.871 -0.1116 -0.0146  0.1441
14896W        W31743   7.447   7.421  14.258 -0.0353 -0.2325  0.3662
14897W        W31744   6.313  16.096  11.923 -0.1285 -0.0416 -0.1020
14898W        W31745   1.596  18.309  13.901 -0.1753 -0.1001  0.0663
14899W        W31746   5.171  14.236  12.983 -0.0848 -0.2785 -0.0421
14900W        W31747  16.927   7.537   3.492 -0.0329  0.1570 -0.0443
14901W        W31748  10.457  19.659   0.872  0.0836  0.1581 -0.4017
14902W        W31749   4.334   7.165  13.911 -0.0106  0.1768 -0.3371
14903W        W31750   1.828  12.227  10.514  0.1372 -0.0206  0.0456
14904W        W31751  11.334  10.650  13.423  0.1728  0.0945  0.0115
14905W        W31752  14.271  11.404  11.082 -0.3054 -0.5852  0.0814
14906W        W31753   4.765  17.338   3.680  0.0234  0.1608  0.2119
14907W        W31754   7.670  16.113   0.393 -0.1021  0.0462 -0.2124
14908W        W31755   2.219   8.396  12.073  0.0335 -0.4093 -0.0300
14909W        W31756   3.147  16.250   1.862 -0.1680 -0.0822  0.1776
14910W        W31757  15.878  10.703   0.186  0.2174  0.0674  0.0456
14911W        W31758  17.691  18.665   3.964 -0.2258 -0.1459 -0.0291
14912W        W31759  13.473  17.300   1.134 -0.0530 -0.0434  0.1626
14913W        W31760  13.670  16.409  11.671 -0.0902  0.1015 -0.2369
14914W        W31761   2.230   1.959  13.208 -0.1176  0.0320 -0.1253
14915W        W31762  14.799   8.006  14.018 -0.0816  0.0645  0.2203
14916W        W31763   1.264  18.365  10.948  0.1773  0.0234  0.1624
14917W        W31764  11.656   2.227   2.686  0.3464 -0.1701 -0.0697
14918W        W31765   9.004   3.644  11.985  0.2127  0.0314  0.1430
14919W        W31766  15.918  15.568   1.527  0.0364  0.0072 -0.0169
14920W        W31767   0.367  19.877  12.161  0.1135  0.2257  0.2226
14921W        W31768  13.039  18.731  12.101  0.1322  0.1770 -0.2593
14922W        W31769   9.080   0.241   4.328 -0.3570  0.4957  0.1521
14923W        W31770  16.492   7.087  10.315  0.1863 -0.1095 -0.0695
14924W        W31771   5.592   4.089   2.902 -0.0456  0.0189  0.3964
14925W        W31772   0.155   6.991   1.273  0.2564 -0.0535 -0.3446
14926W        W31773  18.753   3.053  13.263 -0.0725  0.0561 -0.3352
14927W        W31774  10.551   9.428   9.932 -0.0123 -0.0482  0.1193
14928W        W31775   8.083  10.272  13.514 -0.0553  0.1758  0.3396
14929W        W31776  19.495  10.945   1.386  0.2898 -0.0201 -0.1117
14930W        W31777   8.959   8.768  12.638  0.1959  0.2984 -0.4889
14931W        W31778  17.315  16.817   2.415  0.0144 -0.2193  0.0838
14932W        W31779  13.684   6.856  11.550  0.1708  0.1554  0.0701
14933W        W31780   5.879   7.049   2.208 -0.3526 -0.0098 -0.1470
14934W        W31781   8.137   0.041  11.091 -0.0987 -0.0258  0.2262
14935W        W31782  11.990  18.301  10.913 -0.1808 -0.2351 -0.1499
14936W        W31783   4.602   8.739  12.637  0.2450 -0.0175 -0.2624
14937W        W31784  19.735  17.909   4.909  0.1183  0.4512  0.3056
14938W        W31785  13.668   7.522  12.780 -0.2079  0.0500 -0.1636
14939W        W31786   9.279   5.173  11.296 -0.4944  0.1070  0.0425
14940W        W31787  15.224   1.156  11.468  0.4722  0.6043 -0.3081
14941W        W31788  13.643  13.212   3.668 -0.0295  0.2431  0.2921
14942W        W31789   6.605   0.106  11.627  0.0037 -0.1514  0.0487
14943W        W31790   4.452   6.790  12.999 -0.0546 -0.0408 -0.0899
14944W        W31791   5.826   2.150   0.088 -0.0975 -0.2129  0.0702
14945W        W31792   0.958   2.560  13.588 -0.3078 -0.0050 -0.3264
14946W        W31793   3.286  19.004  10.671 -0.2095  0.0113  0.1310
14947W        W31794  17.801  13.795   4.011 -0.0221  0.1490 -0.1750
14948W        W31795   3.090  15.285   3.610 -0.0878  0.2145  0.0721
14949W        W31796   2.465  16.913  11.463 -0.0473 -0.1840 -0.1398
14950W        W31797  13.245   8.762  11.752 -0.0559  0.2557 -0.0662
14951W        W31798  12.924  12.067   4.389  0.0833 -0.0178 -0.0433
14952W        W31799  13.392  10.889   1.250 -0.0348 -0.3155 -0.0728
14953W        W31800   7.439  15.699  13.637  0.3130  0.2366  0.0320
14954W        W31801  11.733  12.491   0.898  0.2726 -0.0295 -0.3500
14955W        W31802  17.393  18.640   3.153 -0.1831  0.1072  0.1337
14956W        W31803  19.402  10.582   1.823 -0.0421  0.2718 -0.0336
14957W        W31804   9.039  17.167  14.221 -0.0330 -0.1496  0.4322
14958W        W31805  17.570   1.274  11.453  0.1940  0.1287 -0.0993
14959W        W31806   1.852   9.669  12.007 -0.2259  0.2140  0.1674
14960W        W31807   3.672  18.129  13.331  0.0534 -0.1673  0.0323
14961W        W31808  19.908   6.042  11.020 -0.3394 -0.0568  0.0352
14962W        W31809   0.497  18.497   0.314  0.2710  0.1130  0.2488
14963W        W31810   9.891  18.781   4.794  0.1171  0.0743  0.2273
14964W        W31811  12.073  11.180   1.512  0.0967  0.0468 -0.0287
14965W        W31812   3.766   0.520   3.950 -0.1693  0.1941 -0.1984
14966W        W31813   8.750  17.159  13.248 -0.1250 -0.1416  0.0643
14967W        W31814   8.958  14.254   5.064 -0.3565 -0.4596  0.0565
14968W        W31815   8.630   9.605   4.579  0.0494  0.2671 -0.0533
14969W        W31816   3.693  18.804   4.508  0.1984  0.0472  0.1064
14970W        W31817   6.310  11.334   3.751 -0.0094 -0.2853 -0.0246
14971W        W31818  11.986   4.626   0.179  0.0222  0.0233  0.1827
14972W        W31819  16.732   5.660   0.219  0.1877 -0.1248  0.0499
14973W        W31820  18.632   5.289   2.913 -0.1923  0.1723 -0.0256
14974W        W31821   5.253   0.149  11.771  0.0993 -0.1649  0.1349
14975W        W31822  13.423   2.241   3.337 -0.0783  0.0586  0.0079
14976W        W31823  15.603   0.027  12.299 -0.2246  0.1359  0.1524
14977W        W31824   3.892  10.147   0.270 -0.1730 -0.0406  0.0672
14978W        W31825   2.230   9.616   1.372  0.0992 -0.0761  0.2187
14979W        W31826  17.947   1.228   2.490 -0.1444 -0.1055 -0.0149
14980W        W31827   1.469   7.304   0.085  0.2583  0.3182 -0.0633
14981W        W31828   2.263   3.434  10.856  0.0446 -0.1833  0.0552
14982W        W31829   2.991  16.062  14.011 -0.1628 -0.0715  0.1818
14983W        W31830   0.290  15.401   2.903 -0.0574 -0.1930  0.1356
14984W        W31831   3.676   4.462  11.718 -0.3683 -0.1665  0.0675
14985W        W31832  18.392  10.530   0.888 -0.0041  0.3942  0.2177
14986W        W31833   2.413  12.870   4.856 -0.1085  0.1541 -0.0706
14987W        W31834  17.204   5.381   5.412  0.0787  0.1672  0.1602
14988W        W31835  11.517   0.751   4.217 -0.0595  0.2654  0.1705
14989W        W31836   2.642  18.722  11.830  0.1162  0.1049 -0.1628
14990W        W31837   9.334  18.485   1.523 -0.4013 -0.1400 -0.1760
14991W        W31838  13.423   5.688  10.872 -0.1161  0.1531  0.1437
14992W        W31839  17.652  12.303   4.333 -0.1332  0.3549 -0.0572
14993W        W31840  14.717   6.222  12.350 -0.2884 -0.0351  0.2040
14994W        W31841  16.518   5.307  12.361  0.3509 -0.0005  0.0493
14995W        W31842  12.333  10.237  13.886  0.0268 -0.1005  0.2362
14996W        W31843   2.857  10.679   3.434  0.0659 -0.2128  0.3027
14997W        W31844  17.269   7.530   1.743  0.2566  0.1413 -0.2143
14998W        W31845  11.243  10.859  10.830  0.3237 -0.0053 -0.1539
14999W        W31846   4.167  18.115  10.812 -0.1953  0.1528 -0.0278
15000W        W31847  18.889  10.633  12.959 -0.4593  0.5384  0.0202
15001W        W31848  13.381   6.849   4.576  0.1609 -0.0591 -0.2320
15002W        W31849  18.434   2.291  11.884 -0.1188 -0.0622  0.3259
15003W        W31850   5.476   1.378  10.804  0.2176 -0.2455  0.3419
15004W        W31851   7.083  13.306  12.019  0.2009 -0.0117  0.2449
15005W        W31852   1.074   1.358  12.867 -0.3256  0.1322 -0.3029
15006W        W31853  17.812   6.181  12.665  0.2224  0.0987 -0.2578
15007W        W31854  11.925  11.404   1.022 -0.2382 -0.0777  0.0688
15008W        W31855  19.163   1.544   2.932 -0.1683 -0.3556  0.2577
15009W        W31856   9.245  10.649   9.995  0.0536 -0.1333 -0.0907
15010W        W31857  18.426   3.226   5.151  0.0062  0.1635  0.2557
15011W        W31858  13.148  15.234   5.481  0.0005 -0.5120  0.1622
15012W        W31859  17.807   3.934  12.762 -0.1314 -0.2537  0.3896
15013W        W31860   6.462  13.860   3.275  0.2149 -0.0843 -0.2959
15014W        W31861  12.008   4.357   4.608 -0.1335 -0.1183 -0.0816
15015W        W31862   3.153   5.528   2.834 -0.0979  0.0892 -0.2110
15016W        W31863   9.771   9.846  11.932  0.1804  0.1151 -0.0592
15017W        W31864  18.536   7.292   0.269 -0.0159 -0.0969 -0.0699
15018W        W31865  16.509  12.015  13.976 -0.3067 -0.3479  0.0655
15019W        W31866  17.984  11.638   4.480 -0.3355  0.3288  0.2438
15020W        W31867  13.849  16.102  12.703  0.1023  0.1852  0.1569
15021W        W31868  15.860  12.231   2.426  0.0453 -0.1840 -0.1586
15022W        W31869  18.224  19.830   0.319  0.0529 -0.2106  0.0398
15023W        W31870   7.989   7.370  11.528 -0.2997  0.2951 -0.1014
15024W        W31871   7.663  18.126   9.855  0.1889 -0.0094 -0.0436
15025W        W31872   0.825  16.340   2.325 -0.0363  0.0045 -0.1205
15026W        W31873   2.404  18.755  10.860  0.1903 -0.1396 -0.1251
15027W        W31874   6.137  10.057   0.997  0.1268 -0.1109 -0.3277
15028W        W31875  19.108  16.430  13.181 -0.1771 -0.2598  0.0632
15029W        W31876   3.533   1.587  13.506  0.0731  0.0035 -0.3698
15030W        W31877   5.946  18.428   4.548  0.2755 -0.0224 -0.3659
15031W        W31878   8.815  15.425   5.019 -0.2058  0.1650  0.0148
15032W        W31879  18.153   8.246   0.006 -0.0656 -0.2618 -0.4513
15033W        W31880  16.136   2.192   0.044 -0.2081  0.4757 -0.1204
15034W        W31881   7.458  16.025   3.795 -0.1142 -0.0605 -0.1785
15035W        W31882  13.203  10.832  10.662 -0.0871  0.0699  0.2811
15036W        W31883  14.104  18.061  13.470  0.3774 -0.0810 -0.0777
15037W        W31884   8.940   8.090   3.141 -0.1977 -0.5661  0.1038
15038W        W31885   9.798  12.548   2.320  0.1278  0.0789  0.2919
15039W        W31886  14.134   6.232  12.407 -0.1279 -0.0518 -0.4026
15040W        W31887  13.652  15.464   1.159 -0.2124 -0.1168  0.0052
15041W        W31888  14.270  15.931   3.608  0.3483 -0.1464 -0.0264
15042W        W31889   3.858  14.462  12.129  0.0352  0.1320  0.3561
15043W        W31890   5.469   9.053   4.029 -0.4148  0.0028  0.1008
15044W        W31891   2.274   7.799  10.676 -0.1504  0.1626  0.3209
15045W        W31892   1.456   1.601  12.662 -0.1006  0.0706 -0.0401
15046W        W31893   4.575   9.087  13.554  0.1948 -0.3199  0.1098
15047W        W31894  12.347   4.986  12.312 -0.1008 -0.2457  0.1526
15048W        W31895   1.161  17.253   1.297  0.0970 -0.2356 -0.0257
15049W        W31896  12.250   9.940   2.907  0.0432 -0.2531  0.1304
15050W        W31897  15.136   0.128  11.590 -0.2426  0.2574 -0.1842
15051W        W31898  12.458  15.621  13.484  0.1217  0.0835 -0.0425
15052W        W31899  18.630  12.824  12.147  0.3339 -0.0444  0.0535
15053W        W31900  19.160  13.751   0.513 -0.2154 -0.0967 -0.0972
15054W        W31901   8.554  12.755  12.321 -0.0107  0.4910 -0.1823
15055W        W31902   7.581   2.735  13.541 -0.2445 -0.2112  0.0477
15056W        W31903  19.312   6.119  12.008 -0.2146 -0.0258  0.3044
15057W        W31904   7.771   3.600  12.245  0.1989  0.1039  0.4398
15058W        W31905   0.183  12.580  13.922  0.0293 -0.0464 -0.3889
15059W        W31906   3.295  10.231   2.329  0.1819  0.0423 -0.0967
15060W        W31907  18.596  15.442   4.473  0.1863 -0.1874  0.1536
15061W        W31908  14.702  16.667   3.287 -0.1286  0.1233 -0.0471
15062W        W31909  15.748   7.749  11.356 -0.2799  0.2717  0.1967
15063W        W31910  15.296  10.954   2.649  0.1647  0.1691 -0.0923
15064W        W31911  16.633  11.795   4.748 -0.1107  0.3032 -0.2407
15065W        W31912   3.076   5.776   5.104 -0.0543 -0.4160  0.3583
15066W        W31913  18.774  10.638  13.459 -0.0423 -0.0270 -0.0491
15067W        W31914  12.613  12.788  12.277  0.3690  0.0506  0.2097
15068W        W31915   7.524   3.847   4.421 -0.1162  0.0267  0.0209
15069W        W31916  19.582   1.544   2.646 -0.1480  0.2902 -0.1702
15070W        W31917  15.076  16.556  13.888  0.3767  0.1917  0.1676
15071W        W31918   7.932   1.652   9.520 -0.4358 -0.1941  0.2941
15072W        W31919  15.671  11.477   4.593  0.1387  0.2090  0.3408
15073W        W31920   3.547   1.816   3.392  0.1472  0.0470  0.3828
15074W        W31921   7.197  14.572  13.537 -0.1626 -0.2773 -0.1466
15075W        W31922  11.445  19.330   1.505 -0.0247  0.1753  0.0424
15076W        W31923   1.715  14.072  12.461  0.0149 -0.1266  0.0237
15077W        W31924  13.340   7.790   4.408  0.1831 -0.0504  0.0948
15078W        W31925  16.911   9.561  11.645  0.2320  0.1299  0.0677
15079W        W31926  12.477  10.495   3.526 -0.3734 -0.2533 -0.0298
15080W        W31927  10.772  12.155   0.606  0.2498 -0.2845 -0.1646
15081W        W31928   0.675   0.458   0.820 -0.0962 -0.0064  0.2534
15082W        W31929  19.441  10.750   0.528  0.1732 -0.0893 -0.1055
15083W        W31930   5.339  10.025  14.287 -0.2487 -0.0377 -0.1080
15084W        W31931   6.458  14.439   2.013 -0.0510 -0.0478  0.2973
15085W        W31932  17.114  16.203  13.830 -0.0244 -0.0908  0.4155
15086W        W31933  12.802   8.197   4.728  0.2080 -0.0041  0.2588
15087W        W31934  11.344  13.069   1.733  0.2431  0.1682 -0.4136
15088W        W31935   8.390   0.039   4.448  0.0370 -0.1096 -0.0492
15089W        W31936   8.488  14.310   0.271  0.1580  0.1497  0.3552
15090W        W31937   7.687   0.787  10.593  0.2170  0.1605 -0.0781
15091W        W31938   2.692  14.945  11.676  0.0405 -0.1269  0.2765
15092W        W31939   0.667  11.894  11.409 -0.2060 -0.0792 -0.0932
15093W        W31940  18.147   8.623   2.228 -0.3140  0.0727  0.1559
15094W        W31941  15.741   8.598   2.316 -0.0619 -0.0182  0.1310
15095W        W31942   5.540  14.294  13.388  0.1972 -0.0757  0.0373
15096W        W31943  16.866   5.770  13.481  0.4080  0.0209 -0.1634
15097W        W31944   1.988  12.475   9.269 -0.0646  0.1453  0.2048
15098W        W31945  13.912  12.666   1.889  0.3156 -0.1222 -0.2009
15099W        W31946  18.916  17.037   1.625 -0.0612 -0.3633  0.1708
15100W        W31947   9.868  13.474  11.976  0.0712 -0.1953 -0.0839
15101W        W31948  17.691   5.996  10.239 -0.2116 -0.2303 -0.0875
15102W        W31949   1.246  11.035  11.805  0.0729  0.1894 -0.0509
15103W        W31950  17.777   4.326   1.994  0.1675  0.2946 -0.3471
15104W        W31951   7.966   5.746  13.503  0.0795 -0.0349  0.2573
15105W        W31952  19.341   2.150  14.237 -0.2146 -0.4516 -0.2286
15106W        W31953   0.655  10.091  14.259  0.1014  0.3975 -0.1274
15107W        W31954  17.042   0.735   2.281 -0.1666 -0.3939 -0.2501
15108W        W31955  15.741   3.984   1.083  0.3460 -0.1564  0.1980
15109W        W31956   9.442   7.716   1.401  0.0663  0.2282  0.1982
15110W        W31957   7.298   9.888   4.031  0.0886  0.1784 -0.2970
15111W        W31958   1.908  15.540  11.243  0.0717  0.0816  0.0659
15112W        W31959  15.102   5.321   0.873  0.0349  0.2111 -0.1679
15113W        W31960  11.633  17.448   1.984 -0.2458  0.1668  0.0341
15114W        W31961  12.417  13.143  10.776 -0.0078 -0.0291  0.0430
15115W        W31962  19.864  14.617   0.625 -0.0331 -0.1707 -0.0665
15116W        W31963  16.591  14.340   3.531  0.1132 -0.1336  0.3094
15117W        W31964  19.090  15.537  13.978  0.1058  0.0818  0.1875
15118W        W31965   7.414   7.893   1.866 -0.1578  0.1123  0.1054
15119W        W31966  17.112  14.930   1.124 -0.1549  0.0064 -0.4353
15120W        W31967  16.261   1.634   1.901 -0.0965 -0.3051  0.0752
15121W        W31968  12.911   7.725  12.848  0.0431  0.1226  0.1756
15122W        W31969  15.630   7.466   1.137  0.1540  0.0715  0.2591
15123W        W31970   4.565   9.069   0.847  0.1628 -0.2764  0.0855
15124W        W31971  14.028  10.910   3.415  0.1102 -0.0156  0.0474
15125W        W31972   2.486  16.138  14.129  0.1659 -0.0924  0.0016
15126W        W31973  15.793  19.287   4.869 -0.1303  0.0711 -0.0563
15127W        W31974   2.439  12.075  13.464 -0.0977  0.4619 -0.2262
15128W        W31975  15.566  13.954  11.334  0.1462 -0.0239 -0.1841
15129W        W31976   5.994   8.137   2.888  0.0769  0.2364  0.0023
15130W        W31977   1.457  17.472   0.264 -0.0043  0.1691  0.0144
15131W        W31978   4.192  10.911   0.555  0.2801 -0.2555 -0.1683
15132W        W31979   9.019   9.474  11.517  0.1546  0.0115  0.3152
15133W        W31980  13.933   8.654  10.449 -0.6044 -0.0720 -0.2909
15134W        W31981  16.628  12.342   3.832  0.1522 -0.0087  0.2918
15135W        W31982   3.638   0.439   1.546 -0.2008 -0.0856 -0.0240
15136W        W31983  11.056  11.290  10.067 -0.2516 -0.2596 -0.2519
15137W        W31984   7.183  15.205  11.985  0.0004 -0.0620  0.0567
15138W        W31985  15.788  19.267  11.710  0.5140 -0.1599  0.1872
15139W        W31986  12.823   5.172  12.581 -0.0674 -0.0720 -0.1654
15140W        W31987  11.148   9.632  13.506 -0.3219 -0.0465  0.1238
15141W        W31988   7.246  10.881  10.840 -0.2035 -0.0091  0.4286
15142W        W31989   8.711  16.047   0.497 -0.0886 -0.2310  0.2597
15143W        W31990  18.236   2.447  10.369  0.1740 -0.3004 -0.1416
15144W        W31991  14.702   5.784  11.116 -0.2232 -0.0738 -0.3550
15145W        W31992  15.993  16.544   0.545  0.1844  0.1372 -0.1977
15146W        W31993   1.962   7.141   2.337 -0.0627  0.1887  0.0293
15147W        W31994   4.772  10.259   3.569  0.1694 -0.3154 -0.4394
15148W        W31995  16.928  10.714  14.093 -0.0812 -0.1561  0.1730
15149W        W31996   7.113  10.307   3.301 -0.1202 -0.0788  0.0004
15150W        W31997   1.859   5.124   0.309 -0.1554  0.1366  0.1277
15151W        W31998   8.074   5.629  10.809  0.1814 -0.0722 -0.1689
15152W        W31999   6.312   2.849   2.533 -0.2095  0.3326 -0.2704
15153W        W32000   9.965   8.578  12.004 -0.2267 -0.0744  0.1598
15154W        W32001  10.579  14.997  11.291 -0.1707 -0.3427  0.3093
15155W        W32002  14.523  19.237  13.676 -0.0087  0.0396  0.2319
15156W        W32003   2.194   7.982  14.025 -0.1725  0.0516 -0.1908
15157W        W32004  16.649   8.770   0.634 -0.0099 -0.0773 -0.0035
15158W        W32005  12.987   0.930   3.978  0.1185 -0.0740  0.1246
15159W        W32006  14.885  13.993   2.897 -0.0436 -0.0171 -0.5473
15160W        W32007  12.082   2.639   0.679 -0.4689 -0.0871  0.0297
15161W        W32008  12.663   2.829   1.785 -0.0372  0.1203  0.3426
15162W        W32009  18.346   0.152   3.086 -0.2041 -0.1961  0.2003
15163W        W32010   2.987  10.595   0.734 -0.2889 -0.1462  0.3050
15164W        W32011   8.831   0.916  13.389 -0.2243 -0.0175 -0.0168
15165W        W32012   1.961  18.024   1.848  0.0511  0.2375 -0.2437
15166W        W32013   0.481   5.771  12.671 -0.1938  0.3366 -0.0398
15167W        W32014  18.489  18.318  11.802 -0.0321  0.1071  0.0628
15168W        W32015  17.818   0.236   2.382 -0.1359 -0.0259 -0.2609
15169W        W32016  11.843  19.498  12.593 -0.1748  0.0437 -0.2050
15170W        W32017   7.257  14.990   2.116  0.0697 -0.3147 -0.0021
15171W        W32018   3.070  12.351   4.808 -0.0585  0.2569 -0.2960
15172W        W32019  14.812   8.898   3.573  0.0793 -0.0163 -0.1619
15173W        W32020   1.533  14.861  11.127 -0.1062  0.1280 -0.1292
15174W        W32021   2.073  15.433   9.624 -0.0879 -0.0686  0.5012
15175W        W32022   0.203  18.397  12.060  0.0633  0.3851 -0.1457
15176W        W32023   7.241   6.734   3.307 -0.0893  0.3117 -0.1700
15177W        W32024  18.835   5.724   2.085  0.1078  0.0208 -0.1271
15178W        W32025  10.084  14.516  13.559  0.2112 -0.1770  0.0950
15179W        W32026  18.419   5.064  12.926  0.1078 -0.1601 -0.2244
15180W        W32027   8.872  14.645   2.888 -0.2218 -0.0510  0.0190
15181W        W32028   9.410  12.518   4.871 -0.0487  0.0883  0.0436
15182W        W32029  18.554   4.299   4.757 -0.3032  0.1618  0.1736
15183W        W32030  10.400   7.422   5.022 -0.3408  0.1156 -0.1779
15184W        W32031   3.386   7.710   2.272 -0.0379  0.2734  0.0754
15185W        W32032  13.540  13.940  11.490 -0.0071 -0.0088 -0.0629
15186W        W32033   6.954   3.750   4.478  0.1339  0.1384  0.2922
15187W        W32034   1.664   8.629   3.332 -0.3119  0.1290 -0.1189
15188W        W32035  17.345  12.278   0.400  0.3751  0.0809 -0.0468
15189W        W32036   9.055   6.563   3.277  0.0669  0.1052 -0.1926
15190W        W32037   6.132   8.493   2.110 -0.2950  0.1304  0.2060
15191W        W32038   7.806   3.376   2.771  0.3460  0.0300  0.1898
15192W        W32039   4.061  18.968  11.581 -0.2148  0.0307  0.1637
15193W        W32040   0.204   8.522   1.034  0.0569 -0.6418  0.0881
15194W        W32041  14.445   0.069   4.615  0.3025  0.1172 -0.0293
15195W        W32042   2.127  16.459  13.717 -0.2153 -0.0152  0.0606
15196W        W32043   9.482   4.280   4.629 -0.0975 -0.0541  0.0152
15197W        W32044  11.958   5.343  10.484  0.1093 -0.0700  0.1459
15198W        W32045  14.384   1.139   0.082  0.2303  0.4078  0.2813
15199W        W32046   5.182   5.085   1.094 -0.1757  0.2045 -0.4044
15200W        W32047   2.330  16.378   1.304 -0.0917 -0.1609  0.1646
15201W        W32048   2.670  14.363  14.309 -0.0424 -0.1799  0.1875
15202W        W32049  15.031  18.848   0.818  0.1462 -0.0369  0.2004
15203W        W32050  16.274   8.352   0.388  0.1903 -0.6195 -0.1816
15204W        W32051  13.015   5.357  13.686 -0.0351 -0.0128  0.2344
15205W        W32052   3.291  16.746  10.144  0.1309 -0.1627 -0.1883
15206W        W32053  13.777  16.740  12.108  0.2853 -0.0029 -0.0532
15207W        W32054  19.695   2.338   1.430 -0.0129  0.1987  0.1519
15208W        W32055   6.582  11.064   2.676 -0.1067  0.2424 -0.0412
15209W        W32056   2.832  17.962   4.000  0.1559 -0.1595  0.1229
15210W        W32057  12.509  13.975  10.394  0.3180  0.0562 -0.0975
15211W        W32058   3.688   2.893   3.473 -0.0793 -0.0455 -0.0706
15212W        W32059  11.318  18.077   0.387  0.3581 -0.1019 -0.1462
15213W        W32060  16.152  13.865  12.056 -0.2455 -0.0200  0.2450
15214W        W32061   6.082   9.846   3.711  0.1042 -0.4013  0.2286
15215W        W32062   2.222  17.469   2.401 -0.0082  0.3262 -0.0887
15216W        W32063  19.621  15.235  10.831  0.1893  0.0834  0.2328
15217W        W32064  17.342   6.816  12.772  0.2077  0.0072  0.1189
15218W        W32065  13.772  18.343   0.295  0.2523  0.0156 -0.1833
15219W        W32066  11.960  13.805  12.840  0.2153 -0.0910 -0.1683
15220W        W32067   7.886   4.690  11.496 -0.0604 -0.1493 -0.2969
15221W        W32068  16.779   5.651  11.416  0.4240 -0.0898 -0.5091
15222W        W32069  15.375  10.267   1.840  0.1459 -0.0821 -0.0736
15223W        W32070   6.398   3.830  11.164 -0.0961 -0.1615  0.0080
15224W        W32071  12.446  13.608  12.837  0.1568 -0.0166 -0.1357
15225W        W32072   7.592   1.715   2.215  0.3389  0.0301 -0.0858
15226W        W32073   0.492   5.358   0.492 -0.0056 -0.3645  0.3627
15227W        W32074   5.009   2.792   0.047 -0.1438 -0.2381  0.0371
15228W        W32075   3.027   7.282  10.659 -0.0944 -0.1412  0.1373
15229W        W32076  15.478   4.835  12.923 -0.4101  0.0996  0.2225
15230W        W32077  14.380   2.071  12.025  0.0089 -0.2306 -0.0841
15231W        W32078  17.281  12.011  10.661  0.2031  0.1281  0.0410
15232W        W32079  10.359   3.073   0.174 -0.1132  0.2251 -0.1106
15233W        W32080  19.453   9.151   1.508 -0.0399  0.1354  0.1859
15234W        W32081  12.330   0.142   3.244 -0.0415  0.2170 -0.1941
15235W        W32082  11.004  17.316  11.977  0.2042 -0.2934  0.2873
15236W        W32083  18.636  11.967  10.019  0.1597  0.3111 -0.0749
15237W        W32084   9.285  11.805  11.845 -0.2715  0.1137 -0.0161
15238W        W32085   7.274  11.542  10.356 -0.3455 -0.3493 -0.0391
15239W        W32086  10.382   5.877   9.848  0.3434  0.1059 -0.2596
15240W        W32087  19.815   8.180   3.444  0.2336  0.1067  0.3410
15241W        W32088   9.502   0.533  14.262 -0.3739  0.2862 -0.1323
15242W        W32089  17.310   8.367   0.288 -0.1059 -0.0601  0.3328
15243W        W32090   6.729  14.265  12.219 -0.1057  0.0814 -0.4423
15244W        W32091   2.668   8.537   5.110 -0.0219 -0.0939  0.0174
15245W        W32092  11.520   3.704   5.129  0.0115 -0.1755  0.1827
15246W        W32093  19.703   6.556  13.035 -0.1126  0.0439  0.2031
15247W        W32094   2.167  19.921   1.084 -0.0836 -0.1267 -0.1505
15248W        W32095   1.081   6.704   0.073 -0.0389 -0.1043 -0.0835
15249W        W32096   1.110  17.590   8.994  0.2714  0.0422  0.2973
15250W        W32097  19.677   4.847   2.038  0.4041  0.3140  0.0952
15251W        W32098  18.242  15.746   4.349  0.1631  0.1533 -0.1125
15252W        W32099  13.965  19.631  13.147  0.1789  0.1613 -0.0314
15253W        W32100  15.449   2.017   3.126 -0.0519 -0.0375 -0.0482
15254W        W32101   5.277   8.545   9.723 -0.1009 -0.1975 -0.1258
15255W        W32102   4.050  10.984  13.012  0.4026  0.0408  0.0234
15256W        W32103   5.197  17.594  11.637  0.0452  0.0681 -0.0199
15257W        W32104  11.079   7.278   1.617  0.3259 -0.0716 -0.0522
15258W        W32105  16.698  17.256  12.820 -0.0699 -0.0902 -0.1244
15259W        W32106  13.271   0.049   3.164  0.0005 -0.0539 -0.1821
15260W        W32107   3.763  14.139   2.086  0.0625  0.0386 -0.0620
15261W        W32108  13.337   3.178  13.230 -0.2668 -0.1301  0.0051
15262W        W32109   2.078   9.509  13.628  0.2346 -0.2463 -0.3579
15263W        W32110  18.168  16.785   0.488  0.1495 -0.1688  0.1080
15264W        W32111   0.970   8.765  13.850  0.0047 -0.2147 -0.3193
15265W        W32112  10.548  12.357  11.562  0.1177  0.5500 -0.0021
15266W        W32113  15.081   6.196  10.874  0.0618  0.2287  0.0169
15267W        W32114   3.164  16.430   2.782 -0.2116 -0.2151  0.1886
15268W        W32115   2.851   5.551  10.391  0.3371 -0.0776  0.0394
15269W        W32116  11.191   7.357   2.125 -0.1299  0.1032 -0.0304
15270W        W32117   3.925   6.665  10.976 -0.0959  0.0557  0.3127
15271W        W32118  19.013   1.858   2.545  0.2392  0.1274 -0.1655
15272W        W32119  15.412   0.084   4.121  0.0915 -0.1555  0.1848
15273W        W32120   6.534  14.509  10.388  0.1092 -0.0046 -0.1379
15274W        W32121  12.367   5.301   5.465 -0.0302 -0.0731 -0.1748
15275W        W32122   8.722   7.774   0.601 -0.1083 -0.0477  0.2452
15276W        W32123  14.425   1.475   2.078 -0.2576 -0.1564 -0.2237
15277W        W32124  16.007   7.818   1.922  0.1503 -0.0009  0.0282
15278W        W32125   1.486  12.671   2.862 -0.1372  0.0795 -0.2828
15279W        W32126  19.176  11.021   0.950 -0.3315  0.0555  0.1280
15280W        W32127   3.848  13.325   0.551 -0.1052 -0.0583 -0.0035
15281W        W32128  13.475  11.901   3.962 -0.1225 -0.0658  0.2545
15282W        W32129   1.406   7.568   1.141  0.0193  0.1792  0.0294
15283W        W32130   6.995  12.419   4.236 -0.0017 -0.3634 -0.1885
15284W        W32131  14.995   6.768  13.433 -0.1425 -0.1498  0.0809
15285W        W32132  17.051   7.988   1.932  0.0288  0.2444 -0.1547
15286W        W32133  13.679   2.718   4.396  0.1969  0.3154 -0.1271
15287W        W32134   1.756   7.487  12.588  0.2667  0.0888  0.3019
15288W        W32135   5.392  18.662   3.335  0.2655  0.2481 -0.1023
15289W        W32136  17.072  16.497   3.333  0.0736  0.1694  0.1258
15290W        W32137  14.958  11.434  10.864 -0.1113  0.2132 -0.0619
15291W        W32138  10.111   0.534  14.115  0.2221  0.2334  0.0333
15292W        W32139  10.544  10.766  12.288  0.0533  0.0072  0.2192
15293W        W32140  19.684  10.092  10.386  0.0849  0.3888 -0.0615
15294W        W32141  19.132  13.383  11.080  0.2428  0.1426  0.1470
15295W        W32142   8.632  18.311   1.900 -0.0627 -0.0719  0.3746
15296W        W32143   7.400   2.092   0.976  0.1512  0.1317 -0.1092
15297W        W32144   6.203  14.058  12.709 -0.1105  0.1111 -0.2291
15298W        W32145   0.310   5.299   8.656  0.1721  0.3779 -0.0962
15299W        W32146  12.011  15.367  11.366  0.0795 -0.0538  0.1365
15300W        W32147   7.870  11.848   4.379  0.0348  0.0111 -0.0435
15301W        W32148  12.552  14.224   1.082 -0.0725 -0.3563 -0.0707
15302W        W32149  19.627   3.023  11.436 -0.0375 -0.0551  0.2409
15303W        W32150  12.353  11.104   0.751  0.0199  0.1097 -0.0121
15304W        W32151   5.091  10.601   3.389 -0.1030 -0.2738 -0.1090
15305W        W32152  14.096  15.589   2.594 -0.0282  0.3159  0.0821
15306W        W32153  11.136  11.146  11.858  0.0981 -0.2175 -0.1888
15307W        W32154   6.535   6.880   2.190 -0.2334 -0.1991  0.1135
15308W        W32155  17.913   8.967  11.024 -0.1076 -0.0061  0.2357
15309W        W32156  16.268   1.732  12.737 -0.2964 -0.0614  0.1650
15310W        W32157   6.243  10.126  10.131 -0.1365 -0.1423  0.1826
15311W        W32158  12.075  12.087  11.210  0.0682  0.0716 -0.2257
15312W        W32159   6.615  17.262  12.929  0.0142  0.1200 -0.1202
15313W        W32160  13.941  14.347   3.561 -0.1306 -0.1943 -0.0663
15314W        W32161   8.752   1.569   4.291 -0.6313  0.2828 -0.2587
15315W        W32162  13.242  14.409   1.667  0.2614 -0.2421 -0.1596
15316W        W32163   2.743  15.511   0.165 -0.2415 -0.0988  0.0603
15317W        W32164  15.804   3.072   1.968 -0.2167  0.0208  0.0350
15318W        W32165  16.976   7.504  13.476 -0.0185  0.0401  0.2096
15319W        W32166  19.323  11.315   0.536  0.2724  0.2560 -0.1351
15320W        W32167   7.508  14.028   1.054 -0.2283 -0.1471  0.2034
15321W        W32168   8.208   4.526  11.076  0.2700 -0.0759  0.1106
15322W        W32169  11.520  14.351   3.411  0.1878 -0.0174  0.2390
15323W        W32170   5.520   2.862   1.999 -0.0530  0.0722 -0.1293
15324W        W32171  11.588   7.750  13.960  0.1720 -0.0031 -0.1151
15325W        W32172   2.006   2.113   1.612 -0.3508  0.0770 -0.0479
15326W        W32173   4.753   7.588   3.873 -0.0457 -0.1706 -0.1316
15327W        W32174  10.294  18.716   1.986 -0.4363 -0.3248 -0.0683
15328W        W32175   7.746  16.702  12.745 -0.0068 -0.1190 -0.0958
15329W        W32176  16.134  17.117  14.036  0.2447  0.1503  0.0002
15330W        W32177   4.493   7.328   2.566  0.0182  0.1835  0.5069
15331W        W32178  13.885   7.708   1.323  0.2249  0.2591 -0.1878
15332W        W32179  19.530  17.125   4.642 -0.2705  0.3916  0.0977
15333W        W32180  11.640  19.349  12.151 -0.0102 -0.1872 -0.0049
15334W        W32181  13.839  19.285  10.936  0.4332 -0.1659 -0.3111
15335W        W32182  18.425   6.830  12.631 -0.3923 -0.1428  0.0602
15336W        W32183  19.583   4.163  12.202 -0.3457  0.1672  0.1713
15337W        W32184   5.697   3.913  14.113 -0.0275 -0.3527  0.2899
15338W        W32185   2.493   8.862  12.089  0.0803  0.0290  0.0674
15339W        W32186   1.578   6.886  13.462 -0.2036 -0.0471 -0.2693
15340W        W32187   6.166  13.317  12.047 -0.1070 -0.2426  0.0117
15341W        W32188  14.861  10.185   2.872 -0.4053 -0.4355  0.2520
15342W        W32189   9.186  10.038   3.009 -0.2421 -0.1946  0.1907
15343W        W32190  10.154   8.243  11.059 -0.1419 -0.0999 -0.0797
15344W        W32191  15.604  13.399  13.106  0.2559  0.3595  0.2950
15345W        W32192  13.706   3.640  11.797 -0.0156 -0.2165 -0.0730
15346W        W32193  17.219   5.979  11.538  0.2206 -0.1871  0.0901
15347W        W32194   7.272   5.801  11.182 -0.0474  0.3909  0.0897
15348W        W32195  15.425   2.564   4.365 -0.1777 -0.2396 -0.0355
15349W        W32196   1.858  16.647   3.465 -0.0064 -0.2529  0.0738
15350W        W32197   7.392  12.498   1.019  0.1013  0.2729 -0.4309
15351W        W32198  11.403  16.958   3.823  0.1452  0.2746  0.0693
15352W        W32199   7.757   5.826   0.731 -0.0986 -0.3158  0.0299
15353W        W32200   8.922  10.532   1.627 -0.1753 -0.0864  0.2138
15354W        W32201  16.225  17.802   1.833  0.1168 -0.0357 -0.4078
15355W        W32202  13.276  15.490   1.487  0.2053  0.0875 -0.2689
15356W        W32203   0.691  14.965   3.433  0.4383 -0.4236 -0.3730
15357W        W32204   4.045   0.339  13.197 -0.2892 -0.2810 -0.0011
15358W        W32205  11.833   7.403   2.255 -0.0323 -0.1545 -0.1258
15359W        W32206  19.608  16.977   5.126  0.1735 -0.0049  0.0471
15360W        W32207  15.825  14.693   1.087 -0.4207 -0.1722  0.0317
15361W        W32208  12.400  17.025  13.636 -0.0169  0.1676 -0.1855
15362W        W32209   4.489  12.348   1.773  0.2584  0.1453  0.2278
15363W        W32210  19.466   3.102  14.081  0.1390 -0.0588  0.0267
15364W        W32211  17.102  16.542   5.298  0.5332  0.2299 -0.2715
15365W        W32212  19.126  14.554   9.725 -0.0154  0.3393 -0.0856
15366W        W32213  12.623  19.242  10.620  0.2891 -0.2288 -0.1394
15367W        W32214   2.437  15.376  12.088  0.0195 -0.1741 -0.2218
15368W        W32215   0.890   1.837  12.581  0.0598  0.1611  0.0889
15369W        W32216  18.419  18.273   3.833  0.1020  0.2064 -0.1952
15370W        W32217   3.177   5.793   3.781  0.0070 -0.1481 -0.0189
15371W        W32218   3.949  16.428   9.622 -0.2494  0.1042  0.1044
15372W        W32219   1.317   5.195   3.215  0.1647  0.0280  0.0508
15373W        W32220   9.697  16.019   9.719 -0.0610  0.1718  0.1815
15374W        W32221   7.570  16.458   3.999  0.0450 -0.0332  0.0724
15375W        W32222  19.474   9.282   3.246  0.3928 -0.3351  0.0764
15376W        W32223   8.021   0.322   3.387 -0.1299  0.1153 -0.0861
15377W        W32224  11.728  14.270   1.189  0.1755  0.1257 -0.2177
15378W        W32225  16.783  18.046  10.268 -0.0872 -0.0501  0.4671
15379W        W32226   9.935   0.394   0.279  0.1135 -0.3688  0.0890
15380W        W32227  17.234   7.060   4.110  0.1176  0.1848 -0.3085
15381W        W32228   7.654  17.027   4.776 -0.2310 -0.2891  0.1947
15382W        W32229  18.309  15.930   3.857 -0.0425 -0.0086 -0.4406
15383W        W32230   8.092  18.528  14.194  0.0338 -0.3126 -0.1365
15384W        W32231  14.362  14.804  12.893  0.0788 -0.3015 -0.1450
15385W        W32232   6.841  16.454   3.026 -0.2354 -0.1562 -0.2759
15386W        W32233  19.094   6.812   3.866 -0.1839 -0.0902  0.0384
15387W        W32234  16.555   3.240   0.044  0.0813  0.0675 -0.3171
15388W        W32235   4.017  10.802   2.182 -0.2660  0.0793 -0.0344
15389W        W32236  14.734  18.456  14.218  0.0150 -0.3490  0.3310
15390W        W32237   4.594  12.787   0.887 -0.0044  0.3269 -0.3189
15391W        W32238   7.600   5.300   1.606  0.5206 -0.0810 -0.2279
15392W        W32239  16.084   8.414  13.700 -0.3615  0.0725  0.0147
15393W        W32240  14.162   3.182  11.709  0.0425 -0.2596  0.5074
15394W        W32241  14.492   9.502   0.440 -0.0857 -0.0560 -0.1594
15395W        W32242   0.713  11.293   1.109 -0.0451  0.1330  0.3836
15396W        W32243   2.559   6.548  13.301 -0.2603  0.0496 -0.0913
15397W        W32244  16.658   0.774   1.498 -0.0020  0.0221  0.3389
15398W        W32245   3.398  19.415  10.927 -0.4420  0.3155 -0.0221
15399W        W32246   8.271  17.891  11.302  0.1434 -0.1485  0.0221
15400W        W32247   7.234   7.721  12.624 -0.1179  0.0844  0.1587
15401W        W32248   6.921   3.540   3.683  0.0558 -0.0404 -0.1178
15402W        W32249   9.741  17.485  10.593 -0.1074  0.2535 -0.2022
15403W        W32250  10.045   0.033  12.367 -0.0642  0.1684  0.0611
15404W        W32251  13.042   1.152   0.910  0.2622  0.3378 -0.0877
15405W        W32252  10.414  17.068   0.732  0.0179  0.1888  0.3171
15406W        W32253   0.350  11.498   2.205  0.1571  0.0247 -0.1861
15407W        W32254   8.109   6.169  13.108  0.0404  0.3223 -0.2710
15408W        W32255   7.094   8.769   2.282 -0.0607  0.1224 -0.1749
15409W        W32256  18.100  10.995  12.040  0.0544  0.0019  0.1944
15410W        W32257  10.219   4.090   2.321  0.1128 -0.0537  0.0477
15411W        W32258   2.021  10.756   8.799 -0.2979  0.0312 -0.1594
15412W        W32259   8.830  16.325   0.008  0.2981  0.1167 -0.3254
15413W        W32260   5.864   5.547  11.386 -0.2110  0.2476 -0.0455
15414W        W32261  14.867  18.386  12.403 -0.0994 -0.2178  0.1464
15415W        W32262   2.484   7.179  12.559 -0.2751 -0.1075 -0.0345
15416W        W32263   3.385   5.656   2.439  0.0202  0.1078  0.1865
15417W        W32264  16.140   1.791  10.969  0.1026  0.0567 -0.2537
15418W        W32265   8.414  14.548   2.580 -0.2985 -0.1046 -0.0168
15419W        W32266  15.783   5.662   3.691  0.0123  0.1671  0.1902
15420W        W32267  18.425  11.850  11.784  0.1245  0.0609 -0.0563
15421W        W32268  10.229  18.665   1.078 -0.2506 -0.1094 -0.0598
15422W        W32269  11.456   0.601   5.314  0.0632  0.0600 -0.0012
15423W        W32270   8.137   7.893  11.364  0.0391  0.0654 -0.1574
15424W        W32271  12.141   9.307   1.056 -0.0028 -0.2731  0.4171
15425W        W32272   1.888  18.951  14.002 -0.0196  0.2089  0.1556
15426W        W32273  13.198  10.657  14.051  0.0665  0.0593 -0.1220
15427W        W32274   2.043   4.600  12.386  0.0813 -0.0542  0.4597
15428W        W32275  17.273   2.815   2.839 -0.2351 -0.2710 -0.0654
15429W        W32276   9.771  14.497   3.396  0.0050 -0.2629  0.0594
15430W        W32277   0.199  17.993   3.969  0.0568 -0.0491  0.1358
15431W        W32278  10.956  13.459  10.366  0.0712  0.2857  0.0169
15432W        W32279   0.194  16.815   3.152 -0.0601  0.1101 -0.1571
15433W        W32280  14.226  16.568   4.213 -0.0743  0.1047 -0.3360
15434W        W32281  18.323  14.383  10.476  0.2177 -0.3213 -0.1890
15435W        W32282  12.009   7.683   3.258 -0.3120 -0.0223  0.0466
15436W        W32283  19.419  10.000   4.881  0.5352  0.1596 -0.2148
15437W        W32284  18.814   0.945  14.166 -0.2647  0.1165  0.0406
15438W        W32285   5.289  17.138  11.441  0.1661 -0.1606 -0.2314
15439W        W32286   8.228  18.369  13.684  0.4136 -0.1631  0.2075
15440W        W32287   8.918   4.889  11.197 -0.0233 -0.0862  0.3069
15441W        W32288   6.472  16.248   4.745  0.0324 -0.1519  0.1514
15442W        W32289   6.218   2.414  12.933 -0.0290 -0.2669 -0.1592
15443W        W32290  16.010   8.922  13.101  0.0550 -0.4021 -0.1711
15444W        W32291   1.367  14.419   3.999 -0.2856  0.2850 -0.0123
15445W        W32292   8.543   6.376  11.779 -0.2490  0.1782 -0.0126
15446W        W32293   1.437  16.590   3.182 -0.3569 -0.2119  0.2594
15447W        W32294   0.556  17.832   0.455  0.2130  0.3061  0.3330
15448W        W32295  15.173   8.031   3.409  0.0959  0.3488  0.0765
15449W        W32296   2.975   4.122   0.536 -0.1948 -0.0740 -0.1443
15450W        W32297  11.694   8.440  14.118  0.0307  0.1866 -0.1348
15451W        W32298  12.298   9.379   0.521  0.0832 -0.0047 -0.0538
15452W        W32299   7.897   4.743  10.776  0.0058 -0.1606 -0.0344
15453W        W32300   1.762   2.568   2.971  0.0056 -0.0811  0.0893
15454W        W32301  18.026  10.829  10.563 -0.1478 -0.0819 -0.1708
15455W        W32302   5.512  19.307  11.562 -0.1587 -0.1058  0.0861
15456W        W32303  10.186  18.850  13.423 -0.2394 -0.3195 -0.0707
15457W        W32304  13.004   2.732  10.574 -0.0578 -0.2815  0.0781
15458W        W32305   9.130  13.091  11.002 -0.0135  0.0089 -0.1505
15459W        W32306  16.361  19.138   2.703  0.3932  0.2225 -0.0232
15460W        W32307  16.944   9.008  11.392 -0.2004 -0.2162 -0.2300
15461W        W32308   8.892  15.032  13.646  0.2123 -0.0043 -0.0814
15462W        W32309   3.258  18.515  12.695  0.0204  0.3395 -0.0933
15463W        W32310  12.923  18.806  11.333  0.1258  0.0494 -0.2553
15464W        W32311  15.841   8.747   5.526  0.0853 -0.0301 -0.0060
15465W        W32312   9.683   0.868  12.093  0.1619  0.2948  0.0436
15466W        W32313   0.282  17.183  12.713  0.3889  0.1196  0.1098
15467W        W32314   1.137   2.127   1.880  0.0121 -0.0825 -0.0351
15468W        W32315   3.483   7.493   1.733 -0.1803  0.0335  0.1425
15469W        W32316   7.560   6.416  11.778  0.0652  0.0005  0.3658
15470W        W32317  11.691   4.084   1.871 -0.1020  0.3720 -0.0649
15471W        W32318  17.865   3.250   2.769  0.0539  0.1359 -0.1550
15472W        W32319  15.586   3.479  14.291 -0.2620 -0.3315  0.0877
15473W        W32320  18.404   8.903  11.017 -0.1571 -0.0684 -0.0398
15474W        W32321   0.975  17.671   1.955  0.0742 -0.1408  0.0036
15475W        W32322  10.730   1.417   5.309 -0.0428 -0.2820  0.0069
15476W        W32323  18.473   0.782  13.827  0.0639  0.1797 -0.1422
15477W        W32324  18.281  10.128  14.163 -0.0114 -0.1005  0.0066
15478W        W32325   8.005  17.463   3.934 -0.2487 -0.3418 -0.3235
15479W        W32326  11.746  11.425   0.518 -0.3084  0.1581 -0.0718
15480W        W32327   4.714  17.576   0.130 -0.0175  0.0657 -0.2573
15481W        W32328   6.909  19.727  10.014  0.2698 -0.1290 -0.1047
15482W        W32329   2.755  12.800   2.187 -0.2132 -0.1532  0.0324
15483W        W32330  18.761   7.888   0.323  0.2950 -0.0702  0.1101
15484W        W32331  13.185  14.310   2.784 -0.2365  0.0513 -0.0071
15485W        W32332   7.418  10.398   4.102  0.0577  0.3547  0.0254
15486W        W32333   0.740  18.080   1.614  0.1942 -0.4016  0.0780
15487W        W32334  14.576   5.256   1.070 -0.3516  0.0012  0.0336
15488W        W32335  16.670   3.501   1.281 -0.0575 -0.2551 -0.1096
15489W        W32336   5.618   5.404   1.605 -0.0302 -0.0805 -0.1472
15490W        W32337  11.374   0.674   3.695  0.0857 -0.1315 -0.3314
15491W        W32338   4.961   4.740   3.967 -0.0890  0.0398 -0.2368
15492W        W32339   6.504   7.794   1.133 -0.0737 -0.0796  0.2541
15493W        W32340   7.177  16.494  11.360  0.2621 -0.1779  0.0154
15494W        W32341   3.731   1.563   1.588  0.0175  0.1470 -0.1259
15495W        W32342   2.113   9.474   0.500 -0.3500 -0.2217  0.2031
15496W        W32343  15.219  18.156  14.209  0.2191 -0.0981 -0.0322
15497W        W32344   3.214  17.486  11.568 -0.2439  0.2748 -0.3066
15498W        W32345  16.898  17.949  11.659 -0.3499 -0.2005  0.1118
15499W        W32346  13.249  10.681  13.400  0.0567  0.5536 -0.0587
15500W        W32347   5.107  13.061   2.327 -0.2112  0.0016  0.1789
15501W        W32348   4.742  14.602   0.722  0.2417 -0.0215 -0.0608
15502W        W32349   7.877  13.732  12.636  0.0434 -0.0558 -0.0420
15503W        W32350  12.395  13.520   4.094 -0.0101 -0.1469  0.0066
15504W        W32351  11.357  13.579   4.172 -0.0629  0.0130  0.3426
15505W        W32352   7.526   4.224  11.541  0.2970  0.1772 -0.1212
15506W        W32353  15.186  14.859   5.465  0.0762 -0.2516  0.2437
15507W        W32354  11.699   4.024  10.660 -0.4540  0.4541 -0.2362
15508W        W32355  14.075  10.233   1.424  0.2093  0.1200  0.2973
15509W        W32356  17.970   9.999  12.893  0.1175  0.5415 -0.2834
15510W        W32357   6.662   9.239  14.190 -0.0967  0.1250  0.0525
15511W        W32358  18.417  16.377   0.247  0.0794  0.1584 -0.0313
15512W        W32359  19.653   7.434  12.813  0.2424  0.1107 -0.0381
15513W        W32360  17.192   6.332   4.718 -0.2846 -0.0265 -0.0332
15514W        W32361  15.757  19.323  13.388  0.1274  0.3971 -0.1405
15515W        W32362   3.652   1.895  13.914 -0.0495  0.3334  0.1057
15516W        W32363  19.386  11.483   1.196  0.0118 -0.2972  0.2185
15517W        W32364  13.019   2.292  14.071 -0.3437 -0.1718 -0.1720
15518W        W32365  14.073  12.971   0.268 -0.1524  0.4297 -0.1593
15519W        W32366  19.348  16.761   1.751 -0.1170 -0.3188  0.1673
15520W        W32367  14.854   0.488  13.474 -0.3643 -0.2179  0.1575
15521W        W32368   6.720   8.344  13.504 -0.2222 -0.1973  0.0040
15522W        W32369  12.570   7.621  11.453 -0.1094 -0.3346  0.0526
15523W        W32370  15.568   6.717  10.896  0.1671 -0.0650  0.0503
15524W        W32371   9.281  11.788  11.372 -0.2473 -0.2682  0.0172
15525W        W32372  19.089  15.801  12.068  0.1404 -0.1000  0.2940
15526W        W32373  16.395   0.278  11.149 -0.1013 -0.3621  0.2493
15527W        W32374   2.341  19.086  11.228  0.1497  0.0796  0.1175
15528W        W32375  13.947  14.169   1.012  0.1388  0.1870  0.1173
15529W        W32376   3.765   0.304  13.636 -0.0824 -0.0601  0.1678
15530W        W32377   2.791   1.169  11.602 -0.2920  0.2510 -0.3199
15531W        W32378  19.201   6.735  11.311 -0.0392  0.3063  0.0328
15532W        W32379  14.278   7.508  12.050  0.1590 -0.2012  0.0486
15533W        W32380   4.842  11.680  10.823 -0.1598  0.0014  0.1800
15534W        W32381  12.549   8.933   2.740  0.1065  0.0240 -0.1741
15535W        W32382   0.476   8.740   5.208 -0.0989  0.0650  0.0698
15536W        W32383  19.924  17.834  10.102  0.1604  0.1124 -0.1140
15537W        W32384  18.080  19.566   3.737  0.0577 -0.1285 -0.0408
15538W        W32385  11.999  13.501   3.524  0.0701 -0.0187 -0.3174
15539W        W32386   9.600   1.564   5.237 -0.1411  0.0303  0.0792
15540W        W32387   2.604  19.718   2.576  0.1950  0.0301  0.1859
15541W        W32388   3.676  14.137   4.328 -0.0035 -0.0127  0.0764
15542W        W32389   7.599  17.256   9.941  0.1802 -0.0909  0.0167
15543W        W32390  10.096  17.677   2.584 -0.0711 -0.1573 -0.0577
15544W        W32391   2.576  14.078  12.403  0.0248 -0.0843  0.3655
15545W        W32392  14.145  19.778  10.312 -0.2121 -0.2270 -0.2904
15546W        W32393   6.709  12.876   3.707  0.4467  0.0641  0.0717
15547W        W32394   0.544   7.185   2.892  0.1438  0.2244 -0.1070
15548W        W32395   1.682  15.738   1.920  0.0672 -0.3974 -0.1418
15549W        W32396  15.637   6.120  14.105 -0.0419  0.1181 -0.2788
15550W        W32397  13.186   9.864  13.714 -0.1217  0.2842 -0.1814
15551W        W32398  16.519  17.581   1.442 -0.0906 -0.2385  0.0149
15552W        W32399  11.215   2.610  10.764  0.1059 -0.2639 -0.1027
15553W        W32400  14.794   3.788  13.909  0.1290  0.0113 -0.1928
15554W        W32401   9.909  15.369   2.891  0.2179  0.0387 -0.1887
15555W        W32402  17.836   3.875   2.438  0.0579 -0.0305 -0.0579
15556W        W32403   2.292  12.845  10.317 -0.1438 -0.1072 -0.0434
15557W        W32404  10.520   4.106   4.110  0.0659  0.1021  0.0022
15558W        W32405  15.095   1.967  11.266  0.1637 -0.0766  0.0242
15559W        W32406  10.665  14.483  11.384 -0.0842  0.0205 -0.1888
15560W        W32407  14.785   3.301   2.696 -0.0351  0.1735 -0.0181
15561W        W32408  18.379   9.794  11.374 -0.1095 -0.0915  0.5491
15562W        W32409   4.430   5.313   3.946 -0.0075  0.1586 -0.0579
15563W        W32410   5.619  13.122   0.849 -0.2731  0.0169  0.1897
15564W        W32411   7.643  16.249   3.406  0.1861 -0.4637 -0.0353
15565W        W32412   8.731  15.784  13.263  0.1299  0.0559 -0.1489
15566W        W32413  13.321  15.494   3.071  0.2233  0.0631  0.1628
15567W        W32414  18.254  13.339   2.780 -0.1432  0.0927  0.0409
15568W        W32415  10.144   2.787   1.266  0.1336  0.3027  0.0486
15569W        W32416  12.433   6.783  13.291 -0.0205 -0.0412  0.2408
15570W        W32417  19.140  13.246   1.895  0.1855  0.1819  0.1736
15571W        W32418   9.145   4.718   3.282 -0.0991 -0.0548  0.0602
15572W        W32419   7.475   5.763   1.645  0.1879 -0.1317 -0.1063
15573W        W32420   5.866  17.694  10.200  0.2782  0.1265 -0.0953
15574W        W32421   9.851   2.102   0.214  0.0567  0.5392 -0.3356
15575W        W32422  17.544  13.497   1.735  0.3119 -0.3942 -0.0232
15576W        W32423  19.497   6.404   3.755  0.0538 -0.0437  0.0672
15577W        W32424  17.359  13.037   0.359  0.2469  0.0094  0.0391
15578W        W32425  10.056  15.884  11.918 -0.2722  0.2095 -0.0815
15579W        W32426  11.318   3.269   0.425  0.0309  0.0943  0.4107
15580W        W32427   2.976   6.364  11.143 -0.2363 -0.1795 -0.0743
15581W        W32428  13.031  11.010   4.482 -0.0174 -0.3688 -0.0485
15582W        W32429  15.529   0.557   2.954  0.1081  0.1623  0.1986
15583W        W32430  17.556  17.225   1.594  0.0520 -0.2068 -0.0055
15584W        W32431  15.235  13.050  14.240  0.0068 -0.2699  0.0094
15585W        W32432   4.360   7.962  10.614 -0.0756 -0.2447 -0.1404
15586W        W32433   3.736   5.857  10.016 -0.2134 -0.3730  0.1388
15587W        W32434   0.156   9.344   3.895 -0.4832 -0.0094  0.0002
15588W        W32435   9.941  15.565  10.538  0.1162 -0.0480 -0.1237
15589W        W32436   4.906   8.224   0.546 -0.0776  0.1352  0.2865
15590W        W32437  18.269  16.835   4.437  0.2028  0.1213 -0.2463
15591W        W32438  15.907  11.360   0.133 -0.1003 -0.0154  0.4106
15592W        W32439   1.631  11.176   0.515 -0.2631  0.0388 -0.0428
15593W        W32440   0.065  14.992  14.154 -0.0829 -0.1228  0.0282
15594W        W32441  16.337   8.278  12.369  0.0865 -0.3971  0.0962
15595W        W32442  12.705   3.736  12.190  0.1111  0.1694  0.0857
15596W        W32443  15.712   6.866  11.986 -0.1075 -0.3632 -0.1941
15597W        W32444   0.332  14.956   1.336  0.4360 -0.0529 -0.1611
15598W        W32445   8.348  15.074   9.918 -0.2403  0.3252 -0.1351
15599W        W32446  11.404  19.403  12.832 -0.0415 -0.2497  0.1240
15600W        W32447  15.947  16.404   5.545 -0.0823  0.0042  0.0796
15601W        W32448   2.304  10.320   4.240 -0.0250 -0.1840  0.0273
15602W        W32449   4.114  16.957  10.667  0.0068 -0.0979 -0.1226
15603W        W32450  17.818   9.748   5.304 -0.1012 -0.2009 -0.1904
15604W        W32451  15.201  15.890   3.532 -0.0188  0.0534 -0.0699
15605W        W32452  18.155   7.515   5.055  0.0188  0.1806  0.4674
15606W        W32453   3.240  13.156   3.050  0.0106 -0.0994 -0.7080
15607W        W32454   1.919   4.255   0.005 -0.0320 -0.1409 -0.0537
15608W        W32455   7.884   1.929   1.906  0.2877 -0.1325  0.0468
15609W        W32456  12.864  15.869   0.059 -0.0197  0.0622  0.1118
15610W        W32457  14.613   4.242  11.248 -0.1111 -0.1208  0.0256
15611W        W32458   0.927  14.670  12.798  0.0075 -0.0219 -0.2707
15612W        W32459  15.876   5.603  10.749  0.1028  0.3090  0.0006
15613W        W32460   0.008  13.931  10.233 -0.0794 -0.0305 -0.1523
15614W        W32461  14.600  17.093   2.430 -0.1652 -0.1060 -0.0744
15615W        W32462   7.473  12.820   2.836  0.1429 -0.0027  0.2284
15616W        W32463  17.964   5.277   0.470  0.4304  0.5305 -0.3228
15617W        W32464  14.673  18.747  11.117  0.3919  0.1791  0.1982
15618W        W32465   9.050  18.096   1.710 -0.0106  0.1617  0.2214
15619W        W32466  11.795   1.681  12.664 -0.3703 -0.1049 -0.0578
15620W        W32467  17.775   4.892   3.672  0.3439 -0.1548 -0.0173
15621W        W32468  17.266  14.767   2.427 -0.3055 -0.1994 -0.0657
15622W        W32469   9.716  17.651   0.476  0.3118  0.4459 -0.0187
15623W        W32470   9.799  17.490   4.672  0.2829  0.1027  0.0711
15624W        W32471   7.677  15.201   3.386  0.1742 -0.2068 -0.2453
15625W        W32472  15.231  16.155  13.673  0.0855 -0.3884 -0.2018
15626W        W32473  15.312   5.987   4.453  0.0109 -0.0706  0.1500
15627W        W32474  12.171  15.298  13.812  0.0940  0.2364  0.0465
15628W        W32475   6.075  12.143  10.526  0.0721 -0.0398 -0.2650
15629W        W32476   9.550  14.991  14.104  0.3166 -0.1009  0.2760
15630W        W32477   2.496   5.888  12.213  0.0150  0.0137 -0.0698
15631W        W32478  12.931  16.628  12.599  0.0305 -0.1714 -0.1346
15632W        W32479   7.869   9.860  13.324 -0.1287 -0.1908  0.1283
15633W        W32480  14.372   4.201  11.779 -0.0962  0.0846 -0.1622
15634W        W32481   0.323  10.407   3.514  0.4729  0.0782 -0.2564
15635W        W32482  11.343   8.874   9.905 -0.0922  0.2479  0.0231
15636W        W32483  12.200   7.379  13.827 -0.1552 -0.1296 -0.2395
15637W        W32484   2.544  17.960   0.524  0.3743  0.0333  0.0031
15638W        W32485  12.010  11.341  10.593 -0.0837 -0.0033  0.1495
15639W        W32486   6.460  10.043   2.068  0.2956 -0.5795  0.2301
15640W        W32487   0.429  11.849  10.131  0.1173  0.1436 -0.0182
15641W        W32488   8.282  11.210   0.289  0.1757 -0.0728  0.2811
15642W        W32489  16.561   1.589  13.175 -0.1351  0.3924 -0.1779
15643W        W32490  10.725  14.727   1.804  0.0165  0.1014  0.4011
15644W        W32491   8.146  10.922   1.986  0.1249 -0.1898 -0.4299
15645W        W32492  19.531   2.731   3.794  0.0638 -0.2282  0.1364
15646W        W32493   4.553   3.295  13.840 -0.0120  0.0013  0.0071
15647W        W32494  12.817   1.587   2.570 -0.5331 -0.1406  0.2957
15648W        W32495   3.819  15.511   0.201 -0.0346 -0.0111  0.1044
15649W        W32496  19.430   0.508   2.984  0.0402 -0.1225 -0.0560
15650W        W32497  16.441  19.782  11.396  0.3768  0.0309  0.1630
15651W        W32498  17.991  10.237   1.074 -0.0424  0.2440  0.0779
15652W        W32499  17.292   6.739  13.277  0.0713 -0.1542  0.3486
15653W        W32500   7.011  11.802  10.671 -0.3319 -0.1319 -0.0022
15654W        W32501  17.563   6.287   0.801  0.0320  0.1540 -0.0320
15655W        W32502  17.711   5.879  13.541  0.0683  0.2476  0.0397
15656W        W32503   2.158  12.033   0.943 -0.0885  0.1250  0.0215
15657W        W32504   6.030   4.620  12.352  0.1810  0.6209 -0.2996
15658W        W32505  15.351   4.564  13.340  0.2039  0.2260 -0.0588
15659W        W32506  10.109   2.977  12.528  0.1441  0.0919 -0.2055
15660W        W32507  11.406   9.848  13.131  0.1591  0.0972 -0.1326
15661W        W32508   1.212  17.927   2.361 -0.1063  0.2477  0.4144
15662W        W32509   6.486   6.863   8.650 -0.0084  0.4117 -0.0034
15663W        W32510  16.242   2.223  13.719 -0.1907  0.2810 -0.0211
15664W        W32511   9.883   7.347  11.259 -0.2451  0.1229 -0.3226
15665W        W32512   8.344  10.312  11.594  0.1649 -0.0173  0.1714
15666W        W32513   0.060  11.116  11.515 -0.1033  0.1488  0.0687
15667W        W32514  17.870   7.254  13.658 -0.1104  0.0216 -0.0984
15668W        W32515  19.638  17.820   3.936  0.0940  0.0687 -0.1440
15669W        W32516   5.162   9.424   0.269  0.0474 -0.3357  0.1642
15670W        W32517  17.075   8.849   3.972  0.3327  0.2048 -0.0963
15671W        W32518   1.423   6.213   4.256 -0.0785  0.1073  0.0779
15672W        W32519   0.660  19.201   2.697 -0.2286 -0.0033 -0.2942
15673W        W32520   1.284   0.238   4.052 -0.1042 -0.2055  0.1427
15674W        W32521   1.614   2.665   2.373  0.1772  0.3500  0.1453
15675W        W32522   1.725   8.291  13.891 -0.0920  0.0841 -0.0839
15676W        W32523   1.052   4.387  11.814 -0.1439 -0.1593 -0.0671
15677W        W32524   4.400  12.334   0.807 -0.1312 -0.1676 -0.1699
15678W        W32525  17.966   2.015   4.482 -0.2887  0.1854 -0.0507
15679W        W32526  18.536  14.731   0.672  0.2234 -0.1252  0.0822
15680W        W32527  17.388   2.700  11.850 -0.1945 -0.2105 -0.1058
15681W        W32528  10.911   9.669   2.874  0.3658 -0.0912 -0.2239
15682W        W32529   7.791  15.103   1.435 -0.5327  0.3907  0.3482
15683W        W32530  12.585   2.426   3.008  0.1146  0.0398 -0.0749
15684W        W32531   5.598   1.232  11.479 -0.0627  0.1696 -0.0625
15685W        W32532  12.001  13.322   1.981 -0.2055  0.1282 -0.1861
15686W        W32533   2.618   3.646  14.243  0.1090  0.1352 -0.0746
15687W        W32534  18.951   0.280  11.547 -0.2803 -0.2049  0.0958
15688W        W32535  16.996  19.617   2.251  0.2861 -0.4000  0.1319
15689W        W32536   8.216   6.301   2.653 -0.3629  0.0610 -0.2671
15690W        W32537  11.868   3.188  10.472 -0.0033 -0.1834  0.4530
15691W        W32538  12.455   1.535   0.059 -0.0720  0.1938  0.2088
15692W        W32539  13.192   6.623  11.473 -0.1383 -0.3554  0.0918
15693W        W32540  11.501  14.476  11.316 -0.1425 -0.1253  0.4056
15694W        W32541  10.733   9.305   4.459 -0.1281  0.2666 -0.1841
15695W        W32542   9.460   3.266  13.791 -0.1956 -0.2411  0.2227
15696W        W32543  14.517   2.667   4.844  0.2609  0.1439 -0.4250
15697W        W32544   6.214   0.801   2.148 -0.1221  0.1700 -0.1641
15698W        W32545   9.567  10.657  11.192 -0.1948  0.2638  0.4536
15699W        W32546   7.166   0.316   4.058 -0.2347 -0.1350  0.2291
15700W        W32547  19.396  15.198   1.633  0.2843  0.1881  0.1607
15701W        W32548  19.246   6.433   2.144  0.1341 -0.1060  0.0703
15702W        W32549   8.505   4.506   1.041 -0.3356 -0.1464 -0.1796
15703W        W32550   9.560   8.042   2.492 -0.2102 -0.5060  0.1388
15704W        W32551   5.787   9.754  12.320  0.1784 -0.1564 -0.1008
15705W        W32552  18.871   8.963   0.961  0.0377  0.0607 -0.0787
15706W        W32553   0.113  17.308   0.217  0.0470  0.1771 -0.2197
15707W        W32554   3.494  12.225  13.259 -0.1547 -0.0905 -0.2004
15708W        W32555   6.188   9.461  11.347 -0.2771 -0.1271  0.1273
15709W        W32556  17.406  15.002   4.119 -0.1945  0.2913 -0.3458
15710W        W32557  13.936  16.944   1.869  0.2255 -0.3086 -0.5165
15711W        W32558   8.442  13.829  12.844  0.0677  0.1004 -0.0807
15712W        W32559  10.779  11.678   2.053 -0.3696 -0.2047  0.2546
15713W        W32560   8.359   3.725   2.452  0.0597 -0.1141  0.4149
15714W        W32561   2.589   5.186  12.819  0.0147  0.0461  0.0989
15715W        W32562   4.412  10.053   4.788  0.1729 -0.1417  0.1674
15716W        W32563   1.647  10.748  13.261  0.0035 -0.3421  0.4136
15717W        W32564   8.442   6.567  12.967 -0.1230 -0.0698  0.2113
15718W        W32565  18.809  14.884   4.395 -0.1693 -0.1485  0.3645
15719W        W32566  17.245   9.010  10.081  0.2059  0.1035  0.1603
15720W        W32567  13.438  17.296   3.806  0.0426 -0.2498  0.0632
15721W        W32568  12.118   1.097  14.296  0.0520 -0.0916 -0.0906
15722W        W32569   1.411   4.799   5.048  0.1015 -0.4670 -0.1765
15723W        W32570   8.466  11.172   4.564 -0.2985  0.0897  0.2581
15724W        W32571   0.240   5.034  13.108 -0.0122  0.0008  0.1451
15725W        W32572  12.109   5.699  12.998 -0.0419 -0.1620 -0.1437
15726W        W32573  19.764   0.949   4.023  0.1388 -0.2438 -0.1572
15727W        W32574  15.706  14.816  13.440 -0.2836 -0.2173 -0.0351
15728W        W32575  10.559  11.843   1.029 -0.0227 -0.0471  0.1953
15729W        W32576  13.983   6.287  13.754 -0.1560 -0.1907  0.1306
15730W        W32577   5.992  11.722  11.381 -0.0507 -0.0679 -0.2756
15731W        W32578  11.595  14.601  12.342 -0.0912  0.0072  0.1356
15732W        W32579  17.961   6.341   2.588 -0.1331  0.0786  0.0499
15733W        W32580  16.777  12.490  11.875 -0.0687  0.0066 -0.0216
15734W        W32581  11.892  16.824  13.750  0.2347  0.1169 -0.0262
15735W        W32582  15.080  10.251  11.656  0.0667  0.3913 -0.1753
15736W        W32583   0.272  11.355   4.262 -0.0072 -0.1671 -0.0436
15737W        W32584  17.399   4.534   3.666  0.2430  0.3798  0.2637
15738W        W32585   8.198  16.179  11.985 -0.1367 -0.2937  0.1661
15739W        W32586   1.114   4.798  10.421  0.1725  0.1175  0.0311
15740W        W32587  13.411  10.520   9.080  0.1633 -0.3531 -0.0130
15741W        W32588   6.571   6.421  12.856 -0.0591 -0.1532 -0.1781
15742W        W32589   8.632   4.915   3.837  0.0459 -0.0232 -0.2819
15743W        W32590  18.179   0.113   5.504  0.2997  0.1394  0.1626
15744W        W32591   7.949   4.150  12.948 -0.2163  0.1891  0.1325
15745W        W32592   4.034   0.190  11.185 -0.2878 -0.1201 -0.0326
15746W        W32593  16.059  10.717   1.559 -0.0125 -0.2043  0.4196
15747W        W32594   6.803  17.938  10.084 -0.3451  0.3002  0.1426
15748W        W32595   7.521  18.792  13.588 -0.1752 -0.2152  0.3185
15749W        W32596   6.229  15.996   1.411 -0.1318  0.1146 -0.0607
15750W        W32597  19.144   0.806   2.216 -0.1998  0.1031  0.1246
15751W        W32598  11.127  14.687  13.262  0.1288 -0.0593  0.0102
15752W        W32599  18.345   8.108  12.239 -0.0038 -0.0868  0.1170
15753W        W32600   8.943  11.378   1.061  0.0677 -0.2755 -0.1112
15754W        W32601   6.716   8.065   4.114  0.0752 -0.1051  0.4309
15755W        W32602  18.306  19.903   2.599  0.3526 -0.0584 -0.0600
15756W        W32603  12.034  13.469  11.543  0.0005  0.3695 -0.1279
15757W        W32604   7.652   5.926  13.055  0.0489  0.0269 -0.1949
15758W        W32605  14.736   8.407   3.289  0.2196 -0.1866 -0.3823
15759W        W32606   0.723  14.109   2.960  0.0394 -0.2947 -0.0743
15760W        W32607   3.265   1.892   2.217 -0.0127  0.0769 -0.1979
15761W        W32608  12.795  10.663  11.425  0.1149 -0.1915  0.4409
15762W        W32609   0.169  11.816   4.482 -0.0113 -0.0650  0.2557
15763W        W32610  17.372  18.990   2.283  0.2893  0.0919 -0.0157
15764W        W32611   4.642  15.429   8.820 -0.1899 -0.0881 -0.2287
15765W        W32612   7.975   3.305  13.015  0.2389 -0.2121 -0.1233
15766W        W32613  15.055   9.336  11.781  0.0772  0.1231 -0.0839
15767W        W32614   2.597   6.632  13.858  0.4379  0.1196  0.1237
15768W        W32615   2.077   8.332  10.220  0.0925  0.1776 -0.5137
15769W        W32616   7.154  16.202   3.368  0.2890 -0.1515 -0.2721
15770W        W32617  11.183  11.272   4.231 -0.1665  0.2949 -0.1003
15771W        W32618   6.259  18.522  12.819 -0.1649 -0.0365  0.2697
15772W        W32619  10.288   5.731   3.638  0.3112  0.2180 -0.0304
15773W        W32620  11.450   4.813   3.453  0.2941 -0.1643 -0.0952
15774W        W32621   4.774  14.438  13.384 -0.2280  0.0857  0.1333
15775W        W32622   3.066   2.478  10.666 -0.0819 -0.0414 -0.1650
15776W        W32623   3.259   4.009  13.999 -0.0959 -0.4498 -0.3300
15777W        W32624  16.257   0.637  10.572 -0.1090 -0.2351  0.1851
15778W        W32625   5.526   6.238   3.390 -0.2357 -0.0771 -0.1640
15779W        W32626   7.092   2.960   4.210 -0.2545  0.2152  0.0346
15780W        W32627   1.478   0.568  12.059 -0.0625  0.0792  0.1684
15781W        W32628  16.763  19.360   1.599 -0.3036  0.2053 -0.2803
15782W        W32629  16.132   6.316  12.383 -0.0754 -0.1305 -0.3901
15783W        W32630   6.257   9.522   1.857 -0.0776 -0.0682 -0.0418
15784W        W32631   2.313   5.696  13.398 -0.2288 -0.0503  0.0893
15785W        W32632   6.549  10.019   1.463 -0.0082 -0.0618  0.2814
15786W        W32633  13.583   1.592   3.850 -0.2227  0.1913  0.3440
15787W        W32634  11.569   5.962   2.001  0.1831 -0.0532 -0.0594
15788W        W32635  18.574  10.556   2.478 -0.2666 -0.3177 -0.2613
15789W        W32636  10.942   4.999   1.861  0.0343  0.2225  0.1445
15790W        W32637   5.192   8.195   3.922  0.2072  0.0318 -0.1407
15791W        W32638   4.166  19.040  11.078 -0.1934  0.3304  0.5749
15792W        W32639  19.386   8.009   3.360  0.0349  0.0374  0.0173
15793W        W32640   7.696  16.655  11.375  0.2790  0.2301  0.1268
15794W        W32641  15.436   9.370  13.636  0.2128 -0.0404  0.2464
15795W        W32642   9.578   2.107   4.798  0.3697 -0.1163  0.1460
15796W        W32643  13.205   5.499  12.786  0.2073 -0.3836 -0.1372
15797W        W32644  16.240   6.249  11.383 -0.0679  0.4583 -0.3841
15798W        W32645   6.194   9.576  14.048  0.1142 -0.0835  0.1049
15799W        W32646  15.798   9.784  12.823  0.1810  0.1590  0.2394
15800W        W32647   1.721  14.113  10.513 -0.0802  0.1143 -0.0770
15801W        W32648   7.683   3.760   1.897 -0.2272  0.0420 -0.2981
15802W        W32649  16.299  10.899   3.884 -0.0150 -0.2242  0.2838
15803W        W32650  19.330  18.066   3.615  0.0787 -0.1534  0.1543
15804W        W32651   0.807   6.422  11.944  0.2688  0.2296 -0.0263
15805W        W32652   9.768  16.091   3.378 -0.1573  0.1356 -0.0220
15806W        W32653   0.082  18.953  11.972  0.3600  0.2173 -0.0014
15807W        W32654  16.839   6.918   0.589 -0.3227  0.1444 -0.2632
15808W        W32655   8.278  16.360   0.862 -0.0188  0.1056 -0.0579
15809W        W32656   8.501  11.061   9.416  0.1144  0.0247  0.2959
15810W        W32657  11.512  17.367   4.155 -0.0917  0.2059  0.1091
15811W        W32658   9.050  16.953   2.490  0.2142 -0.1455 -0.2431
15812W        W32659   1.138  10.914  13.307  0.1921 -0.1783  0.0514
15813W        W32660  15.694   2.966   4.459 -0.1431 -0.3116  0.0938
15814W        W32661   5.919  19.049  10.797  0.0338 -0.2353 -0.0302
15815W        W32662  19.520   8.971  14.229 -0.1323 -0.1972 -0.0967
15816W        W32663  10.182  12.906  12.360 -0.2969 -0.0549 -0.1411
15817W        W32664   1.504  12.816   2.205 -0.0836 -0.0819  0.2553
15818W        W32665  11.863  13.550   9.905 -0.0244 -0.0223  0.1696
15819W        W32666  17.424  19.774  12.648 -0.0187 -0.2984  0.0668
15820W        W32667   5.495  14.996   2.796  0.1247 -0.4827  0.0512
15821W        W32668  14.905   6.726  10.642  0.1205 -0.0085 -0.1512
15822W        W32669  14.592  12.486   3.106  0.0427  0.0940 -0.1991
15823W        W32670   6.442  13.309   3.797 -0.1468 -0.1004 -0.0190
15824W        W32671  10.534   7.749  13.232 -0.1432 -0.3524  0.0484
15825W        W32672   1.511   3.528   9.792  0.1102 -0.0432  0.3255
15826W        W32673   3.790  16.639   3.688 -0.1076 -0.3254  0.3042
15827W        W32674   0.168  12.027   2.082 -0.0494 -0.2260  0.1715
15828W        W32675  10.640   2.671  13.804  0.3991 -0.2114  0.1694
15829W        W32676   0.940   7.441  10.249  0.1693 -0.2837  0.0011
15830W        W32677  11.872  17.967  12.719 -0.1446 -0.0974  0.1916
15831W        W32678  19.590  15.673   2.549 -0.3452  0.1792 -0.1951
15832W        W32679   2.384   0.896   0.814  0.1171 -0.0173 -0.0159
15833W        W32680  12.772  14.385  10.991 -0.0445 -0.0035  0.2121
15834W        W32681  19.605   5.766  11.486 -0.0068 -0.0906 -0.0128
15835W        W32682   5.453  17.498  13.935  0.1530 -0.1091  0.1168
15836W        W32683   3.867   6.332   0.222  0.4699  0.2510 -0.0916
15837W        W32684  19.427  18.203   2.705 -0.3397  0.1806 -0.0149
15838W        W32685   2.353  14.420   3.504 -0.2226 -0.1318  0.0486
15839W        W32686   8.179   2.336   4.431  0.3571  0.1009 -0.0143
15840W        W32687  10.347   9.381   1.649  0.1195  0.3090 -0.0149
15841W        W32688  19.472  14.828   2.788  0.1075  0.0604 -0.3166
15842W        W32689   4.325   6.012   2.324 -0.1800 -0.1055 -0.3082
15843W        W32690   3.066  15.134  11.920  0.1308 -0.1091 -0.2301
15844W        W32691   9.529  15.112  11.496 -0.0402 -0.0811 -0.0411
15845W        W32692   4.795  13.742  12.045 -0.1415  0.0277  0.1444
15846W        W32693  10.938   9.711   0.990 -0.0460 -0.0135  0.0559
15847W        W32694   1.773  19.179  11.884  0.0345 -0.0441  0.0197
15848W        W32695   2.895  11.894   2.655 -0.0029  0.1906 -0.0213
15849W        W32696   1.621  17.551   1.291  0.0983 -0.1629  0.0987
15850W        W32697   1.587  10.124   1.770  0.2031  0.1575  0.2119
15851W        W32698   5.286  18.852   2.858  0.0007 -0.0348  0.2001
15852W        W32699  14.697  16.669   0.006  0.0292  0.2554 -0.7286
15853W        W32700  12.505   7.854   0.673 -0.0185 -0.1355  0.1668
15854W        W32701  15.562  14.290  13.768 -0.0367 -0.0500  0.2161
15855W        W32702   6.709  12.169   1.559 -0.0868 -0.3981  0.1571
15856W        W32703   8.420  14.063   3.123 -0.1118  0.0825  0.1457
15857W        W32704   0.319   0.659   1.284 -0.1994 -0.3712  0.0220
15858W        W32705  19.402  11.747   0.294  0.0854 -0.3282  0.0512
15859W        W32706  10.749   7.146  12.544 -0.1275 -0.0484  0.1744
15860W        W32707   9.234  18.308   3.656 -0.0532 -0.0066 -0.0555
15861W        W32708   3.101   9.510  13.653  0.0877 -0.2402 -0.0287
15862W        W32709   0.162   2.852   5.147  0.0076  0.2024  0.3471
15863W        W32710  19.260  11.158   2.858  0.0086  0.3730  0.2557
15864W        W32711   0.098   8.568  10.207 -0.0414  0.3040 -0.1314
15865W        W32712  18.172   3.416  12.107  0.3257  0.0340  0.2237
15866W        W32713   4.319  14.983   9.906 -0.0325 -0.1666  0.1716
15867W        W32714  16.884  12.506  12.479 -0.1579  0.1924  0.1511
15868W        W32715   3.180   2.164  14.064  0.1782  0.1497  0.2585
15869W        W32716   7.605  11.176  10.503  0.1571 -0.0424  0.2645
15870W        W32717   9.439  10.779  14.143 -0.1133 -0.2302 -0.3044
15871W        W32718   8.309  17.015  11.933  0.2337  0.2643  0.0230
15872W        W32719   3.886  11.748   4.606 -0.1735 -0.1275 -0.2344
15873W        W32720   0.894  16.541  11.639  0.0715  0.0994 -0.0691
15874W        W32721  10.989  14.320   0.794 -0.2966 -0.2558  0.1311
15875W        W32722   2.609  18.963   1.948  0.0323 -0.0015 -0.0272
15876W        W32723   4.754   6.459  13.312 -0.1569  0.3641 -0.2391
15877W        W32724   9.712   4.842  12.758  0.3028 -0.0076  0.0086
15878W        W32725  17.654   0.778  10.296 -0.3216  0.0269  0.3408
15879W        W32726   7.581   5.419  14.131 -0.1093 -0.3465  0.1522
15880W        W32727  11.724  10.044   1.858 -0.2142 -0.0986 -0.1721
15881W        W32728  16.111   3.260   3.584  0.2609 -0.3163  0.0207
15882W        W32729   8.383   0.115   0.362 -0.0523 -0.0995 -0.1931
15883W        W32730   4.288   0.089   2.368 -0.1050  0.4548  0.0145
15884W        W32731   4.595  12.360   2.237 -0.3360  0.0866 -0.1146
15885W        W32732  11.741   8.478   8.520  0.3005 -0.0807  0.0173
15886W        W32733  16.466  10.603   1.248  0.2242  0.6095  0.1826
15887W        W32734  17.177  10.840   2.326 -0.0023 -0.2470 -0.0415
15888W        W32735   4.000  10.698   1.670 -0.0982  0.3796  0.1373
15889W        W32736  16.955   9.035   4.431 -0.2047  0.0583 -0.0025
15890W        W32737   8.180  15.396  11.439  0.0923 -0.3410  0.0641
15891W        W32738  18.238  16.796   3.886  0.1690  0.0949  0.0017
15892W        W32739  18.065  11.495   0.677  0.2054 -0.3867 -0.3005
15893W        W32740  14.240   4.529   4.943  0.3609  0.1879 -0.0423
15894W        W32741  16.926  17.842  11.000 -0.1091  0.0545  0.2005
15895W        W32742   5.853  17.875  11.612 -0.1485 -0.0220 -0.0492
15896W        W32743   6.025  12.582  11.844  0.1864  0.0429  0.0871
15897W        W32744  14.215  14.942   0.167  0.3415  0.0365 -0.0832
15898W        W32745   9.924   6.072   3.617 -0.2130 -0.0247 -0.0099
15899W        W32746  18.063   2.343   4.035  0.0182 -0.1024 -0.0508
15900W        W32747   3.562  12.678  10.136 -0.1695 -0.0846  0.1164
15901W        W32748   1.016   1.242   1.511 -0.1094 -0.1194 -0.1061
15902W        W32749   3.409   4.580  11.246 -0.1516 -0.0668  0.0296
15903W        W32750  12.378  13.929   2.531  0.0664 -0.0565 -0.1300
15904W        W32751   4.020  13.886   3.088  0.0111 -0.1487  0.1890
15905W        W32752   4.905  16.967   1.314 -0.2545  0.0713 -0.2039
15906W        W32753   5.316  13.498   1.823  0.0746 -0.1218  0.3980
15907W        W32754  14.719  11.632  11.231 -0.1764 -0.1907  0.3818
15908W        W32755  11.433   4.811   4.321  0.0063  0.4302  0.0948
15909W        W32756   6.270  17.085   2.642  0.0448  0.1458 -0.0247
15910W        W32757   3.271  15.311  12.421  0.0539 -0.1462 -0.1250
15911W        W32758  12.353  17.183  10.428  0.2194  0.1732  0.0225
15912W        W32759  11.395  16.642  11.686 -0.1327 -0.1148  0.1496
15913W        W32760  16.636   8.448   5.632  0.0299  0.1267  0.0906
15914W        W32761  14.085   7.247   5.137 -0.0354  0.0872  0.3117
15915W        W32762  18.064   8.570  11.892  0.3703 -0.0483  0.1500
15916W        W32763   9.124  19.473  12.832  0.0286 -0.3290 -0.2245
15917W        W32764  16.323  17.315  13.181  0.0439  0.1608  0.2028
15918W        W32765  14.664   1.398   2.604  0.3343  0.3984 -0.1884
15919W        W32766   3.913   5.936  12.665  0.0850  0.1403 -0.4385
15920W        W32767  17.533  16.540  13.429  0.4844  0.1962 -0.3676
15921W        W32768   7.245  12.927   3.769 -0.0479  0.3686  0.1608
15922W        W32769   7.602  17.538  11.591 -0.1052 -0.1862 -0.1364
15923W        W32770   4.989  15.164  10.950 -0.1870 -0.2146  0.0809
15924W        W32771   3.876   0.068  14.209 -0.2944 -0.3154  0.0280
15925W        W32772   1.660  16.348   4.310 -0.0507  0.3060  0.0291
15926W        W32773  11.679   5.584   2.560 -0.3097 -0.0302 -0.0285
15927W        W32774  18.144  13.586  14.209  0.1702  0.0534 -0.0100
15928W        W32775   9.961  11.026  13.435 -0.1699  0.0739 -0.0029
15929W        W32776  16.825   1.751   5.050  0.2873 -0.1895 -0.0947
15930W        W32777  11.986   0.586  13.503 -0.2052 -0.1469 -0.0710
15931W        W32778   7.526  17.613  13.258 -0.1845  0.2458  0.0987
15932W        W32779  18.285  15.200   2.147 -0.2294 -0.4255  0.1868
15933W        W32780  12.152   2.539   4.373  0.1996 -0.0556  0.2123
15934W        W32781   4.049  16.209  13.960  0.0778 -0.3891 -0.0134
15935W        W32782  11.732  18.025   2.954  0.0769 -0.0051  0.2451
15936W        W32783  18.806   8.622   0.380 -0.0617  0.1113  0.0817
15937W        W32784  16.128  11.465  13.810  0.1787 -0.0166  0.0372
15938W        W32785   7.156   3.859  11.553  0.3074 -0.1662 -0.3098
15939W        W32786   9.899   4.051   4.842  0.1398 -0.2856  0.1701
15940W        W32787  15.443   9.812   1.291 -0.1281  0.1525 -0.3240
15941W        W32788   8.299  10.905  11.804  0.0001 -0.1175 -0.0028
15942W        W32789   7.890  15.570   0.995  0.0633  0.2082 -0.0514
15943W        W32790  11.264   5.168  11.427 -0.0030 -0.0309  0.0397
15944W        W32791  12.999   0.557   2.974  0.1086 -0.1946  0.0204
15945W        W32792   8.017   2.115  13.933  0.0591  0.2803  0.3309
15946W        W32793  13.962   7.673   2.803  0.1603 -0.0774  0.0477
15947W        W32794  13.769   3.801   3.266 -0.2817 -0.0298 -0.4795
15948W        W32795   6.489   7.253  13.168  0.4348  0.3846 -0.4564
15949W        W32796   2.268  14.803  13.760 -0.1728  0.1173  0.0999
15950W        W32797   8.401  13.447  11.866 -0.1224 -0.1291  0.1007
15951W        W32798  16.799   3.828  10.888  0.2351 -0.1450  0.3491
15952W        W32799  18.737  13.390  10.690  0.2679 -0.3470 -0.0010
15953W        W32800   6.122  12.101  11.054  0.0374 -0.1836  0.2325
15954W        W32801  14.481   9.777   0.013  0.1458 -0.1161 -0.3656
15955W        W32802  18.128   6.667   9.984 -0.0380  0.0094  0.0813
15956W        W32803   0.130  12.660   9.659  0.0839 -0.0321 -0.2441
15957W        W32804  18.686   7.369  14.121 -0.1673  0.0975 -0.0124
15958W        W32805   4.743   6.147   2.719 -0.0146  0.0533 -0.2248
15959W        W32806  19.271  19.513  13.953 -0.0260  0.0742  0.0348
15960W        W32807  11.096   8.317   1.598 -0.1920  0.0688 -0.3195
15961W        W32808   0.290  10.118   2.975 -0.0538  0.0440  0.2710
15962W        W32809   0.998   2.365   2.416  0.2156 -0.1800  0.0629
15963W        W32810  19.572   3.377  12.157 -0.1186 -0.1394 -0.3080
15964W        W32811  16.659   9.683  13.475  0.1883  0.1379  0.4571
15965W        W32812   1.064   8.974  10.397 -0.0612 -0.2366 -0.0478
15966W        W32813  10.577  18.012   0.882 -0.1417 -0.0387  0.0791
15967W        W32814   1.497  19.763   3.127 -0.3636  0.0634 -0.5025
15968W        W32815   0.601   5.663  11.671  0.2079 -0.0294 -0.0198
15969W        W32816  17.814  16.586   3.989 -0.1422 -0.3055 -0.0401
15970W        W32817  12.547   4.477  10.926  0.0377  0.3119  0.0605
15971W        W32818   5.878  11.873   3.230  0.3123 -0.0724  0.0979
15972W        W32819  13.509  17.694   9.888 -0.0687 -0.2953 -0.3715
15973W        W32820  16.428   0.134   1.083 -0.1833 -0.1955 -0.2546
15974W        W32821   6.494  18.924   1.016  0.2944  0.3009  0.1893
15975W        W32822   7.595   9.022   3.544  0.1029 -0.2246 -0.1829
15976W        W32823   3.445  15.131  10.054  0.3548  0.2579  0.2363
15977W        W32824  16.616   2.478  13.739 -0.1217 -0.0036  0.2468
15978W        W32825   0.199   9.844  13.993 -0.1544 -0.0541 -0.0343
15979W        W32826  14.926   7.467   2.728 -0.1977  0.1430 -0.0365
15980W        W32827  17.102  15.214   1.535  0.0257  0.1962 -0.2514
15981W        W32828   2.007   4.195  10.301  0.0494  0.0725 -0.1209
15982W        W32829  19.159  19.252   0.737 -0.0227 -0.1042  0.0357
15983W        W32830   9.091   4.103  11.811 -0.1934  0.1954  0.3477
15984W        W32831   8.319  11.965   2.337  0.3045 -0.1470  0.1765
15985W        W32832  10.466   3.672  10.691 -0.1787  0.0085  0.0957
15986W        W32833  13.234   1.813   4.668 -0.0328  0.1186  0.0032
15987W        W32834  16.418  11.464  14.241 -0.0852 -0.1056 -0.2755
15988W        W32835   7.047   9.909   1.505  0.1234  0.1710 -0.3331
15989W        W32836  12.844   4.751   0.140  0.2004 -0.0664  0.3293
15990W        W32837   9.814   0.942   3.053 -0.1583  0.0605  0.2580
15991W        W32838   2.268   4.358   4.045  0.3241  0.0334  0.0108
15992W        W32839   4.463  19.363   0.703 -0.0369 -0.1414 -0.0642
15993W        W32840  10.459   9.428  11.733 -0.0230 -0.0665 -0.2137
15994W        W32841   7.845   8.497   9.944  0.4197 -0.1977  0.1187
15995W        W32842   8.671  12.063   2.739 -0.0475  0.1065 -0.0587
15996W        W32843   8.419  16.386  12.817 -0.0051 -0.3414  0.1401
15997W        W32844   3.883  18.445  11.597 -0.0596  0.3787 -0.0981
15998W        W32845   9.368  15.400   0.231 -0.0280 -0.5587 -0.0225
15999W        W32846  19.480  13.231  11.878 -0.2177 -0.0635 -0.1699
16000W        W32847   3.371  14.867  10.984  0.0157  0.2111 -0.0308
16001W        W32848  11.844   9.381   1.517 -0.1089 -0.0646 -0.4378
16002W        W32849   3.297  18.054  10.875 -0.1822  0.2079  0.0108
16003W        W32850   0.794   1.571   3.073  0.0677 -0.2043  0.1329
16004W        W32851  13.960   6.653   4.446 -0.0043 -0.0436  0.3517
16005W        W32852  18.363  13.858  10.773 -0.1942  0.2589  0.0349
16006W        W32853   9.842   9.817   0.035 -0.1825 -0.1417  0.2381
16007W        W32854   5.750  10.329  14.072  0.2531  0.0296 -0.2062
16008W        W32855  12.623   4.492  11.468  0.2260 -0.2706  0.1421
16009W        W32856   5.039  18.424  12.436  0.0291 -0.0464 -0.3616
16010W        W32857  10.516  10.200  12.170  0.1186 -0.1096 -0.1078
16011W        W32858  11.556   3.081  12.418 -0.3031  0.2659  0.1148
16012W        W32859   6.583  18.598   4.258  0.0421 -0.0375  0.0784
16013W        W32860  15.795   2.435   3.322  0.2659  0.0133 -0.2478
16014W        W32861   0.668  10.997  10.291  0.2798 -0.3204  0.2028
16015W        W32862  14.971  12.413   2.773  0.1917  0.2016  0.0550
16016W        W32863  14.477  17.366   9.957  0.2082 -0.2602 -0.1859
16017W        W32864   4.760  10.447   2.173 -0.0505  0.0749 -0.4501
16018W        W32865  17.807  19.043  10.441  0.0029 -0.0769 -0.1537
16019W        W32866  13.731   8.100  13.110 -0.5559  0.1100 -0.1489
16020W        W32867   8.714  18.421  10.755 -0.0924  0.0828  0.0695
16021W        W32868   7.022   5.107   0.855 -0.1849 -0.3166  0.2903
16022W        W32869  13.410  11.855   3.028  0.1432  0.2343  0.1600
16023W        W32870  17.063  10.790   9.077 -0.0037 -0.0777  0.1624
16024W        W32871   8.835  17.177  13.763  0.1000  0.2428  0.0119
16025W        W32872  15.248   2.907   3.562 -0.1020 -0.1422  0.1737
16026W        W32873  13.274   2.771   4.751  0.2337  0.2936 -0.1479
16027W        W32874   1.206   2.848   3.864 -0.1488 -0.1842 -0.0495
16028W        W32875   5.970   8.253  12.291  0.1630 -0.0145 -0.3213
16029W        W32876  16.235  17.604   1.025 -0.0716 -0.1349  0.1973
16030W        W32877  10.462   5.023   4.346 -0.0334 -0.2885  0.1300
16031W        W32878   5.144  16.948   3.368 -0.2098 -0.0644  0.1239
16032W        W32879  19.346  17.174   3.348 -0.2400 -0.3467  0.0690
16033W        W32880  19.827  10.735   1.053 -0.0209  0.1748  0.0363
16034W        W32881   7.913   8.658  11.700  0.0873  0.1626  0.1771
16035W        W32882   2.468  12.802  13.406 -0.3628  0.1333  0.0181
16036W        W32883   3.778   3.910   4.747  0.3182 -0.0278 -0.2230
16037W        W32884  12.579  10.291   4.397 -0.3004 -0.1020 -0.4163
16038W        W32885   3.146   9.681   1.022  0.2672 -0.0815 -0.1181
16039W        W32886  14.158  14.179  13.925  0.1061  0.2261  0.0614
16040W        W32887   6.255   1.301  13.082 -0.0607 -0.1458 -0.0422
16041W        W32888  11.824   2.690   4.762 -0.1646  0.0267  0.2285
16042W        W32889  17.074  11.558  10.377 -0.2547 -0.2332 -0.1730
16043W        W32890  19.879  19.103   3.785 -0.3210 -0.0486 -0.0505
16044W        W32891   3.580  14.555   2.806 -0.0796 -0.1404  0.0689
16045W        W32892  12.376  14.504  11.777  0.2439  0.0400 -0.2927
16046W        W32893  12.413   1.213   0.798  0.1444  0.0474 -0.2564
16047W        W32894  13.791  17.469  10.305 -0.2187  0.4551  0.1232
16048W        W32895   2.650   6.529  10.183  0.1189 -0.0557  0.1150
16049W        W32896   8.474  19.524   3.189  0.0984 -0.1753  0.0065
16050W        W32897  15.445   1.537  10.487  0.0982 -0.1736  0.0020
16051W        W32898  17.256  17.617   1.894 -0.0776  0.1368 -0.2208
16052W        W32899  15.957   6.964  12.609  0.0629  0.2121 -0.2138
16053W        W32900  17.211  14.293   0.429 -0.0738 -0.3436 -0.1098
16054W        W32901  16.992   9.270  13.581 -0.2168  0.1019  0.2095
16055W        W32902   1.856   6.055   1.621  0.2600  0.1088 -0.0940
16056W        W32903  13.689   3.358  10.451 -0.1165 -0.1750  0.1950
16057W        W32904  15.434   7.280   4.835  0.0156  0.2972  0.0073
16058W        W32905  19.281   4.013  10.367  0.1095  0.2081  0.0119
16059W        W32906   4.357   0.839   1.266  0.0156 -0.0046  0.0195
16060W        W32907  13.103   2.978  12.820  0.1493 -0.3359 -0.2459
16061W        W32908   5.519  15.822  12.573 -0.1990  0.0262 -0.1466
16062W        W32909  17.094  15.254  12.198 -0.1785  0.0543  0.1689
16063W        W32910  18.263   9.491  10.921  0.2622  0.1708 -0.1900
16064W        W32911  13.375  10.348  12.443  0.4072 -0.0476 -0.1638
16065W        W32912   6.137  18.998   1.401  0.2227 -0.0486 -0.0447
16066W        W32913  19.005   4.355  10.614  0.0719 -0.1850  0.0579
16067W        W32914   2.992  12.548  13.252 -0.1383 -0.0080 -0.0932
16068W        W32915   1.566   5.747   0.865 -0.0122  0.0757  0.0390
16069W        W32916  15.388  18.951   2.559 -0.2974 -0.2607 -0.1339
16070W        W32917  15.956   6.530   5.078 -0.0105 -0.3269  0.0378
16071W        W32918  17.292   4.176  12.722 -0.1186  0.3098 -0.3332
16072W        W32919  16.598   4.340   1.741 -0.0860 -0.0379 -0.1956
16073W        W32920   8.319  18.350   0.353 -0.2827 -0.4471 -0.0050
16074W        W32921   4.125   4.434   3.463  0.0206  0.0014  0.2764
16075W        W32922  18.077   8.257   3.382  0.0291 -0.2237 -0.0306
16076W        W32923   9.454  13.702  11.767 -0.2797 -0.0522  0.2058
16077W        W32924  15.510   1.892  13.634  0.2470 -0.3150 -0.0640
16078W        W32925   4.603   8.880  12.152  0.0680 -0.1456  0.0338
16079W        W32926   4.607   8.497   1.814  0.1835  0.0464 -0.0221
16080W        W32927  17.131   6.497  11.563  0.2932  0.2838  0.1116
16081W        W32928  19.841  14.599   1.124 -0.3571  0.3190  0.1209
16082W        W32929  15.783   6.609   2.792 -0.2895 -0.0265  0.1269
16083W        W32930   9.355  16.119   1.976 -0.1384  0.0830  0.0220
16084W        W32931  19.318   7.380  12.483 -0.1069 -0.0878 -0.2043
16085W        W32932   2.648   1.531  10.641  0.0323  0.0463 -0.0812
16086W        W32933   1.094  11.405  13.607  0.2032 -0.0851 -0.1142
16087W        W32934   6.629  18.861   1.499 -0.5457  0.2021 -0.0405
16088W        W32935  15.161  11.030   3.168  0.4249  0.0804 -0.0015
16089W        W32936   9.947  13.194   0.965 -0.1227  0.2398 -0.0545
16090W        W32937   9.154   7.747  10.129  0.0472 -0.1307 -0.1142
16091W        W32938   6.460   4.049   3.466  0.1334 -0.0062  0.2690
16092W        W32939  17.672   2.141   3.590 -0.0021 -0.2612  0.1108
16093W        W32940  11.105   8.778   0.998  0.2813  0.2621  0.2270
16094W        W32941  11.449   0.721  10.528  0.4690  0.0139 -0.0776
16095W        W32942   0.772   9.112  10.752 -0.0349 -0.2076  0.0436
16096W        W32943  10.369   9.446  10.852  0.1267  0.0902 -0.2802
16097W        W32944  10.277  18.951  11.559  0.0264 -0.0069  0.0648
16098W        W32945   7.898  10.800  10.562  0.2192 -0.1760  0.1089
16099W        W32946   5.474   4.787  14.136  0.3322 -0.1188 -0.0655
16100W        W32947   7.945  10.705  13.270  0.2275 -0.0964  0.0184
16101W        W32948  12.900   2.780   1.168  0.0820  0.1040  0.3767
16102W        W32949   2.665  10.629  11.743 -0.3551  0.0511  0.1823
16103W        W32950  15.699   3.603   2.025  0.0769  0.0301 -0.1070
16104W        W32951  11.289  19.499  11.265  0.1644 -0.0338  0.2131
16105W        W32952  19.446   1.263   0.381 -0.4166 -0.3476 -0.0826
16106W        W32953  17.468   9.123   4.661  0.0102  0.0769  0.1408
16107W        W32954  14.034  10.501  10.253  0.0897 -0.0344 -0.3695
16108W        W32955   5.408  18.570  11.367 -0.0947 -0.1676  0.0063
16109W        W32956  16.024   9.180  10.479  0.1950 -0.1368  0.0298
16110W        W32957   4.512  18.437   4.310  0.1442 -0.6106  0.2174
16111W        W32958   9.626   3.982   3.221  0.3732 -0.0941 -0.0461
16112W        W32959   0.758   7.442  10.721 -0.2253 -0.0378 -0.0803
16113W        W32960  18.742  18.692  12.834  0.1937 -0.2142 -0.1666
16114W        W32961   1.907   1.710   5.144  0.1381 -0.0681 -0.0792
16115W        W32962   5.262   9.379  11.209 -0.1582 -0.2565  0.1777
16116W        W32963  19.529  18.330  11.480  0.3370  0.4081  0.1421
16117W        W32964   6.592   6.383  12.353  0.1423 -0.0333 -0.0198
16118W        W32965  19.809   0.835   0.290 -0.0032  0.3365  0.0091
16119W        W32966   2.261  19.094  12.211 -0.0271  0.1725  0.0709
16120W        W32967  14.207  17.400  11.284 -0.1727 -0.2703 -0.3453
16121W        W32968  19.425   6.187  13.478  0.0392  0.0680  0.2057
16122W        W32969   7.767   9.136   4.615  0.0961 -0.1954  0.0969
16123W        W32970  17.323  17.845  12.980 -0.0883  0.1460  0.1681
16124W        W32971   6.306   1.135   3.240  0.2252  0.0043 -0.0149
16125W        W32972   7.168  19.699  13.724 -0.0084 -0.1221 -0.1904
16126W        W32973   1.918  16.102   3.129  0.0254  0.0546  0.0677
16127W        W32974   9.954   0.546   1.077 -0.0113 -0.2784  0.0346
16128W        W32975   6.968   5.121   2.798  0.1518 -0.0166  0.0847
16129W        W32976   3.138  12.104   0.832 -0.0156  0.0442  0.0908
16130W        W32977  18.728  16.403   3.634  0.3458 -0.2130 -0.2838
16131W        W32978  17.447   1.102   4.367 -0.2628 -0.0591  0.0261
16132W        W32979   1.294  13.036   4.161 -0.0791 -0.1529  0.0243
16133W        W32980   0.079   4.118  11.905 -0.2547 -0.0949  0.1247
16134W        W32981  10.574  11.040   5.197 -0.0427  0.1428  0.1109
16135W        W32982   5.915   4.246  13.300 -0.2293 -0.0061 -0.4313
16136W        W32983   6.736   2.635  11.680  0.0670  0.2594 -0.4952
16137W        W32984  16.549   1.095   1.889  0.0442 -0.0813  0.0453
16138W        W32985  14.700   4.982   1.742 -0.2086 -0.1714  0.1181
16139W        W32986  13.943   5.660   0.347 -0.3371  0.2055 -0.0343
16140W        W32987  16.779   0.102   5.617 -0.1361  0.3940 -0.0585
16141W        W32988   6.278  17.165  14.041  0.1036 -0.0617 -0.1913
16142W        W32989   6.125  11.913  10.026  0.3597 -0.2033  0.2724
16143W        W32990  13.521   8.575  10.028 -0.0357 -0.1014  0.0601
16144W        W32991   0.173   0.570  11.549 -0.1877 -0.0303  0.0183
16145W        W32992   8.679  16.423   3.878 -0.1168  0.0298  0.0852
16146W        W32993   6.359  15.229   2.749 -0.0626  0.0556 -0.3209
16147W        W32994   8.293   1.923  10.635 -0.3204  0.4286  0.2206
16148W        W32995  16.437   6.536   5.200  0.0525 -0.3327 -0.3072
16149W        W32996  16.504  15.542  10.522 -0.3171  0.3156  0.0165
16150W        W32997   5.349  17.861  14.303 -0.0194 -0.0030  0.1031
16151W        W32998   0.271  18.112   1.853  0.3098  0.0144 -0.0141
16152W        W32999   3.970   7.390   3.887 -0.3065  0.0633  0.0338
16153W        W33000   8.177  15.400   4.909 -0.3484  0.1442 -0.2264
16154W        W33001   6.685   1.177  11.748  0.0261  0.0074  0.1232
16155W        W33002  13.037  14.903   1.743 -0.0338 -0.2905  0.1612
16156W        W33003   8.377  16.357   4.820  0.1259  0.0502 -0.0239
16157W        W33004  19.099  17.543   3.187 -0.2853  0.2305 -0.0557
16158W        W33005  16.877  18.240   0.246 -0.2084  0.2987  0.1329
16159W        W33006   2.706  17.509  11.528 -0.0944 -0.1337 -0.0982
16160W        W33007   1.569   2.902  12.625  0.3078 -0.1703  0.0462
16161W        W33008   8.015  15.893  13.788  0.1027 -0.2188 -0.0371
16162W        W33009   8.581   8.233  10.272 -0.0808  0.1921 -0.1608
16163W        W33010  11.899  19.456   4.175  0.1650 -0.0324 -0.2720
16164W        W33011   5.565  11.473   2.609 -0.1520  0.0401 -0.1976
16165W        W33012   3.620  13.587   3.051 -0.3040  0.0723  0.1494
16166W        W33013  10.015  16.587   0.791  0.1610  0.1356 -0.1970
16167W        W33014   5.953   0.395  13.602  0.1751  0.0685  0.1397
16168W        W33015   1.657   0.552   0.258 -0.1613  0.0678 -0.1869
16169W        W33016  11.237   1.718   4.483 -0.2281 -0.2558  0.1420
16170W        W33017   4.342   6.392  13.635  0.1180  0.3077  0.0531
16171W        W33018   7.824  15.065  13.272  0.0924 -0.2600  0.3679
16172W        W33019   8.219   4.959  12.372 -0.0336  0.1539 -0.2786
16173W        W33020  17.538  17.762  12.459  0.2309  0.0688  0.4219
16174W        W33021   1.820  15.042  13.906  0.0580 -0.1688 -0.1868
16175W        W33022  16.347  10.045   0.502 -0.0380  0.1659  0.1184
16176W        W33023   3.597  15.014   2.376  0.0208  0.1941 -0.0944
16177W        W33024  15.267   3.609   0.578 -0.2945 -0.3303 -0.0052
16178W        W33025   6.041  12.691  11.108 -0.2290 -0.0669  0.1141
16179W        W33026  18.847  16.562   2.577  0.2232 -0.3480  0.1500
16180W        W33027   7.992  13.723   3.288  0.0750 -0.0012 -0.0620
16181W        W33028  13.080  19.329  12.762  0.4344 -0.1520  0.0971
16182W        W33029  12.523   2.030  10.626  0.3159  0.2398 -0.2915
16183W        W33030  11.831  15.057  12.237 -0.0272  0.0452  0.2759
16184W        W33031  14.232   7.009   3.357 -0.2494 -0.3186  0.1097
16185W        W33032   0.952  12.059   1.028 -0.2215 -0.0500 -0.0408
16186W        W33033  13.654  17.263   4.659 -0.0808 -0.0335 -0.0737
16187W        W33034   5.273   9.757   3.808  0.0138 -0.3702 -0.1543
16188W        W33035  11.574  11.975   0.742 -0.1006  0.1571  0.0321
16189W        W33036  18.895   9.907   3.506  0.2354  0.0909 -0.0568
16190W        W33037   3.917   4.476  10.137  0.1349  0.1461 -0.1530
16191W        W33038  13.501  18.314   4.477  0.0712  0.1461 -0.2475
16192W        W33039  17.289   4.733  10.722  0.2678  0.1556  0.1094
16193W        W33040  16.279  11.035  11.227  0.0857  0.2349  0.0573
16194W        W33041   6.798  11.023   4.488  0.1018 -0.0733 -0.2163
16195W        W33042   2.946  15.524   2.563  0.2826 -0.0771 -0.0256
16196W        W33043  10.459  18.100   4.583 -0.4424 -0.2704  0.1706
16197W        W33044   4.721  11.027   1.357 -0.4280  0.0433 -0.0855
16198W        W33045   8.799  19.863  12.822 -0.0966 -0.1552  0.0052
16199W        W33046  11.746   7.712   3.890  0.1051  0.3129 -0.2568
16200W        W33047  17.204   9.328  10.608 -0.1432  0.0908  0.2810
16201W        W33048  16.960  14.307   1.146 -0.4364  0.0735 -0.0022
16202W        W33049   9.313   0.092   5.218  0.1158  0.2193 -0.1843
16203W        W33050   3.374  13.660  10.500 -0.1377 -0.1568  0.1920
16204W        W33051  13.768  17.436   2.404  0.2039  0.0801  0.1503
16205W        W33052   0.850   9.849  10.669  0.2731  0.0463 -0.1681
16206W        W33053  15.946   4.137   4.122 -0.0165 -0.2574  0.0442
16207W        W33054  12.787  10.831  13.777 -0.3127 -0.0976 -0.0081
16208W        W33055   8.388   4.786  11.537  0.0266 -0.2155  0.1887
16209W        W33056  11.665   6.269   0.635 -0.1305  0.1619 -0.4734
16210W        W33057  11.987  11.670  14.244 -0.0992  0.4434 -0.0320
16211W        W33058   0.323   2.499   4.215 -0.0943  0.2330 -0.2890
16212W        W33059  12.254   6.334  13.836 -0.2612 -0.2974 -0.2380
16213W        W33060   1.949  11.879   4.905  0.0163  0.1445  0.1657
16214W        W33061  16.562   6.439  12.741  0.0026 -0.1487  0.0082
16215W        W33062   4.591   5.765   0.088  0.0666  0.1608 -0.2069
16216W        W33063   4.387   6.953   1.035 -0.0340 -0.0083  0.3109
16217W        W33064  10.058  12.464   4.409 -0.3493 -0.1834 -0.1263
16218W        W33065  11.411  16.093  10.292  0.1323 -0.2598  0.2885
16219W        W33066   8.869   7.599   5.487 -0.1316  0.0910 -0.0871
16220W        W33067  13.787  15.767   3.842  0.2110 -0.0784 -0.0410
16221W        W33068   5.661  10.412  10.202  0.0985  0.2868 -0.0802
16222W        W33069   3.067   4.854   0.967 -0.0389 -0.0464  0.1205
16223W        W33070   2.148  11.556  11.095  0.1924 -0.0492  0.1349
16224W        W33071  18.190  18.517   2.091  0.1080 -0.3115 -0.0570
16225W        W33072   7.852  12.850  13.776  0.1187 -0.1512 -0.1139
16226W        W33073   8.731  16.817   0.112  0.4633  0.0252  0.2862
16227W        W33074   2.659  16.532  11.681 -0.3516 -0.2289  0.0145
16228W        W33075  18.477   4.623  13.333  0.1145  0.0784 -0.0276
16229W        W33076  18.204  17.803   1.632  0.1435 -0.2836  0.1445
16230W        W33077  13.556   2.323  12.210  0.0138  0.1608 -0.3279
16231W        W33078  19.814  16.844   2.757  0.1513  0.3856  0.0427
16232W        W33079   5.231   9.524  14.134 -0.3082 -0.4188  0.3211
16233W        W33080   5.599   8.481   3.882  0.0410 -0.0196 -0.1206
16234W        W33081   2.143   5.379  13.036 -0.1982  0.0566  0.0537
16235W        W33082  12.808   8.900   1.526 -0.3223  0.0034 -0.0464
16236W        W33083  13.494   4.541   1.064 -0.1726 -0.3289  0.1045
16237W        W33084   3.401  16.577   0.835 -0.4413  0.1362 -0.2363
16238W        W33085  13.965   2.013   1.575 -0.0968 -0.0604  0.1675
16239W        W33086  16.677  15.500  13.305 -0.1729  0.0037  0.0543
16240W        W33087  10.906   5.347   3.831  0.2126 -0.0601  0.1023
16241W        W33088   9.414   3.979  11.447  0.1614  0.1604  0.3480
16242W        W33089  19.841   9.120  13.117 -0.4321  0.1709  0.2673
16243W        W33090   0.421   5.932  13.103 -0.0242  0.1722 -0.3778
16244W        W33091   0.723   1.818   1.653 -0.2713  0.0035 -0.0584
16245W        W33092  11.002  13.182  11.884 -0.0816 -0.3364  0.0646
16246W        W33093   6.494  18.019  10.453 -0.1973  0.2435  0.0937
16247W        W33094  19.748   2.216  12.997  0.3164  0.0317 -0.0819
16248W        W33095  13.403  12.554   1.884  0.2119 -0.1070 -0.1240
16249W        W33096  14.503  10.711   2.171  0.0193 -0.3412 -0.1320
16250W        W33097   8.556  19.114  10.819  0.1738  0.2566 -0.2233
16251W        W33098  18.415   2.918  10.186  0.1660 -0.1874 -0.2125
16252W        W33099   0.771   9.902   2.902 -0.1644  0.1662  0.0099
16253W        W33100  17.352  18.280  11.747 -0.1063  0.0848  0.0185
16254W        W33101  13.682  15.880  11.948 -0.1684  0.1919 -0.1512
16255W        W33102   0.426  19.051  13.492  0.1206 -0.2160  0.1033
16256W        W33103  13.181   1.080  11.953 -0.1542 -0.0700  0.0976
16257W        W33104  12.118  17.921   3.347  0.2681 -0.2747  0.1763
16258W        W33105   7.542  11.694   9.908  0.1903 -0.1055 -0.0615
16259W        W33106   5.799   1.319   1.855 -0.1196  0.2154 -0.1249
16260W        W33107   7.139   9.821  11.643 -0.0909  0.2103  0.1281
16261W        W33108  11.024   5.681   2.901 -0.0318  0.0766  0.0678
16262W        W33109  15.463  16.361   2.004  0.1153  0.1279  0.1517
16263W        W33110   1.025   1.006  13.803  0.0333  0.1092 -0.1407
16264W        W33111  14.372  15.586  11.448  0.1763  0.0329  0.1612
16265W        W33112  16.431  12.235  13.502  0.0827  0.2149 -0.1061
16266W        W33113  10.354   3.884   3.138 -0.0761  0.1037 -0.1739
16267W        W33114   1.043   7.936   4.251 -0.0088 -0.0079 -0.1698
16268W        W33115   8.707   3.487  11.590  0.2354 -0.0679  0.1570
16269W        W33116  10.323  11.191  12.186  0.0122  0.0710  0.2540
16270W        W33117  16.268  13.415   2.215 -0.2266  0.2077  0.3480
16271W        W33118  19.048   2.394   2.995  0.0783  0.2492 -0.1771
16272W        W33119  15.998   4.086  11.754 -0.3029 -0.2066  0.0264
16273W        W33120   0.129   0.817  11.991 -0.0482  0.1649  0.2615
16274W        W33121  12.700   8.939   3.987  0.0197  0.0500 -0.2145
16275W        W33122   6.011  16.447  11.792 -0.1573  0.0195  0.2710
16276W        W33123  18.198  10.167   2.373 -0.0144 -0.3412 -0.1612
16277W        W33124  14.852  13.709  12.801  0.0252  0.0935  0.0581
16278W        W33125   5.336   2.621  10.726  0.1420 -0.0319 -0.3093
16279W        W33126   9.564  10.359  10.745 -0.3054  0.0222 -0.0816
16280W        W33127   1.846  13.492   3.374 -0.0814 -0.0565 -0.0464
16281W        W33128   6.796  10.146  10.704  0.0881 -0.1427  0.2066
16282W        W33129   3.802   0.567   4.487 -0.0324  0.0261 -0.2522
16283W        W33130   8.666  19.670   3.700 -0.1078  0.1283  0.1074
16284W        W33131  18.758  14.210   2.993 -0.3153  0.1090  0.1287
16285W        W33132  10.668   9.854   2.371  0.0339  0.0282 -0.3365
16286W        W33133   5.371   3.295   1.755 -0.1102  0.0197  0.3077
16287W        W33134   5.871  12.570   3.219  0.0373 -0.3650 -0.1966
16288W        W33135  16.209   5.181   0.597 -0.1543  0.1531 -0.1606
16289W        W33136  18.804  10.971  12.334  0.0032  0.2198  0.2051
16290W        W33137   9.366  11.162  10.678  0.1892  0.3557  0.0118
16291W        W33138  16.144   7.853   3.706  0.1476  0.0335  0.2715
16292W        W33139   2.588  12.202  11.124  0.0682  0.1830 -0.0103
16293W        W33140   9.551   5.511  11.515  0.0675  0.4726  0.2787
16294W        W33141   4.775  13.582  11.015 -0.5403  0.2062  0.0478
16295W        W33142  12.688  19.659  13.400  0.3585 -0.1294 -0.2261
16296W        W33143   9.708  14.043   3.625 -0.2350  0.0119 -0.0849
16297W        W33144  18.013  17.829  10.652 -0.0737  0.2228 -0.0164
16298W        W33145  10.228  11.943   4.280 -0.1296 -0.2503 -0.0509
16299W        W33146  10.329   3.146  13.283  0.2047  0.1680  0.0769
16300W        W33147   2.048   3.937   4.338 -0.2977  0.1121  0.1648
16301W        W33148   3.626  19.659   8.958 -0.0836 -0.0149  0.2026
16302W        W33149   1.249   4.540   9.901  0.0171  0.1786 -0.1301
16303W        W33150  19.490   1.792  13.030  0.1291  0.0351  0.3201
16304W        W33151   3.310   7.596   9.412 -0.0485 -0.0597  0.1471
16305W        W33152  11.605  12.090   3.831  0.4008  0.4245 -0.0540
16306W        W33153   1.964  12.920   0.743 -0.1570 -0.3130 -0.0949
16307W        W33154   3.490   1.376  12.355 -0.5959 -0.3403  0.1842
16308W        W33155   6.382   8.384   0.314  0.0713 -0.0383  0.0052
16309W        W33156   6.824  11.798   0.554 -0.0489  0.0279 -0.2510
16310W        W33157  17.082  13.519   1.627  0.1960  0.1607 -0.0169
16311W        W33158  13.733   7.885  12.375 -0.1199  0.1801 -0.3647
16312W        W33159   3.783   1.079  13.753 -0.2889  0.0269 -0.0199
16313W        W33160   5.652   2.813   3.090 -0.0132 -0.4096  0.2387
16314W        W33161   8.898  10.098   3.832  0.1313 -0.2375  0.1188
16315W        W33162  16.279   3.941   1.207 -0.0787 -0.0059  0.1856
16316W        W33163  19.048   7.206   4.993  0.2670  0.0962 -0.4414
16317W        W33164   6.021   7.377   4.373  0.0807  0.0421  0.4368
16318W        W33165  19.793   3.620   1.110  0.0954  0.0271  0.2780
16319W        W33166  12.436   5.400  13.290 -0.2570  0.1606  0.2029
16320W        W33167   3.009  14.849  11.356 -0.1706 -0.0068 -0.0907
16321W        W33168  10.283   4.955   1.226 -0.0479 -0.0713 -0.1602
16322W        W33169   4.039  13.347  12.974 -0.1846 -0.4332  0.2485
16323W        W33170   2.756  16.775   2.554  0.0514 -0.3647  0.0306
16324W        W33171  18.223   7.521   1.076 -0.1010 -0.2344  0.0166
16325W        W33172  12.000   9.704   9.797  0.2639  0.1708 -0.0834
16326W        W33173  12.677   4.274  12.973  0.0020 -0.1190 -0.1685
16327W        W33174  12.027   4.409  12.443  0.0338  0.2325 -0.0398
16328W        W33175   3.952   7.488   1.102  0.1497 -0.1004 -0.0515
16329W        W33176  10.297  14.162   4.373  0.1588 -0.0193  0.0022
16330W        W33177  19.679  12.124   0.509 -0.1703  0.2465 -0.2160
16331W        W33178  19.862  19.335   1.517 -0.1149  0.0779  0.0410
16332W        W33179   0.239   5.700   3.949  0.1893  0.1134  0.1414
16333W        W33180  10.626   1.313  10.168  0.0291 -0.1138  0.2695
16334W        W33181  14.350   7.549   4.195 -0.0783 -0.0541 -0.4279
16335W        W33182  14.550  15.558   1.659  0.2041  0.0054 -0.2015
16336W        W33183   4.247   6.529   2.205  0.0038  0.0572 -0.2932
16337W        W33184   5.081  17.035  12.471  0.1166  0.1382  0.2002
16338W        W33185   0.545   1.309   2.246 -0.0484  0.0251 -0.0157
16339W        W33186  11.385  12.015  14.047 -0.0891 -0.0731 -0.1210
16340W        W33187   5.671   4.927  13.613 -0.3520 -0.2109 -0.5689
16341W        W33188   0.369  12.361   1.695 -0.1003 -0.2589  0.1733
16342W        W33189   5.092   5.977   0.032  0.2189 -0.1492 -0.0485
16343W        W33190  10.403  15.625   2.800 -0.2238 -0.1261 -0.0031
16344W        W33191  10.352  12.828  10.238  0.2138 -0.0702 -0.0904
16345W        W33192   9.177  19.688   4.141 -0.1134  0.3898  0.1046
16346W        W33193   7.873   8.071   0.651  0.1998 -0.0887  0.0126
16347W        W33194   5.832  18.366  11.695 -0.2358 -0.1756  0.1522
16348W        W33195  17.626   5.568   2.347  0.0564  0.2955 -0.1296
16349W        W33196  10.916  10.189   2.725  0.0122  0.0300 -0.1157
16350W        W33197   3.710  16.708   2.625  0.0098  0.5097 -0.1063
16351W        W33198   4.609  14.736  10.921  0.1761  0.0700 -0.0918
16352W        W33199  18.930  17.979  10.139  0.3199 -0.1503 -0.1357
16353W        W33200  19.251  14.644  11.673 -0.0222 -0.1132  0.1069
16354W        W33201   3.903  17.696   4.299 -0.4700 -0.0886 -0.1733
16355W        W33202  15.141   2.135   0.662  0.0697  0.0357 -0.2042
16356W        W33203  10.849  14.592  12.350  0.0845  0.3099  0.0981
16357W        W33204  12.677   8.713  11.590  0.0787  0.1052 -0.2521
16358W        W33205   9.360   7.118   3.805 -0.0421 -0.0521 -0.0697
16359W        W33206  12.185   5.708   0.519  0.1768  0.1915 -0.0343
16360W        W33207   6.188   9.902   4.674  0.0687 -0.1482  0.1837
16361W        W33208   0.904  10.764   2.254 -0.0519 -0.4670 -0.1092
16362W        W33209  16.795  14.658   2.277 -0.2371 -0.3211  0.1916
16363W        W33210  11.729  14.336  12.788  0.0038  0.0652  0.0009
16364W        W33211   3.239   4.644  13.196 -0.0386 -0.1742 -0.1506
16365W        W33212  13.343   1.096   0.300 -0.0672  0.0220  0.0987
16366W        W33213  19.623   5.220  13.184  0.2852  0.0158 -0.3897
16367W        W33214   4.552   0.103  10.992 -0.1281  0.1706 -0.0361
16368W        W33215   2.400   2.825  13.222  0.1721  0.0381 -0.1191
16369W        W33216   9.150   2.894   1.086  0.0060 -0.0224 -0.1871
16370W        W33217   0.174  15.014   0.809  0.2127 -0.0548  0.1697
16371W        W33218   4.524  13.869   2.244 -0.0478  0.0951  0.1342
16372W        W33219   7.720  13.692   9.318  0.0846  0.2221  0.0370
16373W        W33220   3.209  15.470  10.320 -0.0308 -0.1989  0.0669
16374W        W33221   3.106   1.303  13.315 -0.1308  0.1558 -0.0016
16375W        W33222  14.838  17.862   2.382  0.1193  0.1650 -0.1292
16376W        W33223   3.994  10.086  13.648  0.1984  0.1691  0.1232
16377W        W33224   2.026  11.480  12.231  0.1655 -0.0825  0.1654
16378W        W33225  10.333  18.387   0.658 -0.2097 -0.0215  0.1107
16379W        W33226  13.309   9.532   2.474  0.0189 -0.1975  0.0232
16380W        W33227   0.302   1.592   1.823 -0.0588 -0.1602  0.1399
16381W        W33228  13.241  16.038   1.275  0.0536 -0.0818  0.0837
16382W        W33229   1.712  17.148  12.861  0.1717  0.1687 -0.3240
16383W        W33230   9.911  19.043   0.316 -0.1062 -0.1612 -0.2428
16384W        W33231   5.446   9.568  10.716  0.4596  0.1433  0.1410
16385W        W33232  18.075   5.808   4.254  0.2898  0.0874 -0.0924
16386W        W33233   5.130  10.241  11.219 -0.2009  0.2577  0.4649
16387W        W33234   0.973   9.222   4.572  0.0416  0.0623 -0.0842
16388W        W33235   9.094  12.389   2.751  0.0958 -0.2148 -0.1811
16389W        W33236   0.719  10.882  12.817 -0.0335  0.1521  0.1637
16390W        W33237   1.811  13.914   9.716 -0.2500  0.0845  0.2161
16391W        W33238   4.595   3.458  10.339  0.1584  0.2584 -0.1880
16392W        W33239   1.205   4.187   2.991  0.0933  0.1058 -0.3243
16393W        W33240  13.176  18.988  13.487  0.1200 -0.1735  0.0595
16394W        W33241   4.627   4.322   2.625 -0.2529 -0.1006  0.0869
16395W        W33242  10.424   8.918  13.484  0.1313  0.1025 -0.2402
16396W        W33243   4.188   3.507   0.874 -0.2460 -0.5289  0.2934
16397W        W33244   0.328   9.495  13.071 -0.1850 -0.1384 -0.0661
16398W        W33245   4.826   1.559  11.181 -0.0438 -0.0012 -0.0627
16399W        W33246  15.265   6.974   2.000  0.0001  0.0793  0.2712
16400W        W33247   0.127   2.831  14.280 -0.1138  0.0727  0.1147
16401W        W33248   5.943  11.787  13.194 -0.1338 -0.0400  0.1896
16402W        W33249   2.412   0.456   1.808 -0.3983 -0.1314 -0.1331
16403W        W33250   3.862  18.824   3.178 -0.0829  0.0984  0.1137
16404W        W33251   4.480   2.901   0.875 -0.0689  0.3494  0.0370
16405W        W33252   4.993  12.795  11.051  0.0709 -0.0885 -0.0609
16406W        W33253   9.551   7.230   9.155 -0.2262  0.2090  0.1760
16407W        W33254   3.713   3.455  12.270 -0.0294  0.2475  0.0658
16408W        W33255  19.918  14.144   2.178 -0.0990  0.0865 -0.1766
16409W        W33256   0.505  14.152  11.135  0.0188  0.4042 -0.1363
16410W        W33257   5.811   3.458   4.837  0.1740  0.1254  0.1951
16411W        W33258   5.371   2.358   3.666  0.2157  0.1798 -0.0811
16412W        W33259  14.145  17.833   1.153 -0.2271 -0.2179  0.2668
16413W        W33260   0.737   7.963   4.637  0.3493 -0.2507  0.1642
16414W        W33261  14.203   5.054   5.228 -0.1720  0.2496  0.3822
16415W        W33262   5.229   1.431   4.715 -0.1671  0.0523  0.1163
16416W        W33263  10.099  15.851   4.928 -0.1726 -0.2680 -0.2781
16417W        W33264  18.317   8.305  13.836 -0.1341  0.2294 -0.2690
16418W        W33265  19.273   1.191  13.936 -0.3103  0.3006 -0.1104
16419W        W33266   5.653   6.191   4.336  0.1020 -0.2065  0.0575
16420W        W33267   4.952  13.827   3.179 -0.2375 -0.0406  0.1080
16421W        W33268  11.245  13.538  12.126  0.0262 -0.1988  0.0342
16422W        W33269   0.978   2.970  12.930 -0.2067  0.0705  0.0726
16423W        W33270   3.360  17.881  13.685  0.1493  0.1373  0.1634
16424W        W33271  18.532   4.759  12.190 -0.1013  0.0936 -0.1753
16425W        W33272  17.329   6.047  12.591 -0.1854  0.1981 -0.4013
16426W        W33273  12.610  14.330  14.006  0.1903  0.0729 -0.0300
16427W        W33274   2.061  13.740  11.727 -0.0127 -0.0992  0.0480
16428W        W33275   9.044  17.956   0.876  0.0992 -0.1084 -0.2390
16429W        W33276  12.878   6.246  11.196 -0.0683  0.0547  0.3195
16430W        W33277   9.057  11.365   2.403  0.1436 -0.1908 -0.2087
16431W        W33278  15.488  11.357  12.812  0.0939 -0.1754 -0.0435
16432W        W33279   7.947   1.607   3.601  0.4300  0.0488 -0.1389
16433W        W33280   2.262  16.643   0.382 -0.2711  0.2887 -0.1554
16434W        W33281   6.505  11.504  11.594 -0.0597 -0.3599  0.0248
16435W        W33282  17.790  10.164  12.447 -0.0899 -0.0077 -0.1820
16436W        W33283  17.736   2.201  12.655  0.1547  0.2944 -0.1423
16437W        W33284  17.009  13.145  13.362  0.1622  0.0616 -0.0804
16438W        W33285  14.380  16.545  10.169  0.0376 -0.1463  0.1983
16439W        W33286   6.071  19.550   1.316  0.1492  0.0406 -0.1066
16440W        W33287   6.287  10.812  12.352 -0.1754 -0.0556 -0.1896
16441W        W33288  10.199  18.816  10.662  0.0616 -0.1946  0.1046
16442W        W33289   3.603   8.642  10.095  0.3095 -0.2897 -0.0626
16443W        W33290   7.152   4.036  10.563 -0.0453  0.1998  0.3260
16444W        W33291  15.542   9.638   2.567 -0.3515  0.1114 -0.0630
16445W        W33292  11.338  10.561  11.737 -0.2511  0.3115  0.1321
16446W        W33293  19.815  19.685   9.760  0.0317  0.3139  0.1901
16447W        W33294  11.370   4.016  14.079  0.0461  0.1776 -0.0773
16448W        W33295   1.220   5.492   9.527 -0.0424 -0.1312 -0.1028
16449W        W33296   8.201   9.230  10.363  0.2057 -0.1497  0.1991
16450W        W33297  19.419  12.436   4.050 -0.1516  0.3390  0.0506
16451W        W33298  14.965   5.512  13.201 -0.1553 -0.1101  0.0329
16452W        W33299  18.177  12.620  12.426  0.2459  0.4797 -0.1403
16453W        W33300   5.469  18.799  14.018 -0.2115 -0.1254 -0.1938
16454W        W33301   3.714  15.303   1.397 -0.2563  0.0476  0.1641
16455W        W33302   8.756   0.247   4.759  0.0383 -0.1644 -0.1233
16456W        W33303   2.565   4.605   4.433  0.4796  0.2442 -0.1774
16457W        W33304   0.638   4.419   2.166 -0.0846 -0.0997  0.1822
16458W        W33305  13.679  12.710   2.388 -0.0531  0.0317 -0.0138
16459W        W33306   6.072  19.772  10.942  0.3839 -0.1109  0.2037
16460W        W33307   7.111  18.523  13.101 -0.1223  0.0318 -0.3442
16461W        W33308   2.987  14.735   0.412 -0.3358 -0.0945 -0.0618
16462W        W33309  11.028   5.205   3.304 -0.0194  0.0545 -0.1035
16463W        W33310   3.437  12.684  11.512  0.1562  0.2342 -0.1118
16464W        W33311   3.879   2.186  11.954  0.1130  0.0515  0.2991
16465W        W33312   3.564  19.082  11.466  0.1125 -0.2180 -0.1208
16466W        W33313  11.995  15.773  13.612 -0.1245  0.0888  0.0067
16467W        W33314  13.576  16.086  11.275 -0.2981  0.1200 -0.2567
16468W        W33315  17.555   2.461   1.906  0.1010 -0.0059 -0.1595
16469W        W33316  10.577  11.080  10.181  0.1017  0.0588 -0.0064
16470W        W33317   6.636   2.318   0.569 -0.0063 -0.0239  0.1586
16471W        W33318   5.922   6.881   2.670 -0.1689 -0.0262 -0.2077
16472W        W33319  12.376   2.075  13.229 -0.1404 -0.0489  0.0267
16473W        W33320  12.258   0.750  12.611  0.2691  0.1078  0.0374
16474W        W33321  17.005  15.653  10.388 -0.0254  0.1481 -0.1834
16475W        W33322   1.373  14.895   9.979  0.0755 -0.1964 -0.0312
16476W        W33323  18.188   9.449  13.550  0.1181  0.0274 -0.2777
16477W        W33324  13.319  16.625  13.354  0.3088 -0.1383 -0.0291
16478W        W33325   7.423   0.089   5.304  0.2639 -0.0174  0.2299
16479W        W33326  13.529  11.035   2.697 -0.0836 -0.1984 -0.0591
16480W        W33327  12.310   8.033   0.182 -0.1565  0.2081  0.3436
16481W        W33328  14.371   7.176   1.874 -0.0831 -0.4509 -0.2406
16482W        W33329  11.286  15.670   0.154 -0.1327 -0.0869 -0.0724
16483W        W33330  14.508   8.058  11.736 -0.0389 -0.3545  0.4306
16484W        W33331   1.365   4.987   9.256 -0.2565 -0.0340 -0.1620
16485W        W33332   2.964   6.586  11.594  0.0639 -0.0943 -0.1244
16486W        W33333  11.351  15.591   1.042  0.1310  0.3800 -0.2637
16487W        W33334  14.260   3.518   4.176 -0.0223  0.4423 -0.3147
16488W        W33335  10.370   0.026  11.962 -0.1389  0.1714  0.3710
16489W        W33336  17.488   7.159   2.570 -0.0457 -0.0106 -0.0093
16490W        W33337   1.111  15.171   3.679  0.0368 -0.0268 -0.1298
16491W        W33338  14.901  13.561  12.298 -0.1794 -0.0275  0.0864
16492W        W33339  18.833  12.999  10.308  0.2389 -0.0132 -0.4041
16493W        W33340   7.350  18.976  13.189 -0.1920  0.2528  0.0576
16494W        W33341   5.502  13.106   3.306 -0.2542 -0.1174  0.0122
16495W        W33342   9.938   2.968   3.676 -0.1491  0.0259 -0.0522
16496W        W33343  13.390   6.524  10.224  0.0982  0.0278  0.1289
16497W        W33344  18.547   3.023   1.581  0.1975  0.3053  0.3422
16498W        W33345   9.067   9.054  10.501  0.5851 -0.0269 -0.0514
16499W        W33346   8.461  18.187  14.224  0.0152  0.0782 -0.2646
16500W        W33347  14.268  16.097   0.779  0.0948 -0.0703  0.1549
16501W        W33348   1.671  10.429   3.772  0.0310  0.1324 -0.0570
16502W        W33349   2.637  12.515  13.770  0.0948 -0.1370 -0.4767
16503W        W33350  10.003  15.886   0.689 -0.2098  0.0562 -0.3372
16504W        W33351  10.783   6.718   2.387 -0.1049 -0.3424 -0.3606
16505W        W33352   8.233   7.905   1.926  0.0146  0.1260 -0.1337
16506W        W33353   3.915  15.810   3.592 -0.1184 -0.1298 -0.5276
16507W        W33354   4.928  15.092   0.637  0.0629 -0.1668 -0.0268
16508W        W33355  14.604  10.930   0.966 -0.2547 -0.3209 -0.0162
16509W        W33356  11.139   7.703   0.473 -0.0315  0.3478 -0.1229
16510W        W33357  12.208  12.091   1.680 -0.1243  0.1538 -0.2843
16511W        W33358   3.664   6.731   0.526  0.1835 -0.0554 -0.1140
16512W        W33359  16.779   3.785   8.891  0.1548  0.3316 -0.0900
16513W        W33360   3.998  11.794  11.514  0.1777  0.0929  0.0704
16514W        W33361   8.549  15.659  11.148  0.1952 -0.0112 -0.2895
16515W        W33362  11.261   8.783   2.845  0.2242  0.2009  0.0094
16516W        W33363   6.675  15.732   0.817  0.2561 -0.0433 -0.2619
16517W        W33364   2.315   4.167  12.402  0.1272  0.1589  0.1386
16518W        W33365   9.432   0.369  11.142 -0.0410  0.0857  0.0062
16519W        W33366  14.810  16.619  11.039 -0.3300 -0.0076  0.0082
16520W        W33367   3.507  11.718  10.223 -0.1250 -0.1234 -0.3732
16521W        W33368  10.694   4.075  11.565  0.0809 -0.0835 -0.0988
16522W        W33369   3.079  11.892   3.575  0.0003  0.2159 -0.0067
16523W        W33370   4.228   0.267  10.666 -0.2371 -0.1781  0.2780
16524W        W33371  18.647   0.829   5.655  0.1158  0.1170 -0.1117
16525W        W33372   6.920   4.175   3.533  0.1654  0.1144  0.0209
16526W        W33373  12.445  15.737   4.080 -0.0471  0.0534 -0.2782
16527W        W33374  16.213  12.403   4.174 -0.0658  0.2769  0.2132
16528W        W33375   4.435   2.636   0.445  0.2245  0.1455  0.0885
16529W        W33376   0.096  11.887   1.576  0.0772  0.2175 -0.1828
16530W        W33377  15.034   9.925   3.805 -0.0023 -0.1101  0.3104
16531W        W33378   1.538   0.443   1.320  0.1646 -0.0107 -0.1817
16532W        W33379   5.500   0.093   9.967 -0.1391 -0.1309 -0.4841
16533W        W33380   0.652  12.052  10.546  0.0766 -0.0458  0.0534
16534W        W33381  14.617   7.857   5.106 -0.1282  0.0554  0.3039
16535W        W33382   0.941  16.757   1.221  0.1121  0.0916 -0.0244
16536W        W33383  17.797  11.369  12.234  0.1819 -0.0771 -0.0098
16537W        W33384  15.545   3.600  11.119 -0.0273  0.1085  0.1423
16538W        W33385  11.436   9.755  11.086 -0.0954 -0.3107 -0.1068
16539W        W33386   2.141  18.817  11.759  0.3242  0.1399 -0.1763
16540W        W33387   1.650   5.410  13.984  0.1117  0.0258 -0.1270
16541W        W33388  10.762   7.692   9.462  0.0654 -0.2178  0.1318
16542W        W33389  13.590  17.763   0.551  0.0692 -0.2313  0.0791
16543W        W33390   2.160  18.287   0.342  0.1295 -0.0234  0.1353
16544W        W33391  15.715  17.604  13.458  0.0292  0.1108 -0.3051
16545W        W33392  15.049  17.142   4.858  0.1778  0.1252  0.1542
16546W        W33393   2.849  18.313  11.027 -0.0116  0.4108  0.1090
16547W        W33394  16.354  13.937  10.643 -0.1505 -0.1898 -0.2282
16548W        W33395  11.683  17.082  12.400  0.0830  0.1362  0.3921
16549W        W33396  12.267  16.975   1.424 -0.2252 -0.3808 -0.1419
16550W        W33397   0.992  19.296  12.589  0.0353 -0.2824 -0.0002
16551W        W33398   1.903  17.027   3.080  0.2338  0.1324 -0.2570
16552W        W33399  13.457  14.200  10.296 -0.0331  0.1736  0.1907
16553W        W33400  18.646   1.341   3.920  0.0790 -0.0644 -0.1047
16554W        W33401   9.343   8.029  11.888 -0.0965  0.1498 -0.0567
16555W        W33402   4.558  13.394   2.410 -0.1351  0.1987  0.2322
16556W        W33403   6.285  15.233  11.269  0.1652 -0.1873 -0.1752
16557W        W33404   4.802   9.576   0.588  0.0504  0.0621 -0.1614
16558W        W33405   4.923   9.234   2.032 -0.0421  0.0313  0.0424
16559W        W33406   7.192   4.980   2.275 -0.1466 -0.1705 -0.0916
16560W        W33407  17.573  18.319  12.761 -0.2067 -0.2794 -0.0271
16561W        W33408   6.162  14.214   2.450  0.1327  0.0608  0.0442
16562W        W33409  13.032   2.525   0.679  0.2480  0.0211  0.0396
16563W        W33410  14.256   5.239   4.233 -0.1112  0.1932  0.0896
16564W        W33411  19.892  13.804   3.444 -0.1581 -0.0916 -0.1344
16565W        W33412  18.375   3.054   4.500 -0.0156 -0.1107 -0.2254
16566W        W33413   7.402  11.311   3.817 -0.2575 -0.0108  0.4569
16567W        W33414   5.732  14.092  11.390  0.0120 -0.0848 -0.1588
16568W        W33415   9.569  12.359   0.030  0.2210 -0.0301 -0.0459
16569W        W33416   1.245  10.864   0.363 -0.2800  0.1317  0.0795
16570W        W33417  11.545  11.465   3.217 -0.0231 -0.0684  0.0411
16571W        W33418  15.166  10.091  14.294  0.0424 -0.4588 -0.2954
16572W        W33419   9.874  14.745  10.096 -0.0867  0.2569  0.1870
16573W        W33420   2.063  16.807   2.097  0.2979 -0.0749  0.0335
16574W        W33421  19.154   0.298   2.294 -0.0343 -0.0279 -0.0607
16575W        W33422  17.126   8.384   0.734  0.2647  0.0484  0.2401
16576W        W33423  10.992   1.808   0.479 -0.0182  0.1639  0.0361
16577W        W33424   1.725   2.046   3.044  0.1379 -0.2785  0.3510
16578W        W33425  10.767  14.144   3.041  0.0194 -0.0242 -0.1458
16579W        W33426  17.557  12.762   0.031 -0.1209  0.2382 -0.0321
16580W        W33427  11.246  19.444   9.165  0.0153  0.0752  0.0258
16581W        W33428  16.337   9.848  11.851  0.2341  0.1481  0.1261
16582W        W33429   2.046   4.964   2.547  0.2170  0.0481  0.2550
16583W        W33430   8.684   3.325  14.269  0.1782  0.1511  0.0969
16584W        W33431  18.892   0.213   3.001 -0.0485  0.1305 -0.0225
16585W        W33432   5.637   7.830   2.675 -0.3612  0.2097 -0.1298
16586W        W33433  14.286  14.768  10.678 -0.3096 -0.2461  0.0104
16587W        W33434   1.522  18.103   3.619  0.3307  0.2507 -0.1076
16588W        W33435  18.588   3.398  12.616 -0.2646 -0.0562 -0.4743
16589W        W33436   3.997  17.839   2.075 -0.0939 -0.2975  0.0326
16590W        W33437  18.154  19.277   1.140  0.0050  0.3667  0.0628
16591W        W33438   9.599  11.196   4.352  0.0745 -0.0263  0.1595
16592W        W33439   7.125   5.372  13.788 -0.1310 -0.0329  0.0678
16593W        W33440  16.551  14.348   1.415 -0.1514  0.4846 -0.0531
16594W        W33441  17.728  17.496  11.509 -0.2917 -0.1492 -0.1309
16595W        W33442  13.447  16.017   4.419 -0.3534  0.0337  0.0993
16596W        W33443  19.296  19.851  10.400 -0.0813 -0.1377 -0.1575
16597W        W33444  11.998  12.930   1.083 -0.0458 -0.1823  0.2218
16598W        W33445   1.635  10.521  10.450 -0.5178 -0.1213  0.3702
16599W        W33446   8.510   4.615  12.570 -0.2573 -0.4077 -0.1127
16600W        W33447   5.487   1.855  10.267 -0.0438  0.2416 -0.0259
16601W        W33448   1.750  12.998   3.381  0.1777  0.3006  0.0722
16602W        W33449  13.146   2.655   5.646  0.0263 -0.2952  0.4185
16603W        W33450   8.442   4.726   9.657  0.1280  0.2251 -0.0083
16604W        W33451   1.487  15.545   0.611 -0.0437  0.0854  0.1107
16605W        W33452  19.480   4.543   4.597  0.0699 -0.1406 -0.0985
16606W        W33453  16.906   6.003  12.265 -0.1287  0.2135  0.4833
16607W        W33454  13.838   0.970  12.619 -0.1903  0.3840 -0.0880
16608W        W33455  19.370   8.775   4.298 -0.1144  0.1169 -0.1522
16609W        W33456  16.915   4.807   2.401  0.2352  0.1160 -0.2785
16610W        W33457   5.878   6.728   1.749 -0.0695  0.1468  0.0051
16611W        W33458   7.988   3.529   3.784 -0.3210 -0.2451  0.1012
16612W        W33459   0.227  19.909   3.934  0.4020  0.1544 -0.0984
16613W        W33460   1.562  17.687  10.729 -0.0897  0.3057 -0.0111
16614W        W33461   0.199   2.587   1.341  0.1445 -0.0771  0.0165
16615W        W33462  16.907  19.566  11.758  0.2397  0.0151  0.1140
16616W        W33463   0.104  13.897  12.598 -0.0255 -0.2373 -0.1804
16617W        W33464   8.921  14.834   9.941  0.7197  0.1017  0.1580
16618W        W33465  15.655  15.590   3.535 -0.1158 -0.1698 -0.1399
16619W        W33466   4.759   2.478  10.164 -0.4204  0.1301  0.1077
16620W        W33467  17.361  15.887  14.143  0.0433  0.2978 -0.1685
16621W        W33468   8.720  15.345   2.585 -0.0488 -0.0897  0.0051
16622W        W33469   9.661  17.560  14.304 -0.1408  0.1432  0.0144
16623W        W33470  11.244   9.177   4.376  0.1865 -0.0531 -0.0315
16624W        W33471  17.615  12.593   1.831  0.0404  0.1866  0.0733
16625W        W33472   5.369   8.556  10.299  0.2712 -0.0579 -0.2600
16626W        W33473  12.565   6.480   0.970  0.0620  0.4759 -0.0747
16627W        W33474  14.138  12.633  10.741 -0.0597  0.0681  0.1110
16628W        W33475  11.400   4.824   0.321  0.1834 -0.2258 -0.1448
16629W        W33476   8.323  12.395   1.282 -0.2900 -0.0347  0.0868
16630W        W33477   9.986   6.896   1.735 -0.5372  0.0371 -0.2050
16631W        W33478   8.215   4.275   9.621  0.0329 -0.2164 -0.1038
16632W        W33479  15.109   0.162   3.219  0.2238  0.2618 -0.2957
16633W        W33480   8.951   6.580   0.657 -0.1012 -0.0987 -0.1197
16634W        W33481  16.571  13.994   1.028  0.3747  0.0703 -0.0790
16635W        W33482   1.809  12.439   0.861 -0.2680  0.0111 -0.2561
16636W        W33483   7.553  17.996  12.177 -0.0217 -0.1793  0.1978
16637W        W33484  17.397  18.275   0.405 -0.1445  0.3786  0.1022
16638W        W33485   0.312   7.473   3.252  0.2331  0.3766 -0.1066
16639W        W33486  18.971  16.390   0.893 -0.1930  0.2921  0.1430
16640W        W33487   0.111   7.777   2.007 -0.2932  0.0791  0.0190
16641W        W33488   8.074  18.383  13.046  0.1171  0.1087  0.4114
16642W        W33489   5.491   6.628   4.238  0.0771  0.0627 -0.0794
16643W        W33490  15.679  11.871   0.772  0.1698  0.0356  0.1514
16644W        W33491   4.864  10.063   5.164 -0.1814 -0.1930  0.0491
16645W        W33492  14.069  15.570  11.877 -0.4010  0.0082  0.1605
16646W        W33493  16.777  13.222   3.835  0.2353 -0.1058 -0.1775
16647W        W33494   8.614  17.466  10.247  0.2392 -0.1801  0.0205
16648W        W33495   2.603   6.819   4.427  0.0414  0.4416 -0.1498
16649W        W33496   0.002  12.472   3.899  0.3355 -0.0078  0.2558
16650W        W33497   4.946   8.060  12.995 -0.0365 -0.0219 -0.0010
16651W        W33498  18.312  18.811  13.109  0.1523  0.1740 -0.1433
16652W        W33499   7.087  16.857   2.794 -0.0165  0.2122  0.2751
16653W        W33500  14.657  17.458   4.821 -0.1289  0.0027  0.0804
16654W        W33501   0.437  12.649  10.089 -0.1113  0.0829  0.1420
16655W        W33502  15.428  12.704  12.504 -0.1425  0.1051  0.0915
16656W        W33503  10.585  15.565  13.321 -0.2632  0.0535 -0.0227
16657W        W33504  13.840   5.389  10.586 -0.5505 -0.2627 -0.3137
16658W        W33505   7.945   4.134   0.774  0.1851 -0.1355 -0.1724
16659W        W33506   0.872  15.494  13.123  0.0586  0.0796  0.2637
16660W        W33507  12.079  15.703   2.367  0.1278 -0.1482  0.0191
16661W        W33508   5.677   2.987  11.069  0.0287 -0.0346  0.1243
16662W        W33509   9.218   4.382   0.491  0.0902 -0.0089  0.0733
16663W        W33510   6.031  15.088  13.121 -0.1915 -0.2715  0.3611
16664W        W33511  13.884  11.330  13.768 -0.1185  0.0282  0.1164
16665W        W33512   8.173   6.177   3.581  0.0690  0.0175 -0.0427
16666W        W33513  10.676   5.499  13.109 -0.1269 -0.3072  0.2911
16667W        W33514   7.449  16.481  10.404  0.3026  0.0680  0.3431
16668W        W33515   6.074  18.602   0.165 -0.2009  0.1623 -0.3789
16669W        W33516  10.150  15.479   2.415 -0.0349  0.1002 -0.1528
16670W        W33517  14.893  15.844  10.297  0.2050  0.0374  0.3007
16671W        W33518   3.070  10.340  10.868 -0.0390  0.0641 -0.0494
16672W        W33519   3.922  16.069   2.073 -0.0675  0.0370 -0.0265
16673W        W33520   9.102   2.716  10.952  0.0273  0.1503  0.4983
16674W        W33521   5.792   9.071   3.208 -0.0339 -0.1896 -0.2365
16675W        W33522   8.236  12.798   2.993 -0.0065 -0.0200  0.1048
16676W        W33523   1.468   6.389   1.379  0.0136 -0.0387  0.0091
16677W        W33524   5.891  15.385   0.456 -0.1624 -0.2372  0.0705
16678W        W33525  17.156  10.620  11.546  0.0440 -0.3787 -0.1609
16679W        W33526   7.450  13.194   2.415  0.1230  0.0962  0.2840
16680W        W33527  13.485   7.594   2.446 -0.0784  0.1354  0.2834
16681W        W33528  18.536   6.060   4.829 -0.0516 -0.0461 -0.1389
16682W        W33529  15.579   6.706   0.591 -0.2630 -0.0124  0.1054
16683W        W33530   2.891   2.344   3.167 -0.1636  0.1553  0.0427
16684W        W33531   8.957  18.342   1.252 -0.0049  0.1989 -0.1421
16685W        W33532   0.780  16.613   0.168  0.4337 -0.2006 -0.1154
16686W        W33533   8.929   3.346   1.738  0.1585  0.2556  0.1515
16687W        W33534  13.769   4.158   0.896 -0.1015  0.1438 -0.0151
16688W        W33535   3.166   1.684  10.474  0.1365  0.1071  0.0273
16689W        W33536  12.876  18.293   0.097  0.1169  0.0801 -0.0308
16690W        W33537  18.719  11.394   9.696 -0.1309 -0.0807  0.0381
16691W        W33538   9.730  14.990   8.876 -0.1256  0.2308 -0.0379
16692W        W33539  18.248   1.205  13.458  0.0185 -0.3083  0.0070
16693W        W33540  17.762   4.476   2.492  0.0698 -0.1252  0.2780
16694W        W33541   5.617   0.346   0.859  0.1223  0.2111  0.0173
16695W        W33542  15.691   6.254  12.124 -0.1586 -0.1961 -0.0255
16696W        W33543   4.883   3.899   2.366  0.1079 -0.0968  0.1620
16697W        W33544  12.220  12.828   0.571  0.3296 -0.0949  0.2000
16698W        W33545   3.754  11.992   2.896 -0.0464 -0.1606 -0.1905
16699W        W33546   2.260  10.823   4.190  0.4205  0.4495  0.4075
16700W        W33547   9.084   0.397  12.560 -0.1755  0.0310 -0.0201
16701W        W33548  10.437  18.208  10.459 -0.2108 -0.0036  0.1398
16702W        W33549   6.865  18.715   9.896  0.1078 -0.2045 -0.0276
16703W        W33550   6.046  14.461  11.245  0.2340  0.2014  0.2675
16704W        W33551   6.417   9.554   2.430 -0.1041 -0.0154 -0.2057
16705W        W33552   6.407  16.145   2.979 -0.1288 -0.1864  0.1801
16706W        W33553   3.944  11.890  10.006  0.1722 -0.4040  0.3195
16707W        W33554  15.602  18.852   0.726  0.0069  0.1670  0.0938
16708W        W33555   0.197   1.157  12.614  0.0305 -0.0608 -0.3410
16709W        W33556  15.474  14.282  12.225 -0.5849  0.2757  0.0830
16710W        W33557  10.694   1.447  13.081  0.3366  0.0464  0.0321
16711W        W33558   9.738  17.373  11.602 -0.2742  0.1334  0.0954
16712W        W33559  13.477   2.256  12.862  0.1102 -0.0360  0.1353
16713W        W33560   3.889  14.368   0.351 -0.3746  0.4005 -0.1814
16714W        W33561   5.127  17.104  13.894 -0.0598 -0.0889 -0.4093
16715W        W33562   6.336  12.347   9.928  0.1342 -0.0629 -0.3212
16716W        W33563  16.514  11.135  13.909 -0.0923 -0.0664  0.1609
16717W        W33564  16.728   3.597   1.838  0.5381 -0.0921  0.1692
16718W        W33565   5.753  14.969   0.650  0.2268  0.0367 -0.0899
16719W        W33566   7.480  17.786   2.552 -0.1384  0.1796 -0.1678
16720W        W33567  19.219  14.195   9.030  0.3767 -0.2458  0.1446
16721W        W33568   7.313  18.721   2.201  0.1590 -0.1855  0.0748
16722W        W33569  11.519  16.697   0.768  0.0552 -0.0594  0.0768
16723W        W33570  12.769  14.245   9.622  0.2720  0.1571  0.1651
16724W        W33571   0.995  15.999   0.115 -0.1577 -0.0287  0.1709
16725W        W33572  18.026   7.566  10.160 -0.1481  0.0866  0.2164
16726W        W33573   1.533  18.898   1.245  0.1219 -0.7976  0.1260
16727W        W33574  19.214  15.213  13.468 -0.0318 -0.2589 -0.0095
16728W        W33575  14.656  17.185   0.148 -0.2457  0.0451  0.1492
16729W        W33576  10.463   0.984  13.944  0.0581 -0.0645  0.1092
16730W        W33577   4.187  13.858  13.728 -0.4802 -0.3075 -0.2358
16731W        W33578  10.205  15.013  11.682 -0.0476  0.1593 -0.0320
16732W        W33579  15.214   1.683   0.284 -0.0790  0.1481 -0.2531
16733W        W33580   4.259  13.376   1.982  0.2553  0.2197 -0.5373
16734W        W33581   0.736   5.651   3.647  0.0355 -0.0788 -0.0214
16735W        W33582  19.101   1.252  13.383  0.0204 -0.0820 -0.2371
16736W        W33583  17.581   3.097  13.378 -0.0776  0.0731 -0.0045
16737W        W33584   6.401  14.847   0.769  0.2200  0.2967  0.2598
16738W        W33585   1.575  13.758  13.236  0.1169  0.0878 -0.1091
16739W        W33586  17.052   2.291  13.980  0.0527 -0.1472  0.2364
16740W        W33587  13.429  12.124   9.770  0.1474  0.1800  0.2400
16741W        W33588  10.278   9.747   1.943 -0.1413 -0.4091 -0.0754
16742W        W33589  18.940  18.954   1.441 -0.2394  0.4810  0.0761
16743W        W33590  17.248  18.224  14.211  0.2310 -0.1381 -0.1465
16744W        W33591  14.367   0.985   2.831 -0.0216  0.1761  0.0982
16745W        W33592   3.863  10.349  11.886  0.1635 -0.3326  0.1536
16746W        W33593   8.498   0.469   2.515 -0.1154  0.1409 -0.0443
16747W        W33594  12.941  19.587   3.488  0.0517  0.0903 -0.1425
16748W        W33595   5.131  15.306   1.107 -0.0701 -0.0491  0.0435
16749W        W33596  11.327   3.883  11.017 -0.1414 -0.0544  0.0452
16750W        W33597  19.684  13.908   1.812 -0.2137  0.3255 -0.2310
16751W        W33598   4.768   3.689   2.782 -0.2075 -0.0295 -0.1838
16752W        W33599  12.258  17.176   0.168 -0.2705 -0.1394  0.0132
16753W        W33600   6.026   1.069  11.625 -0.4080 -0.2835  0.0356
16754W        W33601   4.065   4.240  10.558  0.1948  0.1281 -0.1591
16755W        W33602   7.164  18.982   8.446 -0.0054 -0.1699 -0.2016
16756W        W33603   3.480  13.381  11.596  0.0687  0.1081  0.4701
16757W        W33604  14.524   3.361   0.763 -0.0926 -0.4002  0.0123
16758W        W33605  13.490   4.118  14.180  0.0583 -0.1932  0.1772
16759W        W33606   8.566  10.149  12.787  0.5009  0.1720  0.0430
16760W        W33607  12.369  13.134   2.767 -0.1654 -0.0672  0.0541
16761W        W33608  17.707   8.556   2.545 -0.0260  0.4268 -0.0594
16762W        W33609  18.034  16.684   3.073  0.0723  0.1791 -0.1008
16763W        W33610  17.580   6.149   3.894 -0.1185 -0.0452 -0.0429
16764W        W33611   6.706  17.254  13.488 -0.1403 -0.0336 -0.1192
16765W        W33612  14.749  18.576   4.047 -0.1989 -0.2725  0.0291
16766W        W33613   3.256   8.794   1.457  0.3373 -0.3518  0.0199
16767W        W33614   8.272   3.809  10.974 -0.1979  0.1505 -0.1935
16768W        W33615   7.792   1.790   5.075 -0.0940 -0.1381 -0.0597
16769W        W33616   9.214  11.271  13.986  0.0263 -0.0019  0.3809
16770W        W33617   8.444  11.594  11.538 -0.1140 -0.0189 -0.3016
16771W        W33618  11.642  14.762   1.179 -0.2256  0.0343  0.2605
16772W        W33619   6.633   8.829   1.349 -0.1189  0.2788 -0.3645
16773W        W33620   5.729   5.880   1.847  0.1434  0.1702 -0.0490
16774W        W33621   6.510   7.328  13.762  0.1814  0.0699  0.1168
16775W        W33622   8.893   4.424  10.423  0.1240 -0.0961  0.1495
16776W        W33623  12.882  17.419  13.636 -0.1007  0.1773  0.0996
16777W        W33624   3.384  10.033   0.163 -0.1998  0.1658 -0.0354
16778W        W33625  18.504  18.030  13.741 -0.1224 -0.1147 -0.1077
16779W        W33626   4.065   3.525  11.224 -0.0954  0.1459  0.0776
16780W        W33627   1.906  10.004   3.050 -0.2436 -0.2032  0.3658
16781W        W33628  11.588  13.858   2.821  0.2404 -0.0709 -0.0927
16782W        W33629   6.749  18.874   3.241  0.1479 -0.2430  0.0872
16783W        W33630   8.385   8.808  13.598  0.4087  0.1344  0.3016
16784W        W33631   7.146  11.516   5.681  0.1024 -0.2363  0.3402
16785W        W33632   0.581  10.911  14.186  0.2060 -0.0145  0.0611
16786W        W33633  18.226   7.471  11.015 -0.3319 -0.1255 -0.2897
16787W        W33634   4.300   0.860  11.562 -0.0094  0.2367  0.1653
16788W        W33635  18.081   9.691  10.459  0.0669 -0.3270  0.2329
16789W        W33636  12.641  15.222   0.945  0.2852 -0.3560  0.1294
16790W        W33637  15.710  12.045   4.444 -0.2396  0.0949 -0.1629
16791W        W33638  17.689   1.130  10.650  0.0464  0.1056  0.2096
16792W        W33639  19.367   4.522  11.068 -0.0882 -0.1216 -0.1312
16793W        W33640   8.250   7.200   3.976  0.2671  0.0994 -0.1746
16794W        W33641   6.783  16.787   4.024  0.2815  0.2203  0.0152
16795W        W33642  14.605   1.888   2.922  0.1757 -0.1946  0.0162
16796W        W33643   9.033   9.488   4.172  0.0363  0.0295 -0.0585
16797W        W33644  16.644  14.959   1.273  0.0639 -0.1350 -0.0001
16798W        W33645  11.389  17.998  12.635  0.0354  0.5697  0.5777
16799W        W33646  14.363   9.395   2.015  0.3627  0.0986 -0.0181
16800W        W33647  12.345   9.834   4.268  0.1632  0.0971 -0.0156
16801W        W33648   1.165  12.992   2.565  0.3996  0.0675  0.0129
16802W        W33649  12.109   5.689   1.002 -0.0223 -0.1971  0.0107
16803W        W33650   3.022   8.527   4.720 -0.0872 -0.1565 -0.2497
16804W        W33651   1.436  18.765  14.149 -0.4084 -0.2265 -0.2799
16805W        W33652   2.267   5.410   3.062  0.1840  0.1834 -0.0905
16806W        W33653   2.692  13.153  12.558  0.0839 -0.0980 -0.0850
16807W        W33654  17.985  13.627  12.488 -0.1747  0.3003  0.0305
16808W        W33655   8.028   7.111   4.390  0.3287 -0.0726 -0.0397
16809W        W33656   1.391  18.879   0.708  0.2983  0.0571 -0.1992
16810W        W33657  18.437  14.074   3.302 -0.0217  0.1002 -0.0382
16811W        W33658   8.289   3.317   2.842  0.0868 -0.0252  0.1417
16812W        W33659  17.529  16.091   3.171 -0.0241  0.2889 -0.1883
16813W        W33660  11.987  14.750   4.096 -0.4082 -0.1569  0.1190
16814W        W33661  19.218   3.791  12.030  0.1698  0.3913  0.4693
16815W        W33662   4.771   5.056   1.461  0.0332 -0.0836 -0.0966
16816W        W33663  17.078  13.790  12.437  0.2189 -0.2278  0.1132
16817W        W33664  12.111   3.350  13.366  0.0465 -0.0106  0.0720
16818W        W33665   8.059  16.332  11.391 -0.1551 -0.0314 -0.2331
16819W        W33666  17.005   5.754  11.903  0.1493  0.0095  0.2277
16820W        W33667   8.851  16.194   2.757  0.1317  0.0203  0.0314
16821W        W33668   6.278  10.714   2.610  0.1068 -0.2594  0.3013
16822W        W33669   4.368  10.006   2.229 -0.0541 -0.1420 -0.2669
16823W        W33670   4.533  12.257  12.599  0.0758 -0.0999  0.6351
16824W        W33671  18.093   5.745   1.527  0.2865  0.0818  0.0718
16825W        W33672   8.772  12.807  11.289  0.0131  0.1647  0.1308
16826W        W33673  13.490   4.310   5.105  0.0677  0.0151 -0.3226
16827W        W33674   6.552  17.779  12.161 -0.0677 -0.1288  0.1097
16828W        W33675  14.933  16.462  10.127  0.0365  0.1811 -0.0703
16829W        W33676   0.425  12.550   2.122 -0.1830 -0.2135 -0.0833
16830W        W33677   1.963   2.697  10.783  0.0246  0.4623  0.0242
16831W        W33678  19.619  13.104  12.362  0.2332  0.0611 -0.2602
16832W        W33679  17.056   9.478   5.137  0.2162 -0.2460 -0.1128
16833W        W33680   8.783  17.176  11.704 -0.2672 -0.2398  0.0382
16834W        W33681  14.007   2.257  11.796  0.3683  0.2508  0.1345
16835W        W33682  17.739   9.419  10.863 -0.3348 -0.2548  0.4445
16836W        W33683   4.997  14.869  10.287  0.1345  0.1509  0.0482
16837W        W33684  14.396   3.916  12.434 -0.1870 -0.1088 -0.3190
16838W        W33685   7.599   0.732   3.520 -0.1263 -0.0660  0.1776
16839W        W33686  19.905  11.261   3.634 -0.1982  0.0318 -0.1559
16840W        W33687   0.571  18.706   4.487 -0.2912 -0.0105  0.1509
16841W        W33688  17.652   1.110  14.240 -0.3128  0.1720 -0.0757
16842W        W33689  16.498  10.731   3.085  0.2910 -0.2342 -0.1862
16843W        W33690   5.539  11.013   2.308 -0.2225 -0.2344  0.1372
16844W        W33691   9.384   2.641   1.508  0.3256  0.2422 -0.1950
16845W        W33692  18.849   3.619   4.284  0.0498 -0.1547 -0.1501
16846W        W33693   6.052   4.013   2.173  0.4049 -0.1435 -0.3401
16847W        W33694   1.905   6.911   4.580 -0.3025  0.0641  0.4588
16848W        W33695  16.329  11.153   1.938  0.2095 -0.0297 -0.0892
16849W        W33696  14.403  16.980   1.325 -0.1513 -0.2566 -0.2428
16850W        W33697   2.924  18.419   2.847 -0.4120 -0.1386 -0.1760
16851W        W33698  18.069  13.277   1.936  0.1500 -0.2187 -0.2524
16852W        W33699  19.308  15.658   0.748 -0.0361  0.1607 -0.0426
16853W        W33700  10.812   6.358  14.259  0.1407 -0.0579  0.1056
16854W        W33701  18.996  19.389   1.739 -0.1191  0.3845  0.1953
16855W        W33702  15.125  15.187   5.074 -0.0566  0.0268  0.0668
16856W        W33703  12.922   4.518   3.084  0.0391  0.1247 -0.0074
16857W        W33704   6.825  14.526   0.942 -0.1839 -0.0167 -0.0859
16858W        W33705   5.448  15.459   4.238  0.1346  0.0010 -0.0962
16859W        W33706  11.255   5.646  12.167 -0.0195  0.0146  0.0234
16860W        W33707   1.621  10.785  11.291 -0.1663 -0.2087  0.1185
16861W        W33708   4.996  17.737  12.963 -0.1081 -0.0440  0.0628
16862W        W33709  17.101   7.527  11.499 -0.0597  0.2393 -0.2529
16863W        W33710  16.927   4.009   5.555  0.1239 -0.2167  0.1424
16864W        W33711  16.749   0.498  13.119  0.0511  0.1011 -0.4086
16865W        W33712   8.587   7.456   4.820  0.2095 -0.4204  0.0615
16866W        W33713   4.360  14.329  12.377 -0.1871  0.2339  0.2095
16867W        W33714  16.951   5.463   1.773  0.2105  0.3244  0.0997
16868W        W33715  17.163   7.075   3.583  0.2336 -0.2357  0.0084
16869W        W33716  19.365  14.343   1.143  0.1726  0.0805 -0.2012
16870W        W33717  19.278  15.645   5.435  0.1806 -0.3201  0.1207
16871W        W33718  16.335   7.320   2.168 -0.1391  0.1572  0.0967
16872W        W33719  11.244   1.799  13.472 -0.1921 -0.1508  0.6974
16873W        W33720   2.203  15.807   2.178  0.0343  0.0241  0.2241
16874W        W33721   7.543  18.185   0.619  0.2739 -0.1447  0.1767
16875W        W33722   5.102  10.982  12.006  0.0629 -0.1907  0.2450
16876W        W33723  16.423   2.934  13.956  0.2121  0.0212 -0.1828
16877W        W33724  18.052   9.612   3.458 -0.2694  0.1163  0.0147
16878W        W33725  19.864   7.318  12.410  0.2145 -0.0776  0.2098
16879W        W33726   2.510   4.344   9.425 -0.2126 -0.3449 -0.3759
16880W        W33727  13.154  10.158   1.362 -0.0877 -0.1061  0.0956
16881W        W33728   7.644  18.452   3.183  0.3203  0.2577  0.3251
16882W        W33729   7.629   1.425   9.981  0.1920 -0.1216 -0.0175
16883W        W33730  18.450  17.863   0.719  0.3266 -0.1094 -0.1664
16884W        W33731   6.500   9.601   0.280 -0.0449  0.1293 -0.1770
16885W        W33732  18.377   2.391   3.644  0.1381  0.3214 -0.0235
16886W        W33733  18.334   6.118   1.266 -0.1144  0.1486  0.1624
16887W        W33734   1.707  13.145  12.976 -0.2447  0.0639  0.2689
16888W        W33735   5.250  14.254  12.488  0.4977  0.2774 -0.3967
16889W        W33736  18.108   5.012  13.358 -0.0845  0.0134  0.1807
16890W        W33737  19.203  15.234   0.558 -0.1532  0.2022  0.0149
16891W        W33738  14.527   5.695   4.185  0.0853 -0.1697 -0.0735
16892W        W33739  18.360   9.428   0.321 -0.2128  0.0127  0.0056
16893W        W33740  17.505   5.296  12.284 -0.6369  0.0341 -0.1161
16894W        W33741   6.219  17.430   0.856 -0.1841 -0.0281  0.6489
16895W        W33742   9.408   2.485   2.989 -0.2209 -0.2150  0.0748
16896W        W33743  19.400  12.607  10.663  0.2405  0.3600 -0.0399
16897W        W33744  19.706   9.676   1.395 -0.1682  0.4347  0.0083
16898W        W33745   6.079   4.953  13.922  0.0362  0.1385  0.2520
16899W        W33746   1.791   7.695   1.489  0.1956  0.0525 -0.0670
16900W        W33747   2.314   0.010  12.294  0.1976  0.3937 -0.1404
16901W        W33748   6.472   4.589   3.499 -0.1643  0.1358 -0.0354
16902W        W33749   3.000   0.630  13.951 -0.2667 -0.0871 -0.1461
16903W        W33750   8.827  12.409   2.326 -0.1889 -0.1859 -0.0403
16904W        W33751  18.350  16.198  11.760 -0.0592 -0.0568 -0.1455
16905W        W33752   6.382   2.626   4.873  0.0315  0.0802 -0.2847
16906W        W33753  14.707  14.128  11.124 -0.0155  0.0957  0.2047
16907W        W33754  12.351   6.976   4.092 -0.3095 -0.1248 -0.1584
16908W        W33755  13.384   5.228   0.236 -0.1996 -0.0755 -0.0986
16909W        W33756   7.328   9.325   1.270  0.0785 -0.1066  0.0363
16910W        W33757   7.167   2.047  13.900  0.0163 -0.0991  0.2827
16911W        W33758  12.214  14.531   1.365  0.0608  0.0338 -0.2034
16912W        W33759  10.545   2.483   4.428 -0.0275 -0.0131 -0.3736
16913W        W33760   6.164   2.090   0.522 -0.1420  0.0045 -0.0624
16914W        W33761   9.789   4.093  10.513 -0.0181 -0.0809 -0.0481
16915W        W33762  12.342  14.886   3.685 -0.1998 -0.0304 -0.1474
16916W        W33763   6.966   8.912  11.485  0.0594 -0.2835 -0.1519
16917W        W33764  10.402  14.833  10.395 -0.1085 -0.1424  0.2159
16918W        W33765   4.078   3.931   3.313  0.2056 -0.0033  0.2429
16919W        W33766   5.068  16.802   0.172  0.1775 -0.0296  0.1423
16920W        W33767  13.028  19.465  13.751  0.0750 -0.1504  0.0655
16921W        W33768   1.376   0.305  12.504  0.1452  0.0077  0.1172
16922W        W33769  16.650   2.092  12.814 -0.0444  0.2149  0.1059
16923W        W33770   9.709  12.833   0.134  0.1953 -0.1281 -0.1475
16924W        W33771  15.664  14.829   2.166 -0.0118 -0.2606 -0.0894
16925W        W33772   1.238  19.300  10.555  0.1932 -0.1446 -0.1553
16926W        W33773  10.056  11.847   2.757  0.1300 -0.1161  0.1488
16927W        W33774  12.115  13.894   0.284  0.3017 -0.0332  0.4524
16928W        W33775  19.902  19.675  11.006 -0.1542  0.2420  0.3312
16929W        W33776   0.453   3.439  11.272 -0.0036 -0.2317 -0.3936
16930W        W33777   0.085   8.608   3.143 -0.0262 -0.0580  0.0803
16931W        W33778  11.003  11.563   1.214 -0.1622  0.1353 -0.1777
16932W        W33779   2.737  10.646   4.419 -0.0541  0.0253 -0.3896
16933W        W33780  13.087   2.571   3.147 -0.2942 -0.0458  0.0233
16934W        W33781  17.505  16.975  10.632 -0.1886  0.2568 -0.1296
16935W        W33782   8.832   7.917  12.553  0.0792 -0.1991  0.6796
16936W        W33783   9.642  18.571   0.257 -0.0763  0.2933 -0.3284
16937W        W33784   7.699   2.946   4.269 -0.1644  0.2640 -0.0105
16938W        W33785   0.572   7.777   9.724  0.0785  0.2009 -0.3787
16939W        W33786   8.308  10.538  10.381 -0.1326  0.5053  0.5473
16940W        W33787   4.578   5.758   3.879 -0.4177  0.0555  0.1616
16941W        W33788  13.778   9.859   3.048  0.0532 -0.1295 -0.1594
16942W        W33789  12.782  15.469   2.335 -0.2121  0.0387 -0.0698
16943W        W33790  19.461  17.504  11.709 -0.1647  0.0687 -0.2497
16944W        W33791  17.335   4.086   1.728  0.1951  0.2335  0.0304
16945W        W33792   1.934   7.247  13.429  0.1380 -0.2302  0.0814
16946W        W33793  17.275   3.232  10.781  0.1179 -0.0112 -0.1063
16947W        W33794  16.764   3.400  11.203 -0.0956 -0.2459 -0.0312
16948W        W33795   9.820  16.356   1.636 -0.0399 -0.0199 -0.0885
16949W        W33796   6.561  10.146  12.840 -0.0912  0.0116 -0.0116
16950W        W33797   7.734  10.967   1.638  0.1302 -0.0376  0.0753
16951W        W33798  17.502   1.831  12.348 -0.2341 -0.1399 -0.2429
16952W        W33799   6.545  12.250  13.678 -0.1048 -0.1457  0.3052
16953W        W33800   5.304   2.698  11.886 -0.1621 -0.1315  0.1779
16954W        W33801  15.337   5.961   0.157 -0.3959 -0.1994 -0.1788
16955W        W33802  16.949  17.624   1.260 -0.0901 -0.4191  0.0430
16956W        W33803   4.863   2.587   1.215  0.1923 -0.1668  0.0530
16957W        W33804   6.730  13.851   3.738 -0.1576 -0.1525 -0.2313
16958W        W33805  19.888  17.312   4.229 -0.1136 -0.0551 -0.6345
16959W        W33806  13.214   6.114  13.493 -0.0034 -0.1207  0.2443
16960W        W33807  14.485  14.190   2.732  0.1020  0.0375 -0.2363
16961W        W33808  17.890  13.843  10.877  0.0460  0.0461  0.0223
16962W        W33809   1.533  14.820   3.047 -0.5133  0.1539  0.5833
16963W        W33810   2.927  14.757   9.526  0.4405 -0.1190  0.0762
16964W        W33811   3.298  12.530   1.579 -0.4666  0.1524  0.0548
16965W        W33812   5.731   6.596  12.288 -0.2539 -0.0436 -0.1036
16966W        W33813   3.929   4.420   2.043  0.0171 -0.2736 -0.0428
16967W        W33814   6.418   3.319  12.083  0.2221  0.1908 -0.0953
16968W        W33815  19.333  11.496   2.052  0.1407  0.0616  0.0732
16969W        W33816  19.636   6.929   2.131  0.1285 -0.0332  0.0767
16970W        W33817  14.947   2.164   3.172  0.2629 -0.1512  0.0179
16971W        W33818  19.111   4.494   0.787 -0.2141 -0.1586  0.1444
16972W        W33819   0.678  18.883  12.586 -0.1483  0.0979 -0.0678
16973W        W33820  16.436   5.421   3.801 -0.0807 -0.1481  0.0867
16974W        W33821   8.537   0.035  11.489 -0.1754  0.0596 -0.1137
16975W        W33822   2.211  18.558   2.579 -0.0758  0.0938 -0.3342
16976W        W33823  10.864  16.700   0.240 -0.0599 -0.0450  0.0258
16977W        W33824   7.254  17.174   4.575 -0.0482 -0.3363 -0.0919
16978W        W33825   2.254   7.184   4.725  0.1674  0.3346 -0.1169
16979W        W33826  18.155  14.236   2.686  0.0483 -0.2616  0.0743
16980W        W33827   4.633   0.251   2.049  0.1385  0.3814  0.0809
16981W        W33828   0.448   1.847  10.596  0.2296 -0.2074 -0.0984
16982W        W33829  16.211   7.959  10.978 -0.0314  0.1994  0.1714
16983W        W33830   1.774  19.594  10.638 -0.0611  0.0618  0.2158
16984W        W33831   5.074  19.048   1.470  0.2583  0.3341  0.0054
16985W        W33832  12.809  12.461   3.131 -0.1123 -0.1479 -0.0058
16986W        W33833  14.303   7.783   0.858  0.0390  0.2258  0.2807
16987W        W33834  13.449   4.566   4.474  0.1721  0.3601 -0.4484
16988W        W33835   3.729  16.203   2.758  0.0350 -0.1321  0.1681
16989W        W33836  10.654   9.054  10.849 -0.0938  0.2496 -0.5891
16990W        W33837   3.658  16.735  13.399  0.0389  0.1661 -0.2146
16991W        W33838  10.056  13.718   4.171 -0.1022  0.0042  0.1376
16992W        W33839   7.482   6.145  10.381 -0.1959 -0.2155  0.0463
16993W        W33840   3.080  18.878   4.356  0.0966 -0.0414  0.2408
16994W        W33841  19.811  19.916   3.594  0.3828  0.2446 -0.0762
16995W        W33842   7.430   7.144   3.484 -0.0519 -0.1174 -0.0310
16996W        W33843   0.397   0.692   2.230 -0.4296  0.0404 -0.2879
16997W        W33844  14.547  13.666   0.500  0.0388 -0.0954 -0.0731
16998W        W33845   6.412  10.624  10.806 -0.0948 -0.0162 -0.0591
16999W        W33846  12.917   3.901   4.113  0.0861  0.1840 -0.1307
17000W        W33847   3.874  10.835  11.663  0.0819  0.2319 -0.3136
17001W        W33848   8.679  14.393  12.337 -0.1337 -0.0582 -0.0901
17002W        W33849  18.098   1.799   2.416 -0.1552 -0.1671 -0.1149
17003W        W33850   5.194  15.486   4.924  0.0318  0.1668  0.0375
17004W        W33851   9.714  16.498  10.438  0.3303 -0.0580  0.2705
17005W        W33852  16.696  10.264  14.175  0.0734  0.3641  0.1402
17006W        W33853   2.076  14.466  11.221  0.0292 -0.0952 -0.1561
17007W        W33854   0.560   0.910  11.705  0.1242 -0.0974 -0.0769
17008W        W33855   5.712   1.188   4.049  0.2797 -0.0308 -0.0039
17009W        W33856   0.666  15.745   2.761 -0.1965  0.0529 -0.1827
17010W        W33857  11.368  14.010  12.833  0.1785  0.0723  0.0249
17011W        W33858  18.780   0.848  10.523  0.1204 -0.2999 -0.1706
17012W        W33859  18.052  17.606   4.411  0.2889 -0.4208 -0.1656
17013W        W33860   8.370  15.357   0.898 -0.0348  0.3483 -0.2510
17014W        W33861   6.954   4.872  13.625 -0.3939  0.1793  0.0518
17015W        W33862  13.387  16.130   3.961  0.2542  0.0940 -0.0444
17016W        W33863   2.140   6.952   4.164 -0.1212 -0.1616 -0.0549
17017W        W33864  12.794   9.661  12.131 -0.1635 -0.3499  0.3701
17018W        W33865   3.619  17.223   2.808 -0.0543 -0.0218 -0.0864
17019W        W33866   2.479  15.824  11.744  0.1109  0.0666 -0.0119
17020W        W33867   5.008   7.138  10.579 -0.2185 -0.2902 -0.4185
17021W        W33868  14.693  14.278  11.598  0.0030 -0.5239 -0.0436
17022W        W33869  11.522   4.753  10.108  0.0346  0.0241 -0.0939
17023W        W33870  13.340  12.341   2.315  0.0710  0.0812  0.2394
17024W        W33871   0.200  14.933   3.336  0.0027 -0.0278  0.2698
17025W        W33872  17.838   1.594  13.419 -0.2228 -0.2524 -0.0136
17026W        W33873   4.633  18.154   3.775  0.0736 -0.0821 -0.3254
17027W        W33874  18.776  19.556  13.934  0.0467 -0.0392 -0.0329
17028W        W33875  15.422   2.697  10.657 -0.0455  0.0687  0.1816
17029W        W33876  17.732   6.514  13.036 -0.3079 -0.0595 -0.0323
17030W        W33877   4.395   7.403   0.906 -0.4195 -0.1529 -0.0911
17031W        W33878   1.569   6.400  13.735 -0.0059  0.2135  0.1891
17032W        W33879  11.507  16.352  11.288  0.3287  0.0365 -0.1098
17033W        W33880   0.795   8.366   4.434  0.1793 -0.0107  0.5238
17034W        W33881  18.153   9.313   1.192  0.0432 -0.0095  0.0706
17035W        W33882  19.499  19.024  13.852  0.1837  0.2675 -0.0170
17036W        W33883   3.456   6.844  11.830 -0.2831 -0.3105 -0.0831
17037W        W33884   0.869  18.099  10.049  0.1291 -0.0216 -0.3121
17038W        W33885   1.342   4.161  12.139 -0.1439  0.0404 -0.2676
17039W        W33886   1.269  13.882  12.880 -0.0583  0.0937  0.1270
17040W        W33887   9.250  15.761   4.289 -0.2138 -0.6298 -0.0478
17041W        W33888  16.759  15.403  12.526  0.1213  0.2604 -0.1675
17042W        W33889   2.283   5.515   0.959 -0.0329  0.3239 -0.3818
17043W        W33890  14.192   1.765   3.209  0.0707 -0.1743 -0.2580
17044W        W33891  11.254  16.456   9.025  0.1421  0.0430 -0.2113
17045W        W33892   2.250   3.878   0.245 -0.0430 -0.2685  0.1480
17046W        W33893  17.268   3.901   4.559 -0.1072 -0.2387 -0.1571
17047W        W33894   9.680  19.720   4.368  0.1190  0.0595  0.1097
17048W        W33895  11.481   6.140  11.196 -0.2110  0.1468 -0.1190
17049W        W33896   9.588  12.347   2.784  0.2640  0.2558  0.3898
17050W        W33897   9.886  14.206  13.926 -0.2613 -0.1842  0.1790
17051W        W33898   4.055   7.232   2.919 -0.0025  0.2154  0.0222
17052W        W33899  10.918   8.517  12.076 -0.1090 -0.1765  0.0418
17053W        W33900   6.383  14.526   4.379 -0.1109 -0.0584  0.0754
17054W        W33901   3.324  17.638  10.584 -0.1403 -0.1005  0.0994
17055W        W33902  12.482   6.366   4.896  0.1281 -0.1197  0.2267
17056W        W33903  12.517  14.035  12.100  0.0564 -0.1400  0.1105
17057W        W33904  10.357   7.121   3.590  0.2117 -0.1809  0.0212
17058W        W33905   4.520   0.507  11.281 -0.1123 -0.3380 -0.2584
17059W        W33906  15.278  15.957   0.044  0.4501  0.0378  0.1998
17060W        W33907  17.058  13.036   2.250 -0.0557  0.1251 -0.3054
17061W        W33908  11.183  13.457  11.488 -0.0194  0.1667 -0.1971
17062W        W33909   2.851  18.667  10.664 -0.1631  0.0986 -0.0930
17063W        W33910   0.148  18.068   2.342 -0.1338  0.0040 -0.0922
17064W        W33911   5.570  12.199  10.384  0.2978  0.0936  0.2217
17065W        W33912   0.215  19.395   2.238 -0.2264  0.1148  0.1851
17066W        W33913  11.457  14.439   0.777 -0.3125  0.1168 -0.1354
17067W        W33914  17.765   7.073  10.933 -0.0362  0.1027 -0.0809
17068W        W33915  15.227   7.954  13.678  0.1251 -0.1746  0.1521
17069W        W33916  18.566  13.294  14.193 -0.0325  0.2507  0.2172
17070W        W33917  19.359  14.298   1.777  0.1977  0.1721 -0.2349
17071W        W33918  19.588   9.585   0.033 -0.1232 -0.2733 -0.2302
17072W        W33919   0.385   0.505   5.072  0.0150 -0.3516 -0.1435
17073W        W33920  16.537  16.759  10.175 -0.0005  0.1168 -0.3167
17074W        W33921   7.101   1.546   4.263  0.3820 -0.3664 -0.2258
17075W        W33922   2.244  17.832  11.576 -0.4620  0.1293 -0.1195
17076W        W33923   2.781  13.669  12.254 -0.0704 -0.2751  0.1500
17077W        W33924  19.809  11.652   4.960 -0.1222 -0.1114 -0.1788
17078W        W33925  15.566   0.516  11.298 -0.0613 -0.1986 -0.4958
17079W        W33926   9.237  19.830   2.596  0.2931  0.1259 -0.1326
17080W        W33927  10.798   4.047   5.459 -0.2425 -0.2119 -0.1534
17081W        W33928  10.139  17.356   3.194  0.1358  0.0623  0.2924
17082W        W33929  10.843  17.065  11.120  0.0323 -0.0440 -0.1207
17083W        W33930   1.540   1.542  12.043  0.2846  0.0283 -0.1170
17084W        W33931  17.200  12.087   1.715  0.1145 -0.3014  0.1250
17085W        W33932  14.809  15.971  13.423 -0.1344  0.0215  0.1255
17086W        W33933  17.554   1.523  13.926 -0.0109  0.0419 -0.2519
17087W        W33934   5.064   1.626  13.316 -0.1135 -0.1300  0.0464
17088W        W33935  16.632   5.018  11.996  0.3558 -0.1710  0.1514
17089W        W33936  15.720   4.432   4.468 -0.1816  0.3807  0.0801
17090W        W33937  11.641   9.655  11.552  0.1442 -0.0624 -0.0785
17091W        W33938  12.189   8.420   9.979  0.1036 -0.2293  0.0913
17092W        W33939  17.439  17.204   0.308  0.4568 -0.0225 -0.0154
17093W        W33940   2.425   4.830   0.477 -0.1928  0.0580 -0.1412
17094W        W33941   8.848   0.445   3.828 -0.2885 -0.2079 -0.3574
17095W        W33942   3.351  12.660   3.397 -0.1880  0.2078 -0.0345
17096W        W33943  10.728   9.433  13.423  0.0622 -0.0629 -0.2421
17097W        W33944  15.174   9.047   3.097  0.2174  0.1884 -0.1541
17098W        W33945  17.096   9.245   1.280  0.0796  0.1544  0.2440
17099W        W33946   2.091  11.714   2.581 -0.0178  0.0475 -0.3582
17100W        W33947   7.798  18.758  11.073  0.3334 -0.2573 -0.0844
17101W        W33948   8.092  19.028   0.176  0.0259  0.1432  0.1257
17102W        W33949   4.605  10.637  10.593  0.4068  0.2398  0.0169
17103W        W33950   5.347  17.524   2.481 -0.4559  0.1730 -0.2946
17104W        W33951  18.100   0.460  14.071  0.0979  0.2559  0.0056
17105W        W33952  19.066   9.734  12.306 -0.4110  0.1585  0.1449
17106W        W33953  15.364  11.658  14.092  0.1806  0.4555 -0.0114
17107W        W33954  14.608  16.672  12.578 -0.3134  0.3553  0.1841
17108W        W33955  12.543   4.796   5.476  0.2038  0.1511  0.1548
17109W        W33956  14.671  16.251   2.983  0.0584 -0.0838 -0.0477
17110W        W33957   2.601   1.624  13.359 -0.1589 -0.0228 -0.2780
17111W        W33958  12.045  12.297  13.560 -0.1253  0.0497 -0.0664
17112W        W33959   0.673  19.513  13.363  0.0262 -0.1164 -0.1760
17113W        W33960   3.947   1.117  12.429 -0.1741  0.1142  0.0239
17114W        W33961  13.496  18.622   0.749  0.3823 -0.0197  0.1885
17115W        W33962  15.181  15.553  12.219 -0.0946  0.0249 -0.2142
17116W        W33963   0.603  11.505   2.873 -0.0463 -0.2247 -0.1186
17117W        W33964   7.205   2.694  10.018 -0.0875  0.4402  0.3575
17118W        W33965  19.447   0.035   8.919 -0.1522 -0.1176  0.0117
17119W        W33966   0.616  15.437  10.373  0.1558  0.0383  0.3390
17120W        W33967  15.202   6.104  11.759 -0.0006 -0.1015  0.1634
17121W        W33968  13.425  19.023   3.121 -0.1731 -0.3108 -0.1615
17122W        W33969   9.637   7.660   4.687  0.2538 -0.0806  0.0357
17123W        W33970   4.000   2.811  10.749 -0.3483 -0.1511 -0.0890
17124W        W33971   1.302  10.111   5.025 -0.0715 -0.0772  0.2322
17125W        W33972   9.526  10.672   0.393 -0.0151  0.0777  0.0726
17126W        W33973   9.220   4.824  10.277  0.3494  0.2685 -0.0171
17127W        W33974  13.215  13.628   1.748  0.4818  0.0001 -0.1429
17128W        W33975   9.260   5.406  13.461 -0.1961  0.0661  0.1421
17129W        W33976   8.622  11.313  13.761  0.2513 -0.1202 -0.4130
17130W        W33977   3.714  18.324   3.774  0.0184  0.3889 -0.0609
17131W        W33978  18.785   7.177   0.693  0.1780 -0.1706 -0.0968
17132W        W33979  16.187   3.691   5.566 -0.1888 -0.2544 -0.0881
17133W        W33980  11.857  13.260   2.565 -0.0180 -0.0183  0.1579
17134W        W33981   5.166   6.158   8.866 -0.0755  0.1402 -0.0980
17135W        W33982  11.293   7.387   1.166 -0.0975 -0.0903  0.0080
17136W        W33983   6.636   9.138   2.619 -0.3605 -0.0986  0.2916
17137W        W33984   5.452   5.277  11.207 -0.1866 -0.0809 -0.0516
17138W        W33985   6.023   2.370   9.850 -0.2192 -0.1054 -0.0614
17139W        W33986  17.774   9.012   2.788 -0.0892  0.0321 -0.2083
17140W        W33987  19.044   5.974   4.144  0.0996  0.1348  0.2677
17141W        W33988   8.394   9.682   0.093 -0.0582 -0.2939  0.0146
17142W        W33989   8.576  16.862  11.032  0.5742 -0.2492 -0.1912
17143W        W33990  12.066   2.604  10.948  0.1804  0.1478 -0.4419
17144W        W33991  13.969   1.495  12.391 -0.0364 -0.1962  0.0460
17145W        W33992   1.799   3.829  10.071  0.0643 -0.2265 -0.4926
17146W        W33993   0.290  12.847   2.779 -0.0739  0.1108  0.1211
17147W        W33994  12.663   8.382  13.657 -0.0691  0.0288  0.1641
17148W        W33995  13.490  10.382  10.586  0.2090  0.0501 -0.1886
17149W        W33996   7.756   7.482   2.708 -0.1948  0.0485  0.1199
17150W        W33997   3.407  10.712   2.898  0.0831 -0.2656  0.1658
17151W        W33998  13.423   2.830  12.052  0.2812 -0.1716  0.1742
17152W        W33999  10.644  14.089   3.913 -0.0299  0.0941 -0.1707
17153W        W34000  11.602  17.337   3.599  0.4446 -0.1081  0.0001
17154W        W34001  13.544   0.146  13.213 -0.1163  0.0816  0.2460
17155W        W34002  12.079   8.926   9.951 -0.4130  0.4118  0.0955
17156W        W34003  13.017   1.114   2.421  0.2321  0.1159  0.4294
17157W        W34004  18.989   5.279  13.680 -0.0761 -0.1789  0.2055
17158W        W34005   4.146   9.170  13.263 -0.2103  0.0726  0.4183
17159W        W34006  12.845  13.012  13.230 -0.2786 -0.2606  0.4060
17160W        W34007  15.593   7.623   3.411 -0.4072  0.0586 -0.0945
17161W        W34008   2.236  19.666   8.966  0.0569 -0.2489 -0.0986
17162W        W34009   4.386  15.683  10.736 -0.3960 -0.1239 -0.0955
17163W        W34010  10.873   0.391   3.123  0.1191 -0.0175  0.2241
17164W        W34011  12.570   7.219  11.093  0.4066  0.0441  0.1608
17165W        W34012   6.115   2.567   3.099  0.0295 -0.0548  0.0686
17166W        W34013  16.746   6.331   4.015  0.0285 -0.1382 -0.3538
17167W        W34014   1.174   7.424  10.972 -0.1182 -0.1374 -0.1304
17168W        W34015   1.383   2.828   4.777 -0.0915 -0.0882 -0.1681
17169W        W34016   7.369  18.499  12.125 -0.0825  0.1761 -0.0467
17170W        W34017   2.265  11.447  10.599  0.0940  0.1835  0.0062
17171W        W34018  11.026  18.140  13.762  0.1175  0.0231 -0.2202
17172W        W34019   2.710   5.484   1.860  0.0368 -0.0017 -0.0800
17173W        W34020  19.622  12.641   3.545  0.0019  0.0078  0.3140
17174W        W34021   8.416   1.005  10.987  0.3805 -0.2035 -0.1550
17175W        W34022   4.150  19.076   3.555  0.4259  0.3003 -0.2287
17176W        W34023   9.211   0.525  10.665 -0.3551  0.1077 -0.0537
17177W        W34024  17.484  10.212   4.195  0.2448 -0.1440 -0.0296
17178W        W34025  18.957  10.508   3.778  0.1383  0.0780 -0.0331
17179W        W34026  18.362   4.794   2.966  0.0686  0.3629 -0.0128
17180W        W34027   3.137  14.129  13.985  0.0893 -0.0648 -0.1013
17181W        W34028  11.678  19.719   2.426  0.2354  0.1968  0.1195
17182W        W34029  13.199   9.087   2.124 -0.0599  0.0284  0.3496
17183W        W34030   9.180  14.113   2.802 -0.3984 -0.0316  0.0003
17184W        W34031  19.593   7.790   1.344 -0.1991 -0.2333  0.2094
17185W        W34032  10.775  16.268  11.709  0.0718 -0.0927 -0.0754
17186W        W34033   4.993   8.828   3.410  0.1171 -0.0104 -0.1086
17187W        W34034   3.891   6.712  12.068  0.1733  0.0943  0.1003
17188W        W34035  18.928   3.774   1.755  0.1080 -0.0084 -0.2352
17189W        W34036   0.289   3.359  10.187 -0.1316  0.0895  0.0524
17190W        W34037   5.207  16.629  12.100  0.1084  0.4407 -0.1600
17191W        W34038   7.264  14.571   0.246 -0.4368 -0.1760  0.2377
17192W        W34039   1.762  18.697   2.374  0.0146  0.2420  0.0521
17193W        W34040  11.846  16.413   4.443  0.0319  0.0506  0.0268
17194W        W34041  17.380   9.694   0.625 -0.1287  0.2037  0.0498
17195W        W34042   1.272  10.897  12.826 -0.2662  0.2140  0.1984
17196W        W34043   8.312   0.389   3.875 -0.0398  0.1666 -0.0950
17197W        W34044  16.817  17.061  11.271 -0.2701 -0.0999  0.3863
17198W        W34045  12.472  16.399   3.057 -0.1485 -0.0807 -0.0940
17199W        W34046   7.150   2.174  10.460  0.1450 -0.2193 -0.0728
17200W        W34047   7.093  14.785  14.063  0.2523 -0.3154 -0.0549
17201W        W34048  13.410   2.448  10.697  0.0918  0.1817 -0.0880
17202W        W34049   6.844   7.966   3.415  0.2586 -0.0269  0.4269
17203W        W34050   0.587   3.946   0.690  0.2608  0.3262  0.0306
17204W        W34051   8.089  14.386   3.950 -0.0257 -0.3306  0.1146
17205W        W34052   7.521   0.691   5.326  0.0829  0.0538 -0.0886
17206W        W34053   3.512  11.856   1.032  0.3346 -0.3980  0.0304
17207W        W34054  13.720   9.617   4.017 -0.1748 -0.2923 -0.0907
17208W        W34055   1.772   6.163  12.649  0.0140  0.2521 -0.3683
17209W        W34056   2.642   2.010  11.398 -0.1605 -0.1405  0.0081
17210W        W34057  16.666  12.076   4.282 -0.3686 -0.0129 -0.2780
17211W        W34058   0.308   9.961   0.340  0.2596  0.1135  0.1943
17212W        W34059  19.171  17.411   1.912 -0.3488  0.0812  0.1811
17213W        W34060  10.603   5.230   2.392 -0.0654 -0.0700  0.2710
17214W        W34061   6.378   4.388  11.339 -0.0334 -0.1570  0.0857
17215W        W34062  14.235  16.161   1.255  0.2280 -0.0943 -0.1981
17216W        W34063   6.690  16.681  12.793 -0.1217  0.4250 -0.0911
17217W        W34064   5.019   0.070  10.243 -0.2250  0.1645 -0.1120
17218W        W34065   0.154  18.302  14.101 -0.1676 -0.0207 -0.4255
17219W        W34066  12.209  13.604   0.749  0.0719 -0.1213  0.1481
17220W        W34067  14.118   2.697  13.226 -0.0206  0.0243 -0.2692
17221W        W34068   3.817  15.478  13.261 -0.3497  0.0047 -0.0899
17222W        W34069   7.177  10.897  12.713 -0.0257  0.0073 -0.0016
17223W        W34070   7.690   4.155   1.198 -0.2475 -0.2755 -0.1523
17224W        W34071   4.311   9.455   8.813  0.1950 -0.0288  0.0858
17225W        W34072   3.441  10.277  13.389  0.0537  0.1653  0.0110
17226W        W34073   0.488  18.323   3.730 -0.1042 -0.2701 -0.0165
17227W        W34074   3.853  19.826   2.351  0.0002  0.3398  0.0580
17228W        W34075  15.198   6.846  13.993  0.0863  0.3490 -0.1246
17229W        W34076   1.759  15.984   2.358 -0.0782 -0.2546 -0.3589
17230W        W34077  19.472   3.550  12.975  0.0030 -0.0767 -0.0976
17231W        W34078  15.967  11.023   9.801 -0.0141 -0.0801 -0.0654
17232W        W34079  19.395   6.999  13.063  0.3902  0.0938 -0.0304
17233W        W34080   9.691   6.751  13.226  0.0081  0.1766 -0.3714
17234W        W34081   4.751  18.546   9.947  0.1331 -0.2445 -0.1914
17235W        W34082   9.973   9.190   3.942 -0.4219  0.0380  0.2616
17236W        W34083   7.911  17.328   0.250  0.1453  0.0707 -0.5983
17237W        W34084   6.135  14.395   5.144  0.1089  0.0102  0.0490
17238W        W34085  10.509  18.639  10.289  0.1054  0.0261 -0.1669
17239W        W34086  19.272   1.708  14.062 -0.0142  0.1076 -0.0153
17240W        W34087   6.811  19.702   0.007  0.0693 -0.2681 -0.3165
17241W        W34088  14.919   9.792   3.161 -0.1157 -0.2253  0.1630
17242W        W34089  17.250   5.257  10.405  0.1697 -0.2909  0.0072
17243W        W34090   5.319  13.727   2.828  0.1165 -0.0039  0.2885
17244W        W34091  10.405   0.756   3.877  0.2118 -0.1301  0.2022
17245W        W34092   4.141  10.724  10.424 -0.3503  0.2577 -0.3347
17246W        W34093   5.349   4.993   1.593  0.0298  0.0128  0.2674
17247W        W34094  14.140  10.246   3.068  0.0151 -0.0626  0.3360
17248W        W34095  15.128  13.942  11.984 -0.1613  0.3959  0.0104
17249W        W34096   6.800   1.097  14.122 -0.1355 -0.0669  0.1765
17250W        W34097  17.550  16.113  12.395 -0.0914 -0.2167 -0.0262
17251W        W34098  16.788   2.483  10.827 -0.3175 -0.0588  0.1029
17252W        W34099   7.452   8.408  11.929 -0.1359  0.0507 -0.2342
17253W        W34100  14.550   6.326   3.222 -0.2040 -0.1929 -0.2843
17254W        W34101  18.737   7.206   5.944 -0.1319 -0.3650  0.1466
17255W        W34102   7.949   3.411   2.220 -0.0652 -0.2372 -0.0714
17256W        W34103  13.493  14.847   0.856 -0.0652 -0.0112 -0.2397
17257W        W34104   0.416  10.889   4.415  0.1277  0.0816 -0.0119
17258W        W34105  18.730  10.062   2.320 -0.0947  0.0276  0.4369
17259W        W34106   4.934  15.124  12.326 -0.1174  0.0440  0.0516
17260W        W34107  17.735   8.171   4.568 -0.1915 -0.2698 -0.0958
17261W        W34108  12.552   4.634   2.599  0.0284  0.2409 -0.1324
17262W        W34109  15.111   7.861   4.396 -0.0377  0.2064 -0.0542
17263W        W34110  11.034  18.004   1.941 -0.1166 -0.0293 -0.1072
17264W        W34111  14.050  19.119   4.491  0.0045  0.0162  0.0791
17265W        W34112  10.390   3.779  12.567  0.0902 -0.3605 -0.1683
17266W        W34113   5.576  14.442  10.378 -0.0643  0.2841 -0.0130
17267W        W34114  10.298   8.500  10.279  0.1077  0.0871  0.0814
17268W        W34115  15.474  18.542  13.698  0.0778  0.3252 -0.0585
17269W        W34116   8.335  11.033  10.892  0.3529  0.3334 -0.3211
17270W        W34117   8.864   8.895   1.633  0.2946 -0.0219 -0.0657
17271W        W34118  11.949   0.502   3.041 -0.1077 -0.0233 -0.1695
17272W        W34119   4.331   6.496   4.322  0.1872 -0.4616  0.0556
17273W        W34120  13.140  12.891   2.131  0.1337  0.1654 -0.1855
17274W        W34121  10.415  10.845  13.095 -0.3498 -0.2170 -0.3231
17275W        W34122   9.229   7.860   2.788 -0.1696 -0.1330  0.2048
17276W        W34123  19.729  16.865   4.007 -0.1809 -0.2127  0.0818
17277W        W34124  12.511  16.538  13.663 -0.0577 -0.0233 -0.0438
17278W        W34125   9.009  10.313  13.874 -0.2803  0.2799  0.0731
17279W        W34126   5.077   8.250  12.131 -0.1647 -0.1531  0.0426
17280W        W34127   8.949   8.992  11.285  0.2591  0.1286  0.1742
17281W        W34128   1.379   2.273  13.858  0.2169 -0.0235  0.0057
17282W        W34129  10.277  19.676   3.119 -0.0575 -0.0719 -0.0654
17283W        W34130   1.111  11.040  14.212 -0.0202 -0.0971  0.0958
17284W        W34131  11.646   1.862   1.744  0.1984  0.1320  0.2181
17285W        W34132   4.672  10.087   1.826 -0.2037 -0.4242 -0.0134
17286W        W34133   7.830  19.608   4.450  0.1784 -0.1743  0.2465
17287W        W34134  10.454  18.181   0.217 -0.1850 -0.2553 -0.0169
17288W        W34135   6.002   4.251   2.596 -0.0443  0.2263 -0.0661
17289W        W34136  19.267   3.253   4.688 -0.2157 -0.2500  0.3457
17290W        W34137   8.867  15.762   3.990  0.1699 -0.0820  0.2431
17291W        W34138  10.542   6.729   1.150  0.1654  0.1045  0.3023
17292W        W34139   4.164  11.293   4.996 -0.1758 -0.1464 -0.0560
17293W        W34140  17.232  14.752   9.265 -0.0187  0.2470  0.1864
17294W        W34141  13.474  16.884   2.397 -0.0333  0.0505 -0.0542
17295W        W34142  13.497   9.174  12.581 -0.4916 -0.1354 -0.4233
17296W        W34143  11.735  18.649   1.343 -0.1706  0.2347  0.0798
17297W        W34144  13.977   4.512   1.732 -0.2437 -0.2973 -0.1636
17298W        W34145  19.567   3.934   2.479 -0.0460  0.0190 -0.0103
17299W        W34146   1.235   1.795   3.019 -0.3195  0.1453 -0.1151
17300W        W34147  15.860   8.320   0.745 -0.2698 -0.2867 -0.2436
17301W        W34148  14.307   8.668  12.613  0.1799  0.1227 -0.2806
17302W        W34149  10.429   7.205  13.773  0.2950  0.1384 -0.1805
17303W        W34150   2.914   7.350  14.220 -0.2792  0.1147  0.0235
17304W        W34151   3.665   4.256   9.753  0.0303 -0.4000  0.3407
17305W        W34152   9.997   9.512   1.266  0.0172  0.1906  0.2230
17306W        W34153  18.654   7.247  13.635 -0.2914 -0.1634  0.1281
17307W        W34154   2.490   3.228   0.174 -0.4200  0.4843  0.0067
17308W        W34155  11.757  13.118   3.034  0.1922  0.1415  0.0399
17309W        W34156  12.623   0.748   2.235 -0.2534 -0.1099 -0.3151
17310W        W34157   1.461   7.754   2.614 -0.1677  0.0331  0.0712
17311W        W34158   8.190  10.362   9.050  0.2875  0.3510  0.2075
17312W        W34159  12.642   0.109  11.105 -0.2186 -0.1350  0.2070
17313W        W34160   3.418  11.043  14.244  0.0589  0.1300  0.2577
17314W        W34161   9.986  17.979  12.306 -0.2519 -0.1160  0.2865
17315W        W34162  12.399  19.738  13.833  0.0748 -0.0179  0.1897
17316W        W34163   7.597   7.585   3.175  0.1769  0.0050  0.1232
17317W        W34164   5.798   4.497  11.062 -0.0127  0.4121 -0.2248
17318W        W34165   9.135   8.224   4.317 -0.1504  0.3874 -0.2323
17319W        W34166  19.822   3.868   1.518  0.3477  0.1990  0.2500
17320W        W34167   0.180   5.088   5.221 -0.0317 -0.0625 -0.2930
17321W        W34168  14.242  13.745   0.904 -0.2347 -0.0946  0.2099
17322W        W34169   0.454   5.363   9.341  0.2111 -0.0071  0.3175
17323W        W34170  12.535  10.194   3.918 -0.1394  0.0569 -0.1062
17324W        W34171   6.753  10.098  11.959 -0.0513  0.2484  0.1225
17325W        W34172  17.332  11.632  12.213 -0.2275  0.0051  0.3864
17326W        W34173  10.265   3.654   4.144 -0.0678  0.1674  0.0251
17327W        W34174   2.429  16.530   1.775  0.1293 -0.1845  0.0915
17328W        W34175  15.600  17.601   2.536  0.0274  0.0299  0.0258
17329W        W34176  16.566   8.369  13.736  0.2508  0.3078  0.1800
17330W        W34177   7.043   7.742  12.141  0.1319  0.0958  0.0570
17331W        W34178   1.720   8.336   1.479 -0.0002  0.2675  0.3838
17332W        W34179  10.804   9.682   1.768  0.0420  0.0870 -0.0458
17333W        W34180  10.499   7.237  11.979 -0.0864 -0.1669  0.0374
17334W        W34181   6.415   9.891  11.546  0.4032 -0.1792 -0.1542
17335W        W34182  16.317  16.081  13.838 -0.4356  0.3232 -0.2587
17336W        W34183  13.584  16.826   0.012  0.0304  0.1358  0.1785
17337W        W34184  11.698  11.196  13.489 -0.1822 -0.2988 -0.2144
17338W        W34185  10.030   9.097   2.679  0.2379 -0.5819  0.1527
17339W        W34186   7.544   8.399   3.735 -0.0844  0.0715 -0.1809
17340W        W34187   5.340   6.254  10.082 -0.0245 -0.2372  0.0365
17341W        W34188  11.198  15.960   3.856 -0.5236  0.0774 -0.1425
17342W        W34189  10.188   6.783  13.280 -0.2908 -0.2224  0.3635
17343W        W34190   1.267   6.460   3.142  0.0998 -0.1238  0.0481
17344W        W34191   0.484   3.915  12.136 -0.1508 -0.1531 -0.3556
17345W        W34192  13.143  15.053   0.151 -0.2246 -0.0486 -0.0051
17346W        W34193  10.684  11.087  10.748  0.0645  0.3343  0.0292
17347W        W34194   4.084  16.266   3.868 -0.1203 -0.0386 -0.2171
17348W        W34195  14.076   8.502  13.074 -0.1056  0.2634  0.2008
17349W        W34196   2.621  18.081   2.115 -0.2091 -0.1280 -0.3042
17350W        W34197  10.131   4.340  13.340  0.1149  0.0984 -0.0255
17351W        W34198  14.551  13.154  12.576 -0.0990  0.1752  0.0347
17352W        W34199  13.818   1.182   1.979  0.2063 -0.0134 -0.3145
17353W        W34200  11.992  15.768  12.141  0.1228  0.1415  0.2414
17354W        W34201  19.539   1.560  10.643  0.1144  0.2995  0.1858
17355W        W34202   9.804  14.137   4.139  0.2113  0.0901 -0.1699
17356W        W34203   8.971   8.680   8.906 -0.0745 -0.1924 -0.1706
17357W        W34204  14.449  13.871   1.320 -0.2248 -0.2439  0.2460
17358W        W34205   0.323   6.552  13.236 -0.2224 -0.3759 -0.3073
17359W        W34206  19.308   0.791   4.080 -0.0267  0.0814 -0.2354
17360W        W34207   5.227   6.651  13.474  0.3069  0.3225  0.3520
17361W        W34208  17.824  12.305  13.068 -0.2184 -0.0326 -0.2611
17362W        W34209  10.215  19.751  13.568  0.0466  0.2656  0.2585
17363W        W34210  18.078   1.065   1.833 -0.0287  0.2451 -0.2116
17364W        W34211   8.746   8.599   3.196  0.0095  0.0698 -0.0301
17365W        W34212  19.762  14.632   3.141 -0.3953  0.0264  0.3062
17366W        W34213  17.342  18.786  14.069  0.2320  0.1373  0.1489
17367W        W34214  13.439  19.519   3.274 -0.1347 -0.1394 -0.1325
17368W        W34215  10.444   8.839  11.358  0.0510  0.0955 -0.2731
17369W        W34216  14.789   9.957  12.565  0.1615 -0.0026 -0.1087
17370W        W34217  16.923   9.758   1.273  0.0805  0.0143  0.0461
17371W        W34218   8.732  13.669   2.868 -0.0409 -0.1821 -0.1763
17372W        W34219   8.909   2.747   0.620  0.0678 -0.0520  0.3500
17373W        W34220  18.296  17.008  11.270 -0.1836  0.0579  0.1004
17374W        W34221   8.886  15.398   0.691  0.3498 -0.1359  0.0732
17375W        W34222   3.268   9.049  10.165 -0.0925  0.0396 -0.0770
17376W        W34223   1.550   6.078  12.196  0.0359  0.0331 -0.0207
17377W        W34224  18.877  13.655   1.005  0.2710  0.1822 -0.0626
17378W        W34225   8.376  18.395   4.009  0.0526  0.2554 -0.2460
17379W        W34226  12.678  16.084  13.588 -0.0774 -0.2465 -0.0142
17380W        W34227  17.972   3.606   9.728 -0.0656 -0.4803  0.2508
17381W        W34228  17.737  11.322  13.073  0.3701  0.2004 -0.1000
17382W        W34229  18.522  13.575  11.661  0.2990 -0.1016  0.1990
17383W        W34230  13.475   2.798   3.338  0.2237 -0.2850 -0.1978
17384W        W34231  14.194  19.097  11.938  0.0790 -0.0993  0.0467
17385W        W34232  17.240   5.020   0.351 -0.0331 -0.0338  0.1737
17386W        W34233   9.924   7.772   3.499 -0.0492  0.0815 -0.2125
17387W        W34234  10.110   2.393   0.486  0.0988 -0.1684 -0.0720
17388W        W34235  12.800   7.630   4.466 -0.0321 -0.1245  0.0987
17389W        W34236   7.334  11.393   0.480 -0.3862  0.0255  0.1861
17390W        W34237   3.761   9.579   9.702 -0.0344  0.2737 -0.2183
17391W        W34238   0.163  13.260   0.821  0.0596  0.2475 -0.3390
17392W        W34239   5.971   1.665  10.080  0.1711 -0.1202 -0.0252
17393W        W34240  19.330   3.679   0.002  0.5138  0.2965 -0.2553
17394W        W34241   9.675  11.391  10.431 -0.5395 -0.1129 -0.1830
17395W        W34242   2.469  17.178   2.763  0.1323  0.1459  0.3886
17396W        W34243  16.298  18.314  10.932 -0.0512 -0.0750 -0.2497
17397W        W34244   9.476   1.588   9.996 -0.1716  0.1236  0.3669
17398W        W34245  17.799  16.587   4.600  0.0434 -0.1881 -0.0883
17399W        W34246  11.314  10.525  12.673 -0.0513 -0.2135  0.0371
17400W        W34247  12.080  19.305   3.224  0.0479  0.0922  0.0246
17401W        W34248   4.318   1.847  11.401 -0.2861  0.1267  0.1672
17402W        W34249  16.411  15.729   0.031 -0.4370 -0.0599 -0.1189
17403W        W34250  12.890  16.199   3.161  0.3133  0.2987  0.0380
17404W        W34251  12.305   2.407  12.362 -0.0438  0.1543 -0.0165
17405W        W34252   4.201   2.861   3.367  0.4831 -0.1957 -0.0532
17406W        W34253   6.221   9.985   9.649 -0.0629  0.1104  0.2244
17407W        W34254  12.646   5.023   0.732 -0.0285 -0.1775  0.0244
17408W        W34255   0.616  10.132  13.650 -0.0475  0.0628  0.0199
17409W        W34256   6.266   3.930  13.206  0.2273 -0.3751  0.2269
17410W        W34257   4.154   9.094  12.675 -0.3402 -0.0823 -0.2610
17411W        W34258   7.155  12.548  13.325  0.0662 -0.0552 -0.0898
17412W        W34259   0.670  19.867   0.820 -0.4692 -0.0616  0.2701
17413W        W34260   0.413   5.591   2.154  0.1769 -0.2313  0.1250
17414W        W34261  11.355   4.368   0.481 -0.1297  0.1080  0.1186
17415W        W34262  18.030   1.115   3.314  0.0522 -0.1835  0.0260
17416W        W34263   2.223  15.140  11.200  0.0555 -0.1331  0.0169
17417W        W34264   5.705  14.754   0.212  0.3145  0.4524 -0.1251
17418W        W34265   0.987  17.896  13.951  0.0218 -0.1878  0.2098
17419W        W34266   7.152  13.289  14.159 -0.1954  0.0815  0.0303
17420W        W34267   1.242   3.719  12.875  0.0295 -0.0573  0.0472
17421W        W34268  18.706  12.818  14.107 -0.1443 -0.0006 -0.3065
17422W        W34269   6.859  15.359   4.995 -0.2378  0.0323 -0.3927
17423W        W34270   7.587   4.976   2.650 -0.1190  0.3015 -0.0205
17424W        W34271   9.022  11.732  13.159 -0.4271 -0.0178 -0.2870
17425W        W34272  19.519   6.886   3.037 -0.2198  0.2072  0.5133
17426W        W34273  15.600  12.252  11.671  0.2519  0.2823 -0.2531
17427W        W34274   5.694   6.894   9.622 -0.0057  0.2574  0.0552
17428W        W34275   9.466   8.561   4.768  0.0665  0.0254 -0.0234
17429W        W34276  15.259   5.139   3.221 -0.2849  0.0806 -0.0475
17430W        W34277  10.703   2.100  12.481 -0.3094  0.0728 -0.2183
17431W        W34278  14.187   8.500   1.757  0.1487 -0.1953 -0.0205
17432W        W34279   3.572   8.784  11.496 -0.1178 -0.0218 -0.2854
17433W        W34280   5.058   7.639  13.736 -0.1129  0.0723  0.1559
17434W        W34281   5.992  13.976  11.929 -0.1507 -0.0411 -0.1860
17435W        W34282  17.927   4.121   0.107 -0.0282  0.0266 -0.2414
17436W        W34283  18.633   3.959   1.172  0.1620  0.0509  0.3907
17437W        W34284   1.994  18.628   1.305 -0.2025 -0.1238  0.1400
17438W        W34285   4.403  15.426   0.138  0.1229  0.0471  0.0710
17439W        W34286   8.334   1.399   2.604  0.0259 -0.1729  0.0926
17440W        W34287   6.566  17.473   9.560 -0.1650 -0.0025  0.0056
17441W        W34288   4.062   1.320  13.334 -0.1276 -0.1289  0.1316
17442W        W34289  12.859  19.261  11.085 -0.0533 -0.0954  0.1141
17443W        W34290  10.115   7.367  11.697 -0.0319  0.5987  0.0638
17444W        W34291   2.480  10.160  12.743  0.2058  0.1725  0.1129
17445W        W34292   1.690   6.689  12.058  0.2289  0.0697 -0.0641
17446W        W34293   9.207   7.082   9.995  0.3112  0.4232 -0.0186
17447W        W34294   4.200  16.016   2.735  0.1158  0.0171  0.0764
17448W        W34295   0.026  19.491  12.187 -0.0304  0.2214 -0.2589
17449W        W34296  17.479   5.295   1.962 -0.1120 -0.1137 -0.1129
17450W        W34297   9.912   6.190   5.152 -0.5851  0.1356 -0.1091
17451W        W34298   6.722  17.719   1.771  0.0545 -0.0904  0.2471
17452W        W34299  15.261   2.032   2.188 -0.1266 -0.0246  0.0406
17453W        W34300   7.189  14.041  12.211 -0.0917 -0.2648  0.1021
17454W        W34301   4.785   6.700   9.544 -0.1035 -0.1307  0.1889
17455W        W34302   9.682   9.541  13.155 -0.0097 -0.0512 -0.3958
17456W        W34303   3.795  10.461   2.566 -0.1856 -0.3186  0.1505
17457W        W34304   7.870  19.468  11.863 -0.1527 -0.1033  0.0146
17458W        W34305   4.911  10.228   0.247 -0.0058  0.0231  0.1433
17459W        W34306   2.077   1.746   0.748  0.1749  0.2602 -0.0351
17460W        W34307  18.353  10.472  11.135  0.1570  0.0554 -0.0428
17461W        W34308  14.364  16.495   1.685 -0.2582 -0.0177 -0.4091
17462W        W34309   6.454  13.034   1.932  0.0780 -0.1318 -0.0771
17463W        W34310  11.624  15.633   3.772  0.0062  0.0847 -0.3193
17464W        W34311  10.886  15.058   1.506  0.3204 -0.2386  0.0726
17465W        W34312   9.549  18.075  10.779 -0.0265  0.1320  0.1932
17466W        W34313   1.412  18.485  12.757 -0.1279  0.1438 -0.2085
17467W        W34314   6.607   5.547  13.978 -0.0511  0.1109  0.1237
17468W        W34315  13.032   2.309   4.116  0.1781 -0.0855  0.0930
17469W        W34316  16.159  13.972   1.341 -0.0792 -0.2333  0.1665
17470W        W34317   5.509   7.937   9.154 -0.0917 -0.1765  0.0056
17471W        W34318   5.850  15.447   1.413 -0.0631  0.0212 -0.3945
17472W        W34319  13.214   5.249   1.345  0.1490 -0.2054  0.1753
17473W        W34320  12.554  12.064   2.865  0.0770 -0.0030  0.1243
17474W        W34321   4.997   7.165  11.118  0.1471 -0.2634  0.2872
17475W        W34322   3.936  14.384  10.301 -0.1274  0.1154 -0.3330
17476W        W34323  12.940  13.837   3.588 -0.5318  0.2527 -0.2706
17477W        W34324   6.469  16.981   3.526 -0.1957  0.0500 -0.0231
17478W        W34325   1.097  15.107   4.584  0.2108  0.0192  0.3317
17479W        W34326   6.890  16.679   9.784 -0.0058  0.2443 -0.1634
17480W        W34327  12.985  16.358  10.351  0.0472 -0.0200 -0.4358
17481W        W34328  10.316   9.252  13.111 -0.0849 -0.1789  0.3786
17482W        W34329   1.590   2.786   1.072  0.2551 -0.2503  0.2845
17483W        W34330   4.456  11.685   2.639 -0.0042 -0.3165  0.0495
17484W        W34331  19.264  17.154   1.283 -0.2838 -0.3001  0.1106
17485W        W34332  19.739   8.462  14.111  0.0148 -0.1112 -0.0229
17486W        W34333  12.846   0.192   3.288  0.1348 -0.3741  0.2118
17487W        W34334  13.063  14.043   4.542 -0.0213 -0.0767  0.3983
17488W        W34335   4.641  18.932  10.894  0.0916  0.0755 -0.2992
17489W        W34336  15.280  19.286   0.814  0.0315  0.1332  0.1225
17490W        W34337   3.453  19.844   1.601 -0.4028  0.1550  0.0993
17491W        W34338   7.110   4.424   1.362 -0.3801 -0.2055 -0.0890
17492W        W34339  10.578   9.982  10.167 -0.0436  0.1512  0.3181
17493W        W34340   8.052  14.875   2.734  0.0483  0.0261 -0.0395
17494W        W34341  12.775  16.470  12.146 -0.2584  0.1723  0.1289
17495W        W34342  12.411  16.963   2.528 -0.0850  0.0830  0.0958
17496W        W34343   8.308  17.456  13.761  0.0713  0.0767  0.0843
17497W        W34344   0.872  19.197  11.682 -0.0127 -0.1479 -0.0212
17498W        W34345   5.995  12.642   4.624  0.0784 -0.2664  0.2250
17499W        W34346  17.308  16.868  11.597 -0.1209  0.0589 -0.2230
17500W        W34347  17.880   8.028  11.793  0.1382  0.0005  0.0820
17501W        W34348   2.383   9.262   2.618  0.3174  0.0567  0.3005
17502W        W34349   3.516  12.643   5.245  0.0233  0.2790 -0.1793
17503W        W34350  18.734  12.462  10.033 -0.2969 -0.0527  0.3319
17504W        W34351  11.099  16.132  10.743  0.0171 -0.1934  0.4643
17505W        W34352   0.804   1.195  10.929  0.0794 -0.0380  0.0148
17506W        W34353   9.381   9.872   3.938 -0.0569 -0.0727  0.1114
17507W        W34354   3.263  14.309   4.552  0.6794 -0.1020  0.1118
17508W        W34355  15.886   6.440   2.283  0.5081 -0.3809  0.3708
17509W        W34356   3.883  13.713   0.880 -0.0589 -0.1109 -0.1293
17510W        W34357   0.178   5.665  10.794 -0.1833 -0.1454 -0.3486
17511W        W34358   8.220   9.751  13.767 -0.2059 -0.1163 -0.2529
17512W        W34359  19.762  14.057   1.348 -0.1722 -0.1720 -0.0070
17513W        W34360   6.759   6.845  12.710 -0.2021 -0.0461  0.1986
17514W        W34361  14.414   5.156   2.601  0.0697  0.4571  0.3303
17515W        W34362  13.899  19.853  13.667 -0.0547  0.0290  0.2907
17516W        W34363  11.510   9.571  10.272 -0.2765  0.1840  0.1562
17517W        W34364  19.164  14.672  10.720  0.2568  0.1431 -0.0759
17518W        W34365  14.088   5.526   5.173 -0.1486  0.1748  0.0186
17519W        W34366  14.681  14.925   5.317 -0.0390  0.0906 -0.1911
17520W        W34367   9.709   6.230  12.645 -0.1237 -0.0884 -0.2588
17521W        W34368  15.525  12.305   3.042  0.3968 -0.1210  0.2450
17522W        W34369   7.891   9.708   2.705  0.1554 -0.3893 -0.1747
17523W        W34370  11.923  16.651   2.480 -0.1979 -0.4213 -0.0212
17524W        W34371  11.419   8.328   2.658  0.1516 -0.0812 -0.0023
17525W        W34372   5.496  11.043   5.071 -0.0664 -0.3593  0.3184
17526W        W34373   3.019   7.408   2.218 -0.3295  0.3492  0.0214
17527W        W34374  11.418   7.890   1.343  0.0452  0.1900  0.0599
17528W        W34375   0.794  11.387   2.033  0.1833  0.2437 -0.0304
17529W        W34376  12.755  17.305   0.240 -0.1956  0.0411  0.5740
17530W        W34377   3.138   3.715   9.186 -0.0936  0.1431 -0.0672
17531W        W34378  15.015   8.076   4.903 -0.0577  0.1717  0.3549
17532W        W34379  15.201   4.068   5.474  0.1915  0.1346  0.1526
17533W        W34380   0.823  17.671   2.553  0.0018  0.3173 -0.3445
17534W        W34381   2.205   2.949   0.477 -0.0900  0.1364  0.1256
17535W        W34382   5.786  13.613   0.690  0.2623  0.0205  0.2417
17536W        W34383   0.318  19.791  10.289 -0.0077 -0.2032 -0.1662
17537W        W34384  10.633  17.741   1.911  0.2896 -0.1719 -0.0108
17538W        W34385   7.938   4.768   2.318 -0.1491  0.2068 -0.1954
17539W        W34386  19.708   1.703   3.624 -0.3121  0.1278 -0.0225
17540W        W34387  16.087   8.062  11.470 -0.1292 -0.0227 -0.1969
17541W        W34388   8.952   3.992   0.518  0.2411  0.3331  0.1361
17542W        W34389  18.150   4.289  13.041 -0.2904  0.1117  0.0228
17543W        W34390  10.760   0.230  14.199 -0.0718 -0.0149 -0.1384
17544W        W34391  16.138   9.494   4.840 -0.0689 -0.3360  0.2623
17545W        W34392   0.513   6.777   2.679  0.2959  0.0402  0.0869
17546W        W34393  15.157   3.412  12.543  0.1015 -0.1423  0.0772
17547W        W34394   7.773  18.322  13.455  0.0434 -0.2725 -0.4356
17548W        W34395  12.351   5.962  13.314  0.1729 -0.1993  0.2227
17549W        W34396   0.944  15.195  10.075 -0.2519 -0.1165  0.0210
17550W        W34397  18.368  15.352  13.371 -0.1266  0.0995  0.1282
17551W        W34398  18.235  14.641   0.238 -0.1388  0.0003 -0.1969
17552W        W34399  14.313  13.341   0.090  0.1896  0.0535  0.1432
17553W        W34400  11.197  16.430   3.904 -0.0317  0.1142  0.2461
17554W        W34401   9.710   8.895   9.208  0.0992  0.0243  0.1811
17555W        W34402  17.930   1.035   4.592  0.3901  0.0740 -0.0635
17556W        W34403   8.777  10.732  10.564 -0.0832  0.0938 -0.2082
17557W        W34404  19.298  12.203  12.726  0.1245  0.0499  0.3501
17558W        W34405   4.401  14.124  13.337  0.2268  0.2977 -0.2433
17559W        W34406   2.606  19.866   0.847 -0.3213 -0.0727 -0.2612
17560W        W34407   8.093  16.158  12.509 -0.2609 -0.0391 -0.4697
17561W        W34408   1.068  11.584   1.697  0.0476 -0.1615  0.3214
17562W        W34409  16.588  14.278   0.605  0.1069 -0.0358 -0.0129
17563W        W34410   1.796   9.155  13.511  0.1581 -0.4486 -0.2197
17564W        W34411   8.596   3.770   1.541  0.1119  0.0302 -0.0711
17565W        W34412  10.483  19.060   3.480  0.2677 -0.1049  0.3502
17566W        W34413  14.366   4.825   0.753 -0.1039 -0.2617 -0.2005
17567W        W34414  14.725  16.714   2.150  0.0717  0.4569  0.3094
17568W        W34415   8.650  10.631  11.060  0.2067 -0.0276  0.2875
17569W        W34416  19.574   4.817   0.872 -0.2631 -0.1042  0.0393
17570W        W34417  19.620  19.830   5.048  0.1413 -0.0791 -0.2074
17571W        W34418  17.579  18.933  10.985 -0.2192 -0.1509  0.3949
17572W        W34419  16.205   4.655   5.508  0.0033 -0.0158  0.2713
17573W        W34420   3.870  11.561   1.489 -0.0589  0.1807 -0.2058
17574W        W34421  18.396   6.000   0.402 -0.2490  0.1195  0.0036
17575W        W34422   1.611  15.066   1.053  0.2580 -0.5496  0.1440
17576W        W34423   5.114  12.919   3.684 -0.4443 -0.0962 -0.0475
17577W        W34424   5.147   9.929   0.549  0.0679  0.0933 -0.0660
17578W        W34425  14.396  11.421   2.351 -0.0198 -0.1509  0.0393
17579W        W34426  12.339   5.032   3.542 -0.0338 -0.0565 -0.1611
17580W        W34427   7.473   3.167  12.931  0.0027  0.2471  0.2374
17581W        W34428  18.355   7.748   5.528 -0.0124 -0.1214  0.0870
17582W        W34429   5.433   6.154  11.336 -0.3415  0.1514 -0.0087
17583W        W34430  17.073   1.780   3.131  0.0375 -0.1790 -0.2226
17584W        W34431   6.450  19.618  10.110 -0.1726  0.1572  0.2335
17585W        W34432   9.944  11.516  13.694 -0.1461 -0.0085  0.0213
17586W        W34433   6.704   0.574   3.825  0.0608  0.1485 -0.3854
17587W        W34434   9.038   6.531   1.713  0.3848 -0.1578 -0.0323
17588W        W34435  12.421  19.250  13.520 -0.1356 -0.1867  0.1374
17589W        W34436   9.691   2.771  13.909  0.0364  0.2714  0.0713
17590W        W34437  15.085   9.133   4.881 -0.1745  0.1925  0.0697
17591W        W34438  14.780   4.382   4.815 -0.0248  0.0049 -0.0048
17592W        W34439   3.808   6.005  13.108  0.1801 -0.1208  0.1368
17593W        W34440   2.171  10.489  12.535 -0.1373  0.0327  0.0295
17594W        W34441  15.367  15.727   2.189 -0.1301  0.0578  0.0287
17595W        W34442  11.939  18.525   0.009 -0.0522 -0.0233  0.1828
17596W        W34443   5.201  15.220   2.455  0.3101  0.1074  0.1340
17597W        W34444   1.788   1.252  13.300  0.2084 -0.1804 -0.1144
17598W        W34445   8.162  15.889   1.906  0.0814  0.2987  0.2900
17599W        W34446   7.528   9.375   9.249  0.2656  0.2807  0.0586
17600W        W34447   0.790  12.143   0.526 -0.1044  0.0361 -0.0660
17601W        W34448  17.900   2.648   5.307  0.3409  0.1212 -0.1521
17602W        W34449  12.442  11.375   1.186 -0.1298  0.3648 -0.2786
17603W        W34450   2.329  17.649  13.376 -0.0744  0.3787  0.0846
17604W        W34451  19.277  16.595   1.264 -0.1616 -0.3463  0.0031
17605W        W34452  11.003   0.448  10.375 -0.4215  0.0944  0.0168
17606W        W34453  11.679   8.771  11.975  0.2110 -0.0915  0.1227
17607W        W34454  15.790   5.466  11.643 -0.0218 -0.2052 -0.1832
17608W        W34455  13.795   6.900   3.213  0.0573  0.0428  0.3216
17609W        W34456  17.246   8.796  13.467  0.2216 -0.2513 -0.2743
17610W        W34457  14.668   0.514   0.811 -0.1542 -0.2261  0.2115
17611W        W34458   8.067   9.006  10.804  0.1144 -0.3726 -0.0564
17612W        W34459   8.569   8.279  11.248 -0.0320 -0.0185  0.0313
17613W        W34460  10.351   1.672   1.863  0.1161  0.2662 -0.0639
17614W        W34461   5.321  11.521  13.977  0.0513 -0.3313  0.0897
17615W        W34462   5.376  18.974  12.544  0.2731 -0.2079 -0.2583
17616W        W34463  15.203   0.810   4.882 -0.4456  0.1532 -0.3871
17617W        W34464   6.000  18.847   9.350  0.1158 -0.3694  0.1125
17618W        W34465  19.745   5.576   8.711 -0.0156 -0.2878  0.1108
17619W        W34466   0.418  16.260   1.864  0.0833  0.0885  0.0188
17620W        W34467   6.777   4.119  11.201  0.2004 -0.0928  0.0905
17621W        W34468  11.280   9.328  13.870  0.0659 -0.2937  0.5383
17622W        W34469   1.385  12.897  14.256 -0.1325  0.0661  0.2015
17623W        W34470  12.269  18.197  12.959 -0.0449  0.0498  0.3900
17624W        W34471  12.785   0.951  14.164 -0.2763 -0.1073  0.0238
17625W        W34472  18.060  18.769  13.715  0.2022  0.3403 -0.1349
17626W        W34473  14.660   5.547   2.404 -0.0310 -0.1934  0.2385
17627W        W34474   5.977  10.785  11.817  0.1394 -0.2526 -0.0264
17628W        W34475   4.447   3.398   2.370  0.1596  0.3103 -0.2081
17629W        W34476   7.825   4.895   0.646 -0.2005  0.0701  0.1050
17630W        W34477  15.620  17.793  13.971 -0.0937 -0.2071 -0.1538
17631W        W34478   4.055   6.756   5.323 -0.1267 -0.0053 -0.2964
17632W        W34479   0.110  19.059   0.808  0.0235  0.1153 -0.2405
17633W        W34480   0.979   8.826   1.928  0.3537 -0.1324  0.1524
17634W        W34481  11.492   2.818   3.869 -0.0528  0.1432 -0.1674
17635W        W34482  19.290   6.744  13.455  0.1342  0.0510  0.0003
17636W        W34483  17.341   3.610  13.433 -0.4261  0.2005  0.1110
17637W        W34484  18.565   5.521   5.193  0.2811 -0.0369  0.3276
17638W        W34485   0.785  14.703   1.484 -0.1055 -0.1682 -0.0263
17639W        W34486  14.261  11.872  13.108  0.1168 -0.2436  0.3197
17640W        W34487   1.788   1.656   1.571 -0.1458  0.0362  0.1333
17641W        W34488  13.653  12.714   0.102  0.1831 -0.0167  0.1668
17642W        W34489  11.843   5.647  10.097 -0.4274 -0.4739  0.0604
17643W        W34490   8.633  14.205  13.551 -0.4079  0.2154 -0.0398
17644W        W34491  12.137  13.606  12.390  0.2388  0.1795 -0.2141
17645W        W34492  11.804  16.006  11.057 -0.1584  0.1380 -0.5748
17646W        W34493   3.364  10.338   0.952  0.2215  0.1729 -0.3311
17647W        W34494  11.454   5.639  13.938 -0.2827  0.1890  0.3611
17648W        W34495  11.631  13.600   0.474 -0.0014 -0.0361  0.0121
17649W        W34496  14.334   2.360  13.514  0.0918  0.0506 -0.0539
17650W        W34497  19.389   6.215   0.344 -0.1108 -0.0374  0.0544
17651W        W34498  12.693   7.539   2.684 -0.1498 -0.1387  0.0953
17652W        W34499  18.811  14.907   4.901 -0.4243 -0.3324  0.0769
17653W        W34500  12.297   6.951   3.550  0.2696  0.0882 -0.1816
17654W        W34501   7.750   6.009   3.849 -0.0929 -0.3464 -0.1757
17655W        W34502  12.136   8.817   2.447 -0.2709 -0.0652  0.0399
17656W        W34503   5.663   6.292   1.481 -0.2330 -0.0864  0.0027
17657W        W34504  14.023   3.969  14.296  0.0558  0.0471  0.3328
17658W        W34505   1.092   5.190   2.262  0.3953  0.1042  0.1770
17659W        W34506  10.791   3.046  10.154  0.0818 -0.2456 -0.4064
17660W        W34507   8.889  18.723   3.260  0.1023  0.2150  0.2375
17661W        W34508   3.260   6.395   0.527 -0.2431 -0.1653 -0.1250
17662W        W34509  15.619  18.487   2.515  0.0488 -0.3185 -0.2127
17663W        W34510   1.876  16.365  11.181 -0.2962  0.2186 -0.1704
17664W        W34511  15.067  19.602   0.469 -0.0451 -0.0544 -0.1528
17665W        W34512   3.009   0.303  11.831 -0.0233  0.1396 -0.0686
17666W        W34513  12.006  15.318  13.290 -0.1149 -0.1425  0.2393
17667W        W34514  17.658  19.914  10.851  0.1562  0.3337 -0.3133
17668W        W34515  18.121   6.714   3.035  0.2382  0.1153  0.1973
17669W        W34516  14.875  14.392   0.661 -0.3893 -0.0081  0.0976
17670W        W34517  15.306   4.538   3.381  0.0149  0.2114  0.1831
17671W        W34518   9.111   5.428   0.969 -0.1026 -0.0017  0.2376
17672W        W34519   1.377   5.058   1.906 -0.1370 -0.0871 -0.0231
17673W        W34520   1.640   1.684   3.369 -0.1028 -0.3149 -0.2667
17674W        W34521   3.162   8.230  11.884  0.0973  0.2120  0.0496
17675W        W34522   8.900   9.908   0.799 -0.0921 -0.3608 -0.0438
17676W        W34523  15.009  11.832   3.653 -0.3105  0.2238 -0.0503
17677W        W34524  12.144  16.230  13.908 -0.0239 -0.2892 -0.0839
17678W        W34525   8.704   9.564  13.044  0.0451  0.1546 -0.1894
17679W        W34526  16.038   8.543   3.156  0.0883 -0.2905 -0.1942
17680W        W34527  18.852  14.596  12.086 -0.0523  0.0402 -0.0025
17681W        W34528  17.888   0.069   2.841  0.1388  0.0529 -0.2242
17682W        W34529  18.894   7.015  13.272  0.1619 -0.1480  0.5128
17683W        W34530   6.074   3.796   1.101 -0.0886 -0.1011 -0.2834
17684W        W34531  14.204  19.500   1.098  0.0318  0.0782  0.4623
17685W        W34532   7.198  17.600   0.740  0.1087  0.0137 -0.2757
17686W        W34533  14.280  16.337  12.678 -0.3929  0.3262  0.4089
17687W        W34534   4.366  10.488   1.344  0.4677 -0.1440  0.0543
17688W        W34535   6.446   0.723  11.572  0.1536  0.2327  0.2247
17689W        W34536  14.859  17.667   1.746  0.0655 -0.1026  0.6108
17690W        W34537   9.118  12.040  12.255  0.0657  0.2643 -0.3400
17691W        W34538  10.972   0.489  12.238  0.1030  0.2779  0.2263
17692W        W34539   4.514   3.792  13.563 -0.0078 -0.0086 -0.1570
17693W        W34540   7.111  19.368  12.790 -0.0430 -0.0224  0.3063
17694W        W34541   3.464  12.897   3.788 -0.2012 -0.3019  0.0212
17695W        W34542  15.132  14.857   0.624  0.2843 -0.0868 -0.0186
17696W        W34543   3.278   2.965  14.150 -0.0966 -0.1347 -0.0545
17697W        W34544   8.112  19.544  14.014 -0.1075 -0.0365 -0.1049
17698W        W34545  11.651   9.521  14.108  0.1520 -0.1264 -0.2101
17699W        W34546  16.266   1.616  10.420 -0.1797 -0.1782  0.1132
17700W        W34547   9.369   5.291  10.588 -0.0071 -0.1277 -0.0138
17701W        W34548  13.843  12.391   0.469 -0.3007  0.4196 -0.1892
17702W        W34549   3.291   1.779  12.590  0.0218 -0.0447  0.2282
17703W        W34550  19.529  12.576  11.620 -0.2485  0.3853 -0.0223
17704W        W34551  10.288  16.539  12.490  0.0675  0.0322  0.0907
17705W        W34552  14.158  11.218   9.788 -0.0557  0.0669 -0.1976
17706W        W34553   5.441   2.229  11.689 -0.1326 -0.3448  0.2189
17707W        W34554  12.964   4.179  14.299 -0.1538  0.2935 -0.0738
17708W        W34555   3.332  10.198  12.897  0.0489 -0.1057 -0.1221
17709W        W34556  18.181   8.609   1.247 -0.4268 -0.2193  0.0112
17710W        W34557   3.498  18.397  13.783  0.0017 -0.0355 -0.0322
17711W        W34558  16.534  11.767   1.838  0.1367 -0.0579 -0.2768
17712W        W34559  14.880   4.660  13.564 -0.1626  0.1826  0.1371
17713W        W34560   7.445  19.518   9.452 -0.0444  0.0927 -0.2990
17714W        W34561  18.273   1.459   3.612  0.0233  0.1983 -0.1891
17715W        W34562  18.999   2.549   0.755 -0.0384  0.1339 -0.2948
17716W        W34563  19.554  13.205  10.892  0.1085  0.3279 -0.3403
17717W        W34564   2.903   8.129   3.618 -0.4006 -0.1504  0.0537
17718W        W34565  13.665   4.937   1.426  0.0795  0.0286  0.5119
17719W        W34566   2.859  17.246  10.979 -0.1948  0.0543 -0.1273
17720W        W34567   4.071  10.395  10.848 -0.4865  0.0891  0.0505
17721W        W34568  13.121  10.550  10.293 -0.0923 -0.0905  0.0299
17722W        W34569   9.323  15.204  11.976  0.1010  0.0061  0.3841
17723W        W34570  14.746  15.186   0.164  0.1486  0.0510  0.0427
17724W        W34571   1.145  16.437   0.900 -0.4572  0.1419  0.2235
17725W        W34572   1.398  11.998   8.255  0.1716  0.3287  0.0978
17726W        W34573   4.130  18.325   2.211 -0.1255  0.0995  0.0274
17727W        W34574  17.293   1.762   3.691  0.0913 -0.1417 -0.2064
17728W        W34575   9.603   5.673  14.012  0.0369 -0.0675 -0.0958
17729W        W34576  16.527  13.345   0.601  0.2344 -0.0538 -0.1112
17730W        W34577  18.282  18.378   1.602 -0.2201  0.0912 -0.0332
17731W        W34578  17.382   3.695  11.556  0.0242 -0.2740  0.0623
17732W        W34579   7.032   7.314  13.145  0.2865  0.2054 -0.1342
17733W        W34580  15.208   0.389  13.908  0.2270 -0.2459 -0.0304
17734W        W34581  18.151  11.223   0.251  0.1607 -0.0047  0.0255
17735W        W34582   3.483  17.971   0.351 -0.0689 -0.2648 -0.1255
17736W        W34583  19.572   7.254   2.617 -0.0847  0.1204 -0.2538
17737W        W34584  13.209  11.063   1.784  0.0316 -0.2362  0.0731
17738W        W34585   8.504  18.823  10.410 -0.2394 -0.0326  0.2877
17739W        W34586  19.524   5.599  12.881 -0.0290  0.0334  0.1508
17740W        W34587  11.569   7.487   1.670  0.1649 -0.3483 -0.2729
17741W        W34588  16.614  19.571   5.658  0.0433 -0.1291 -0.0818
17742W        W34589  16.772   4.711  13.401 -0.1916 -0.5184 -0.2217
17743W        W34590  19.080  16.231   3.239  0.2240  0.2276  0.0116
17744W        W34591   6.628  16.833  13.787  0.1229  0.2149  0.0870
17745W        W34592   1.798  16.598   2.816 -0.0803  0.0318 -0.2140
17746W        W34593  13.227  19.918   3.709 -0.4127  0.0808 -0.2393
17747W        W34594  13.013   3.974  12.649  0.1037  0.0788  0.2048
17748W        W34595  13.951   4.229   2.140  0.2512 -0.2262  0.0430
17749W        W34596   3.783   8.514  11.087  0.0243 -0.1434  0.0721
17750W        W34597   8.857  15.157   0.230 -0.0347  0.1035 -0.3563
17751W        W34598   7.092   1.860   3.387 -0.2048  0.0909 -0.0811
17752W        W34599   5.670   6.655  11.167  0.0644  0.3446  0.1751
17753W        W34600   4.698   8.793   2.219 -0.2497  0.0212 -0.2253
17754W        W34601   5.457  18.275   4.141 -0.0897  0.0147  0.3086
17755W        W34602   4.851   2.373   0.240 -0.1158 -0.2471 -0.0487
17756W        W34603  10.122  17.835   0.123 -0.0456  0.2952 -0.2289
17757W        W34604   3.666   5.174   4.582  0.1273 -0.1150 -0.2321
17758W        W34605   0.227   6.120  10.513  0.0768 -0.0324 -0.2599
17759W        W34606  14.885   7.373  12.181 -0.0368  0.1708  0.0820
17760W        W34607  16.008  15.204   3.502 -0.3203  0.0474 -0.0663
17761W        W34608  15.749  15.144  10.686 -0.1844  0.2532 -0.0612
17762W        W34609   1.044   6.496   1.135  0.0191 -0.0802 -0.1267
17763W        W34610  13.707  10.011   1.706  0.2348 -0.1614  0.4609
17764W        W34611   9.489   3.614  10.534  0.3906 -0.0949  0.2409
17765W        W34612   1.310  17.379  10.292  0.2105 -0.1435 -0.0255
17766W        W34613  11.214  14.699   3.659 -0.1351  0.2407 -0.3465
17767W        W34614  11.365   3.922   4.595  0.1126  0.3547 -0.1730
17768W        W34615  15.969  18.113  11.508  0.0537  0.0953 -0.0323
17769W        W34616   5.399  13.836  11.023 -0.5044  0.3332 -0.1299
17770W        W34617  13.559   3.542   2.703  0.1258  0.0803 -0.1120
17771W        W34618  17.826   4.892  12.055 -0.0602  0.5023 -0.0180
17772W        W34619   9.750   6.922   2.919  0.2756  0.0062  0.1608
17773W        W34620  17.653  11.210   3.887 -0.2779  0.0849 -0.4125
17774W        W34621  17.140  15.374   4.335  0.2121 -0.1976  0.0551
17775W        W34622  12.317   6.843   4.625 -0.1530 -0.0077 -0.4285
17776W        W34623  14.940  17.591   3.947  0.1249  0.3416 -0.2990
17777W        W34624   1.849   2.151  13.984  0.0980  0.1036 -0.1316
17778W        W34625   9.004   0.222  11.435 -0.2238  0.3096  0.2553
17779W        W34626   1.507   0.547   2.241  0.0537 -0.0108  0.4949
17780W        W34627   1.428  11.495  10.107  0.4769 -0.1335  0.0379
17781W        W34628   8.004   1.385   3.097 -0.1312  0.0050  0.0409
17782W        W34629   7.516   1.105   3.083  0.1225 -0.0370  0.1371
17783W        W34630   5.733   3.555  11.428  0.2890  0.2129  0.0880
17784W        W34631  18.301   7.397   2.846 -0.4341  0.2903  0.0516
17785W        W34632  17.178  15.454   2.709 -0.0961  0.3069  0.0455
17786W        W34633  17.132   0.925  11.858  0.1157 -0.0116  0.0630
17787W        W34634   5.090  13.208  12.937  0.0072 -0.2976  0.1510
17788W        W34635   3.986   3.169  10.428  0.4601  0.0957  0.0063
17789W        W34636   7.889   8.189  12.023  0.1467 -0.1903  0.0634
17790W        W34637   1.545   1.086  10.249  0.1069  0.1121  0.0067
17791W        W34638  14.229  17.806   4.143  0.1546  0.0620 -0.1598
17792W        W34639  16.092  11.685   4.434 -0.0619 -0.0845 -0.0633
17793W        W34640   6.406   1.119   2.475 -0.0101  0.0240 -0.0581
17794W        W34641  11.681   1.534  13.162 -0.0429  0.0450 -0.2417
17795W        W34642  19.083  11.313   0.003 -0.4025  0.0427 -0.0923
17796W        W34643  16.762   3.559   4.327 -0.3007  0.1190 -0.2343
17797W        W34644  18.902  10.670   0.822  0.1749  0.2432 -0.1537
17798W        W34645  10.011  12.512  13.377  0.0689  0.0791 -0.0033
17799W        W34646   9.717  18.719  12.539  0.0918  0.0121 -0.0567
17800W        W34647   5.642  16.525   2.585  0.0157  0.1216  0.0530
17801W        W34648  10.162  14.385  11.347  0.1316  0.0819 -0.0103
17802W        W34649   7.686  16.420  12.220 -0.1444  0.1833  0.1414
17803W        W34650   7.271   1.281  11.927  0.2085  0.1673 -0.0076
17804W        W34651   8.896  13.071  10.452 -0.1702  0.0014  0.0188
17805W        W34652   5.689  18.237   1.146 -0.2838 -0.2456 -0.1591
17806W        W34653  15.228  16.193   0.495 -0.0082 -0.1783  0.1257
17807W        W34654  18.004  11.887  13.253 -0.1780  0.1661  0.0718
17808W        W34655  11.315  12.840  12.126 -0.1913 -0.1090  0.0359
17809W        W34656  19.819  15.605   3.068  0.2956  0.4756 -0.2617
17810W        W34657   7.640  19.833   0.964  0.1442 -0.1418 -0.0157
17811W        W34658   5.930  11.400   0.408 -0.2481  0.0906  0.1943
17812W        W34659   0.742   0.914   1.171 -0.2590  0.2540 -0.2829
17813W        W34660   5.059  15.807   1.592 -0.3155  0.0320  0.0050
17814W        W34661  14.602   3.864   4.216  0.1555 -0.2395  0.1373
17815W        W34662   7.393  17.184   2.454 -0.3896  0.0808  0.3305
17816W        W34663   8.854  11.830   9.781  0.2619  0.1855  0.0967
17817W        W34664  17.580   0.452   0.630 -0.6404 -0.1276  0.3066
17818W        W34665   2.347  11.164  11.449 -0.2981  0.0139 -0.0309
17819W        W34666   1.598   8.247   0.582 -0.0997  0.0293  0.1389
17820W        W34667  19.267  12.620  12.963  0.0001  0.1744 -0.2756
17821W        W34668   1.420  10.844  10.084  0.0174 -0.0525 -0.0631
17822W        W34669   0.099  16.068   4.274  0.0377  0.1648 -0.4565
17823W        W34670  17.129   0.697   1.265 -0.2193 -0.1585  0.1245
17824W        W34671   5.699  16.740  12.055  0.0750 -0.1263 -0.2291
17825W        W34672   9.474  18.134   1.127 -0.1055 -0.1469  0.1572
17826W        W34673  18.981   4.772  11.938 -0.0567 -0.1208  0.0598
17827W        W34674   5.124  16.203   0.768  0.1767 -0.0024 -0.0685
17828W        W34675   1.983   1.216  10.587 -0.0482  0.3225 -0.1114
17829W        W34676  11.559   8.133   1.741  0.2807 -0.0629  0.0541
17830W        W34677   3.845   8.666   1.112 -0.0795  0.3676  0.2569
17831W        W34678   9.539   0.782   0.727 -0.0589  0.1479  0.3426
17832W        W34679  14.253  18.964  13.353  0.0098  0.0694 -0.0366
17833W        W34680   1.178  19.775   0.714 -0.2192  0.1530 -0.1547
17834W        W34681  17.782  18.773   3.402 -0.0907 -0.0317  0.0609
17835W        W34682   4.002  18.659   4.143 -0.1153  0.0653 -0.1884
17836W        W34683   2.969  17.021   4.013  0.3283 -0.0440  0.0758
17837W        W34684  18.255  19.366   2.147 -0.0461 -0.1821 -0.2084
17838W        W34685  15.783   3.113   0.317 -0.0744  0.1709 -0.1603
17839W        W34686  15.936  16.444  10.288 -0.2793 -0.1356 -0.0026
17840W        W34687  10.742  19.688  13.892  0.5724  0.2107  0.2381
17841W        W34688  13.173  11.809   0.470 -0.0516 -0.0384  0.1684
17842W        W34689  13.888  16.730  10.663 -0.1243  0.0118  0.0965
17843W        W34690  13.486   6.659   2.917  0.2985  0.1584 -0.2381
17844W        W34691   1.148   8.283   2.640 -0.1902 -0.2177  0.0824
17845W        W34692  10.777   2.626  11.463 -0.0198 -0.1424 -0.1369
17846W        W34693   1.742  13.615  10.222  0.1727 -0.1263  0.1667
17847W        W34694  18.593   9.088   4.176  0.1555  0.2117  0.0654
17848W        W34695   5.144  10.188   3.083 -0.1252  0.0202 -0.3319
17849W        W34696  14.939   1.067  10.528 -0.2709  0.0875 -0.2377
17850W        W34697   7.129   5.992   1.383 -0.2364  0.1810  0.1486
17851W        W34698   7.498   0.589   8.960 -0.1227  0.2160 -0.3397
17852W        W34699  16.899  13.933   1.470 -0.0905  0.0117 -0.0171
17853W        W34700   1.894  12.940   2.489 -0.1136 -0.1340 -0.2822
17854W        W34701  13.574  15.028   5.559 -0.2258 -0.2914  0.1394
17855W        W34702  12.552  18.507  12.212 -0.1604 -0.0635  0.6998
17856W        W34703  18.813   6.663   0.955 -0.1118  0.1097  0.1155
17857W        W34704  18.988   1.329   2.461  0.1836  0.0381 -0.3181
17858W        W34705   4.316  19.748   3.651 -0.0195  0.1913 -0.1142
17859W        W34706   7.671   0.613   2.396 -0.0953 -0.1971  0.2436
17860W        W34707  17.662  14.852  10.892  0.0110 -0.3722  0.1388
17861W        W34708  16.187   6.838  11.885 -0.1419 -0.0102  0.1699
17862W        W34709  15.889   2.889  10.772  0.0076 -0.1252  0.1407
17863W        W34710  13.225   1.930  12.234  0.0828 -0.0789  0.2944
17864W        W34711   4.431   4.733   1.206  0.1760 -0.0813 -0.3396
17865W        W34712  12.353   8.464  13.131  0.0305  0.1376 -0.0938
17866W        W34713  17.602   0.799  11.589 -0.5019  0.0202 -0.0634
17867W        W34714   2.044  11.597   4.357  0.3264 -0.2217  0.1188
17868W        W34715   0.895   2.490   4.180 -0.4390  0.0126 -0.0102
17869W        W34716   6.468   6.698  10.068 -0.0756 -0.3459 -0.1530
17870W        W34717   0.129   7.695   9.940  0.1091 -0.0328  0.2930
17871W        W34718  17.834  19.023   9.925 -0.0266 -0.0331 -0.1810
17872W        W34719   1.828  15.417  12.371 -0.1999  0.0054 -0.1100
17873W        W34720   8.898   9.585  12.103  0.2990 -0.2025 -0.4628
17874W        W34721   6.753  13.745  13.600 -0.1008  0.3365  0.0585
17875W        W34722  16.878   6.705   3.665  0.0287  0.2604 -0.3168
17876W        W34723  19.253  14.660  12.576 -0.0344 -0.2876  0.0897
17877W        W34724   6.719  18.186  11.896  0.0309  0.0431  0.1399
17878W        W34725   7.343   9.183  12.237  0.0209  0.0280 -0.1559
17879W        W34726   6.648   8.029  12.402 -0.1806 -0.0810  0.3398
17880W        W34727   0.620   5.229  10.826  0.1433 -0.5623 -0.2537
17881W        W34728  19.264  13.327   0.867 -0.0570  0.4166 -0.3530
17882W        W34729   8.086   6.604  11.692  0.0542 -0.1002 -0.3501
17883W        W34730   8.513  14.694   1.660 -0.2587  0.2169  0.0705
17884W        W34731  19.185   1.660  10.250 -0.0643  0.0370 -0.0559
17885W        W34732  19.077   4.432   4.348 -0.3579  0.3845 -0.0952
17886W        W34733  10.985  19.155  11.029 -0.0186  0.1283  0.0974
17887W        W34734  10.445   6.020   4.835  0.2328  0.0077  0.0904
17888W        W34735  11.615   7.247   3.692  0.1833 -0.0037  0.2864
17889W        W34736  12.146   9.836  11.731 -0.1936 -0.0289 -0.2360
17890W        W34737  16.600  17.069   1.683  0.0762  0.0963 -0.1363
17891W        W34738   3.199  15.823   3.586  0.1731 -0.1726  0.1707
17892W        W34739  13.300   9.350  11.109  0.2650  0.0521  0.0809
17893W        W34740   6.635  18.456   1.099 -0.0055  0.0149  0.1850
17894W        W34741   8.356   9.856   0.650 -0.1463  0.0437  0.1004
17895W        W34742   5.749   0.268  12.026  0.0954 -0.6337  0.2329
17896W        W34743  11.053   3.029  12.143 -0.1862  0.1739 -0.2020
17897W        W34744   8.904  11.070  10.969  0.0585 -0.1494 -0.1791
17898W        W34745  12.337  18.028   1.964 -0.2431 -0.0423 -0.0413
17899W        W34746   7.728   5.867  12.167 -0.0521 -0.1072  0.0936
17900W        W34747  11.090   6.301   4.383  0.1170 -0.1669 -0.1653
17901W        W34748  19.462   1.810   9.760 -0.0275  0.0691  0.0614
17902W        W34749  17.580   4.521  12.920 -0.1133 -0.1989  0.1134
17903W        W34750   3.099   5.420  11.713  0.0443 -0.4568  0.0978
17904W        W34751   1.604   9.692  12.870 -0.2060 -0.1774 -0.0489
17905W        W34752  14.215   0.439   1.100 -0.1221  0.1670  0.1935
17906W        W34753   5.200   0.449   9.737  0.1982  0.1604 -0.2713
17907W        W34754  15.068   4.513  11.182  0.2132  0.0455  0.2002
17908W        W34755  10.890   1.934   3.184 -0.0288  0.0609 -0.1503
17909W        W34756   5.698   9.497   3.792 -0.4430  0.1184  0.4044
17910W        W34757  18.722  14.094   1.807 -0.0194 -0.0140  0.0955
17911W        W34758   7.959  17.557  12.977 -0.0990 -0.0432  0.1059
17912W        W34759   1.555  11.729  11.106 -0.1328 -0.2846 -0.1264
17913W        W34760   4.832   3.965   1.674  0.3162  0.2871  0.0144
17914W        W34761  13.599   5.174  11.053  0.1949 -0.0828 -0.2151
17915W        W34762   1.232  17.538  11.695  0.2079  0.1230 -0.0240
17916W        W34763  10.911   1.558   0.971  0.0027  0.0324 -0.3858
17917W        W34764  15.698   1.273   2.578  0.0624 -0.2564 -0.0329
17918W        W34765   7.881  18.675  10.283 -0.0274  0.2211  0.2609
17919W        W34766  14.405   4.603   4.418 -0.0456  0.0805  0.2703
17920W        W34767  12.240   5.250   0.722  0.1596  0.0214 -0.0834
17921W        W34768   2.254   0.744  13.391 -0.0638  0.0043  0.0326
17922W        W34769   1.524   6.517   3.837  0.1168 -0.4390  0.1934
17923W        W34770   2.218   1.580  10.388 -0.0450 -0.0586 -0.0017
17924W        W34771  10.403  18.184  11.711 -0.2495 -0.1202 -0.1907
17925W        W34772   9.246  12.227  13.924  0.0123  0.1079  0.0605
17926W        W34773   0.828   8.651   2.773 -0.0525 -0.0402  0.1087
17927W        W34774   0.066   6.732  12.390  0.2531  0.0728 -0.3570
17928W        W34775  16.102  12.823  12.845 -0.3661  0.0970 -0.2063
17929W        W34776   1.085   3.745   2.749  0.1356 -0.2143  0.2023
17930W        W34777   1.247  11.214   3.717 -0.0222 -0.1884 -0.1814
17931W        W34778   0.062   6.947   2.805 -0.2362 -0.2609  0.3818
17932W        W34779  10.092  19.714   4.067 -0.3460 -0.0076  0.2229
17933W        W34780  16.954  18.583   5.177 -0.0358  0.0700 -0.1004
17934W        W34781  14.662  17.130   3.568 -0.0892 -0.3140  0.1040
17935W        W34782  11.121   9.441   0.562 -0.0705  0.0593 -0.0135
17936W        W34783   8.811  16.812  10.141 -0.0236  0.0603 -0.0429
17937W        W34784  14.283   4.705   3.869 -0.1882 -0.3004  0.1107
17938W        W34785  16.413   5.929  12.554 -0.2463  0.0511  0.0781
17939W        W34786  10.150   1.100   2.679 -0.1061 -0.2390  0.0571
17940W        W34787   6.524   6.364   2.068  0.1617 -0.0768  0.2962
17941W        W34788  18.758  18.381  13.520  0.0217 -0.2350  0.1019
17942W        W34789  13.656  11.446   0.444  0.1528 -0.3617 -0.3755
17943W        W34790  12.276  14.320   4.194 -0.0935 -0.1688  0.0555
17944W        W34791  18.366   5.518   0.073 -0.0905  0.2596  0.1579
17945W        W34792  18.112   6.200  13.478 -0.3861  0.0190  0.0257
17946W        W34793   8.044  16.567   3.237  0.0650 -0.1245 -0.1585
17947W        W34794   5.708   5.591  13.085  0.3509 -0.0932  0.2831
17948W        W34795   2.404   7.408   2.269 -0.1535 -0.0121 -0.4208
17949W        W34796   9.371   3.730  13.986  0.0751 -0.3251 -0.2431
17950W        W34797  14.573   4.225   3.846  0.1615 -0.2101  0.0513
17951W        W34798  16.569  10.587   2.487  0.0993 -0.1868  0.1201
17952W        W34799  18.528  17.334   1.535  0.2851 -0.1280 -0.0490
17953W        W34800   9.874   2.385   1.370 -0.2586  0.2234  0.1816
17954W        W34801   0.230   2.286  13.293 -0.0608 -0.1948 -0.0427
17955W        W34802   9.139  13.583   5.387  0.0979  0.1111  0.1992
17956W        W34803  10.807   0.076   0.795 -0.1286 -0.0602  0.0638
17957W        W34804   7.694  18.018   1.204 -0.0013  0.1195 -0.2063
17958W        W34805  16.203   7.634  11.660 -0.1649  0.4810  0.5549
17959W        W34806   0.654  12.342  13.958 -0.2763  0.1190  0.1202
17960W        W34807  19.127  10.273  13.670 -0.0366  0.1925  0.0196
17961W        W34808  14.833   6.582   4.809  0.0447 -0.0798  0.1189
17962W        W34809   6.316  10.433  11.759 -0.2339 -0.1301 -0.0286
17963W        W34810   7.543  12.771   3.329 -0.0048  0.3933  0.1684
17964W        W34811   2.930  16.140   3.160  0.0772 -0.2619  0.4816
17965W        W34812   4.409   9.744   2.705  0.0139 -0.0747  0.1381
17966W        W34813  14.220   7.550   2.200 -0.2680  0.1567 -0.0965
17967W        W34814  15.482  10.534  12.411  0.3088 -0.0753  0.0008
17968W        W34815   8.001  16.766  14.296 -0.5561  0.3533  0.0415
17969W        W34816  14.576   7.470   1.109 -0.0303  0.1204 -0.1782
17970W        W34817   4.474  18.529  11.617 -0.1147  0.0679  0.0562
17971W        W34818   1.041  10.087  12.238 -0.2320 -0.3602  0.2858
17972W        W34819  10.460   0.239   2.087  0.0978 -0.1355  0.2608
17973W        W34820   6.051   5.920   1.452 -0.0996 -0.0886  0.3466
17974W        W34821  14.054  10.035  14.162  0.3073  0.2209 -0.0898
17975W        W34822  10.447  13.268  14.167  0.1771  0.0641  0.0319
17976W        W34823   1.095   0.491   4.435  0.2658  0.1535  0.0692
17977W        W34824  19.899  15.297  11.819  0.1167 -0.0096 -0.2682
17978W        W34825   0.772   4.146   9.732  0.1502 -0.0159  0.3058
17979W        W34826   0.284  12.363  13.453  0.0451  0.0722 -0.0203
17980W        W34827  19.225  17.321   4.261  0.0362 -0.0118  0.0321
17981W        W34828   6.640  17.506  11.446 -0.0949 -0.0476  0.0504
17982W        W34829   7.021  17.333  10.933 -0.3041 -0.0884  0.1642
17983W        W34830  18.774   6.753   0.395  0.0387  0.1356  0.8132
17984W        W34831  17.690  16.409   2.741  0.5548  0.3170  0.0251
17985W        W34832   1.057  12.120   4.618 -0.0422  0.3017  0.3284
17986W        W34833   8.352  18.247   1.526 -0.0317 -0.1930 -0.0547
17987W        W34834   5.027   6.029  10.805 -0.3972  0.1189 -0.0367
17988W        W34835   6.880   5.352  13.338 -0.0101 -0.0136 -0.0773
17989W        W34836   5.055   1.983   1.879  0.1958  0.2007  0.0915
17990W        W34837   6.836  18.621  12.123 -0.0797 -0.0907 -0.2451
17991W        W34838   0.376  19.730  11.337 -0.3400 -0.3053 -0.2647
17992W        W34839   6.913  12.857  10.621 -0.0543 -0.2037 -0.1609
17993W        W34840   1.325   8.046  11.793 -0.1714 -0.1927 -0.0072
17994W        W34841  13.052   0.090  11.511 -0.0061 -0.0470  0.2716
17995W        W34842  17.180  12.973   4.975 -0.3043 -0.3103  0.3041
17996W        W34843  14.387   5.572   3.517  0.0462  0.1410 -0.0715
17997W        W34844   1.050  12.356   9.602 -0.3277  0.1195 -0.0317
17998W        W34845   6.543  11.754  12.368  0.0606  0.1294 -0.2123
17999W        W34846   2.887   8.498   2.140 -0.0233  0.0591 -0.3300
18000W        W34847   6.148  10.012  12.516 -0.0440  0.0677  0.4064
18001W        W34848  16.186  17.475  13.633  0.0409 -0.2398 -0.1021
18002W        W34849  14.242  19.196   1.972 -0.3777  0.0764 -0.2707
18003W        W34850   9.221  18.399  10.548  0.1248 -0.4894 -0.1525
18004W        W34851   8.903  12.904   1.299  0.0735 -0.0592  0.0944
18005W        W34852  11.686   7.522   2.884 -0.0524 -0.2425 -0.0532
18006W        W34853   2.635   5.163  11.682 -0.2286  0.0369  0.2759
18007W        W34854   3.914   1.043   0.174 -0.0458  0.1675 -0.2677
18008W        W34855  16.137   8.368   1.975 -0.1091 -0.2054 -0.0060
18009W        W34856  11.798  14.804  10.906 -0.0064  0.1281  0.0360
18010W        W34857   8.411   9.567   2.513  0.1599 -0.1244  0.2667
18011W        W34858   2.652   7.305  11.884  0.1146  0.0915  0.1033
18012W        W34859  11.478  19.735   4.023  0.1429  0.0618 -0.0758
18013W        W34860  13.783   2.612   2.164  0.0388 -0.0305 -0.0519
18014W        W34861  15.368  12.336  12.111  0.0335 -0.2458 -0.0599
18015W        W34862  19.008   6.186   2.487  0.1382 -0.0271  0.1070
18016W        W34863  16.874  12.786   4.542 -0.0654  0.0766  0.1094
18017W        W34864   6.577  17.060  12.330 -0.4001  0.1467  0.2212
18018W        W34865  14.124   0.177   3.175 -0.1239  0.2809 -0.2419
18019W        W34866  15.805  12.823   3.155 -0.1260  0.0369 -0.1332
18020W        W34867  15.154  18.426   2.877 -0.2404  0.0936  0.0728
18021W        W34868   4.104   3.508  13.458 -0.0892 -0.0881  0.2290
18022W        W34869   1.982  11.807   3.838  0.0935 -0.1480 -0.3425
18023W        W34870   6.063  13.292   2.016 -0.1045  0.1690  0.0337
18024W        W34871   2.220  10.600  12.073 -0.0449  0.1457  0.3230
18025W        W34872   1.450   8.722  12.362  0.1499 -0.0190  0.3867
18026W        W34873   0.597   3.368   0.381 -0.0172 -0.0571 -0.1328
18027W        W34874   7.793  10.918   3.008 -0.4342  0.2450 -0.4241
18028W        W34875  17.177  13.006   1.680  0.0291  0.0439 -0.0161
18029W        W34876   1.369  18.308  11.452  0.1383 -0.3114  0.1953
18030W        W34877  18.729  17.660   1.872 -0.0643  0.0857  0.1527
18031W        W34878  10.136  11.709  12.029  0.1855 -0.2166  0.2586
18032W        W34879   2.506  19.516  10.281 -0.0335  0.2218 -0.1254
18033W        W34880   0.330  17.165   1.423 -0.0058  0.2859  0.0043
18034W        W34881   4.127   5.160   2.872 -0.0593 -0.0939 -0.0358
18035W        W34882  19.903   5.334   3.501  0.1915  0.3805  0.1292
18036W        W34883   1.226   5.501  11.931  0.1080 -0.0651  0.2433
18037W        W34884   0.500  15.990  10.068 -0.0273  0.1530  0.0064
18038W        W34885  17.345   7.265  11.919  0.0616  0.0388  0.0831
18039W        W34886   8.404   5.352   4.707  0.0832  0.0235 -0.0534
18040W        W34887  11.428  12.144  10.066 -0.1159  0.0877  0.0432
18041W        W34888   1.483  19.440  12.814 -0.0324 -0.1026  0.1196
18042W        W34889  10.534   9.928  11.292 -0.0560  0.2628 -0.2763
18043W        W34890   8.394   3.958   0.665  0.1079 -0.1299 -0.2861
18044W        W34891   5.122   7.604  13.242  0.2806  0.2558  0.1535
18045W        W34892   9.823   8.443  10.444  0.1744 -0.0933 -0.1218
18046W        W34893   5.087   2.101   2.808 -0.1448 -0.2406 -0.3225
18047W        W34894  10.893  14.952  12.778 -0.1506  0.3827  0.2340
18048W        W34895   8.504  17.620  11.846 -0.0629 -0.2614 -0.0267
18049W        W34896   3.269   8.892  13.661  0.2763  0.0493 -0.1633
18050W        W34897   3.428   5.124  12.563  0.0630  0.1421  0.3077
18051W        W34898  15.265  13.869   3.756  0.0517  0.0957 -0.0565
18052W        W34899   5.505  10.826   1.803 -0.0039 -0.1440  0.0551
18053W        W34900   4.606  11.743  10.332 -0.0477  0.0704  0.0582
18054W        W34901   3.575  10.677   3.868  0.0663  0.1608 -0.2114
18055W        W34902  17.347  16.637   3.774  0.0321 -0.0346 -0.1689
18056W        W34903  12.746  17.934  13.353  0.0519 -0.1712  0.0962
18057W        W34904   4.773   2.992  11.393 -0.0368  0.0386  0.0111
18058W        W34905  16.489  16.309   2.114 -0.0953 -0.0709  0.1979
18059W        W34906  10.299   3.416  12.188 -0.2398  0.4835 -0.0329
18060W        W34907  17.765   8.130   9.432  0.1987  0.0132  0.2392
18061W        W34908  19.732  12.302  13.320  0.0071 -0.3408 -0.0234
18062W        W34909   5.930  12.466   9.653 -0.0402 -0.1662  0.1125
18063W        W34910  17.583   0.167  10.360 -0.0487 -0.2450 -0.0104
18064W        W34911   7.176  18.895   3.571 -0.0136  0.3056  0.0256
18065W        W34912  12.688   0.203   5.047 -0.2051  0.0603 -0.1894
18066W        W34913   2.455   5.900   4.052 -0.0708  0.2191 -0.4289
18067W        W34914   8.577   1.980   0.265  0.0340 -0.1623  0.2396
18068W        W34915  14.188  13.117   5.409 -0.3733 -0.0200  0.3134
18069W        W34916   4.313  12.941  13.130  0.0031  0.0062 -0.1056
18070W        W34917   3.654   1.220   3.945 -0.0534 -0.0803  0.0387
18071W        W34918  19.618   1.103  12.667 -0.3445 -0.0320 -0.1892
18072W        W34919  19.473  14.621   2.207 -0.1471  0.0762  0.1483
18073W        W34920  19.236  15.119  10.496  0.0045 -0.0155  0.2394
18074W        W34921  17.049   6.768   1.923  0.4937 -0.0937 -0.1600
18075W        W34922  10.546  13.601   3.921 -0.0001  0.0633  0.1774
18076W        W34923   5.225  15.203  13.987 -0.0105  0.0700 -0.2572
18077W        W34924  15.845   9.337   0.702 -0.3690 -0.3339  0.1841
18078W        W34925  13.034  15.930   2.330 -0.1086 -0.0282 -0.0773
18079W        W34926  11.327   8.235   2.159 -0.1583  0.0503 -0.0443
18080W        W34927  10.828  13.079  13.208  0.1021  0.0312 -0.1647
18081W        W34928   6.118  10.882   3.931 -0.0892 -0.2340  0.2672
18082W        W34929  13.512  11.490  10.506 -0.3409 -0.2822  0.2500
18083W        W34930  14.933  16.043   2.588 -0.0769  0.0308  0.1452
18084W        W34931  16.740   2.281   4.938  0.0252 -0.0984  0.0446
18085W        W34932   7.686   9.383   2.423 -0.1124  0.1789 -0.0374
18086W        W34933   6.906   8.501  10.396 -0.3001 -0.4325  0.0975
18087W        W34934  15.351  13.355   3.846  0.0237  0.0563  0.2701
18088W        W34935   5.134  18.599   4.218 -0.1990  0.0200  0.0605
18089W        W34936   1.740  12.048   1.828 -0.1998  0.1526  0.2282
18090W        W34937   8.455  17.988  10.871  0.1361  0.0997  0.1023
18091W        W34938  16.554  18.030   1.029 -0.0560 -0.2703  0.4865
18092W        W34939   7.516  13.367  10.199 -0.0642  0.0800  0.0158
18093W        W34940   5.644   2.220  10.714 -0.0018  0.1071  0.4710
18094W        W34941  15.511  16.890  13.187  0.3381 -0.3603 -0.4909
18095W        W34942   6.186   8.951   2.776  0.0954 -0.1488  0.1766
18096W        W34943   9.727  13.907  12.158  0.2371  0.0113  0.3968
18097W        W34944  17.181   7.631   0.843  0.0562  0.0213 -0.0700
18098W        W34945  10.842  14.761  11.861  0.2379  0.0508  0.1481
18099W        W34946   9.747   0.874   0.262 -0.1886 -0.0640  0.1322
18100W        W34947   1.430  17.450   4.089  0.0499  0.2797  0.1358
18101W        W34948   1.277   8.953   0.475 -0.1424  0.0263  0.0648
18102W        W34949  13.128   4.651  11.654  0.3225  0.0901 -0.2090
18103W        W34950   0.182   1.745  11.287 -0.0490 -0.0496  0.4430
18104W        W34951   7.747  13.291  13.391  0.2893  0.0096 -0.1351
18105W        W34952   3.936   5.501   3.163 -0.2270  0.1219 -0.0222
18106W        W34953   8.161   1.913   1.008 -0.0154  0.2048  0.0108
18107W        W34954  11.331  12.686  12.898  0.0095 -0.2104 -0.1289
18108W        W34955   2.557  16.160  10.214 -0.0636  0.0527  0.0799
18109W        W34956   7.763  19.133   3.905  0.1652  0.2516  0.1854
18110W        W34957  10.550   0.380  10.554  0.2103  0.0926  0.3173
18111W        W34958   1.488   5.974  13.209  0.3474  0.1831  0.1767
18112W        W34959  14.523   2.872   0.607  0.2962  0.1538 -0.0415
18113W        W34960   4.486   1.590  13.482 -0.0474 -0.0514  0.2199
18114W        W34961   3.772  13.437   2.603  0.2386  0.1083 -0.0125
18115W        W34962  15.535   3.552   4.847 -0.2878  0.1925  0.1834
18116W        W34963   5.223  17.733   3.042  0.1073 -0.6158 -0.3308
18117W        W34964   9.450  11.661   2.241 -0.0124  0.0769 -0.0002
18118W        W34965   7.592   0.105  11.246 -0.1424 -0.1397  0.0190
18119W        W34966   7.842  17.176  11.882 -0.0936 -0.0582 -0.3135
18120W        W34967  13.135  11.418  12.202 -0.3646 -0.0288  0.2884
18121W        W34968  12.340  18.404  13.422  0.1055 -0.0070  0.1831
18122W        W34969  11.222  15.128  10.126  0.2046  0.2114 -0.0728
18123W        W34970  15.265  17.514   5.136 -0.0359 -0.2801 -0.1816
18124W        W34971   7.562   7.190   5.185 -0.3365  0.1441 -0.1461
18125W        W34972  11.058   6.828   4.712  0.1468 -0.2134  0.0671
18126W        W34973   0.576  14.858   4.346 -0.1105  0.0494  0.3685
18127W        W34974  17.050  14.888   0.291 -0.0447  0.1548 -0.1116
18128W        W34975  13.349  11.343  10.933 -0.0168  0.3466  0.1262
18129W        W34976  19.360   1.451  11.927 -0.0304  0.2166 -0.0076
18130W        W34977   3.781   6.404   4.022 -0.0244 -0.0469  0.3616
18131W        W34978   5.501  15.663   0.660 -0.1015  0.2357  0.1498
18132W        W34979  15.999   2.036   1.625  0.1119 -0.0582  0.1077
18133W        W34980   3.913  11.666  12.176  0.1837  0.2170 -0.1926
18134W        W34981  11.476  16.500  13.717  0.2384 -0.1505 -0.1693
18135W        W34982   1.756   9.491   0.089 -0.1179 -0.0083  0.1010
18136W        W34983   2.156  19.235   3.442 -0.2996  0.2019 -0.0894
18137W        W34984   8.965  10.817   9.273 -0.1063 -0.2175 -0.0973
18138W        W34985  17.775   0.725   3.499 -0.2202  0.0657  0.0778
18139W        W34986   7.556   0.671   4.097  0.1194  0.1076  0.1618
18140W        W34987  18.542   6.006  13.675 -0.0168  0.0453  0.0400
18141W        W34988   7.410  16.487  11.774  0.2695  0.0551 -0.2802
18142W        W34989  10.199   5.483   0.476  0.1186  0.0161  0.0848
18143W        W34990   3.830   2.143   2.938 -0.3708  0.2021  0.3022
18144W        W34991   4.262  17.383   3.428  0.1775 -0.1986 -0.6952
18145W        W34992  14.267  16.546   3.706 -0.0506 -0.0859 -0.0773
18146W        W34993   9.619  13.553   0.990 -0.2250 -0.0152 -0.2093
18147W        W34994  18.958  18.199  12.540 -0.2819  0.3707  0.0111
18148W        W34995   9.118  12.564  14.302 -0.0303 -0.0383 -0.2008
18149W        W34996   3.708   8.436  13.652 -0.0330 -0.0618  0.1104
18150W        W34997  14.040  10.689   1.861  0.0390 -0.0019 -0.2804
18151W        W34998   5.327   3.058   0.740  0.1079  0.2185  0.1639
18152W        W34999  10.092   7.810   0.120 -0.0706  0.1222  0.0439
18153W        W35000   9.387   1.445   1.208  0.3227  0.0269  0.0278
18154W        W35001  16.597  13.227  13.070 -0.0407  0.0389  0.2418
18155W        W35002   4.156  18.051  11.704 -0.4214  0.3528 -0.0370
18156W        W35003  17.618  19.763   3.846 -0.0527 -0.0773  0.1342
18157W        W35004  15.362  16.482   4.655  0.4885  0.0912  0.0062
18158W        W35005  13.945  18.658  10.614 -0.2105 -0.0941  0.0807
18159W        W35006   9.680  15.566   1.619  0.0800  0.3416 -0.2699
18160W        W35007  17.217   1.292   2.022 -0.2243  0.1087 -0.2013
18161W        W35008   5.520   8.498  14.307  0.1271 -0.1593  0.1008
18162W        W35009  12.412  17.169   5.178  0.0617 -0.1802  0.0417
18163W        W35010  19.887  10.767   3.780  0.1770 -0.0955 -0.0105
18164W        W35011  14.623  19.088  11.602 -0.1014 -0.0608 -0.0165
18165W        W35012  18.919  13.441  13.880 -0.2278  0.1755 -0.1231
18166W        W35013  19.794  18.454   1.818 -0.1925  0.0822  0.1974
18167W        W35014  13.538  15.183   5.079  0.0828 -0.0979  0.0995
18168W        W35015   4.740  14.451  13.911  0.1951 -0.0189  0.1284
18169W        W35016   4.694   7.486   1.709  0.0871 -0.2235  0.0185
18170W        W35017   2.164  12.350   1.334  0.1632 -0.0598 -0.1274
18171W        W35018   3.841   0.456   2.370  0.0430  0.0274  0.3050
18172W        W35019  17.068   8.986   5.488  0.0574  0.1801  0.3036
18173W        W35020   9.693  13.428  12.826  0.0866  0.3174 -0.1322
18174W        W35021  11.262   0.179   1.054  0.2069  0.0206  0.2059
18175W        W35022   8.905   0.475   0.151  0.1055 -0.0295 -0.1620
18176W        W35023   6.442  10.856  11.515  0.3148  0.0284 -0.0106
18177W        W35024   6.138   1.662   1.723 -0.1259 -0.2436  0.0079
18178W        W35025  11.729  13.024  12.486  0.2851  0.2752 -0.0815
18179W        W35026   1.313  10.136   1.267 -0.1454 -0.2560  0.2217
18180W        W35027  16.769  16.002  14.156  0.1816 -0.0742 -0.3494
18181W        W35028  11.196   9.758   3.687  0.1672  0.2401  0.0919
18182W        W35029   1.207   5.044   9.719  0.0478  0.3340  0.1967
18183W        W35030   8.168  18.889   1.171 -0.0078  0.1174 -0.0529
18184W        W35031   3.436  18.587   1.669 -0.1673  0.0708  0.0339
18185W        W35032  11.545   2.374  13.864 -0.0830 -0.1473  0.3711
18186W        W35033   3.860  11.988  14.198 -0.2458  0.2789  0.1716
18187W        W35034  13.466   2.104   2.842 -0.0536  0.2666 -0.0507
18188W        W35035   3.067  11.115   0.687 -0.1873  0.0417 -0.1816
18189W        W35036  13.000  12.381  12.124  0.0275 -0.1707  0.2679
18190W        W35037  17.436   8.171   2.147  0.0007 -0.0963 -0.0775
18191W        W35038   2.291  12.919   4.364  0.0069 -0.0306  0.1847
18192W        W35039   6.714  10.742  12.750 -0.2709 -0.0476 -0.0467
18193W        W35040  10.088  16.872   3.367 -0.0485 -0.3919 -0.1403
18194W        W35041  18.783  13.169  11.409 -0.1732  0.3168 -0.0355
18195W        W35042   6.195  15.564  13.110 -0.1661  0.2232 -0.0100
18196W        W35043  19.414  10.160   2.878 -0.1948 -0.1506 -0.0245
18197W        W35044   0.845   3.401   3.204  0.0469 -0.3671 -0.1327
18198W        W35045   6.930   3.423  13.945 -0.1327  0.1154  0.0281
18199W        W35046   8.333  11.831   0.338 -0.2004 -0.2226  0.1104
18200W        W35047   3.592   0.118   4.192 -0.2873  0.0608  0.0208
18201W        W35048  11.452   9.701   9.799  0.2358  0.0662 -0.3303
18202W        W35049   2.183  11.041  11.013  0.1849  0.0259  0.0115
18203W        W35050  19.340  10.660   2.788  0.1397  0.1198 -0.1865
18204W        W35051   8.955  18.881  13.617 -0.2455  0.3423 -0.2931
18205W        W35052   8.351   3.827   2.961 -0.2391 -0.4647 -0.0343
18206W        W35053   0.057  12.356  12.284  0.0297 -0.2635 -0.0498
18207W        W35054   3.198   5.406  11.157 -0.4171  0.1277 -0.0316
18208W        W35055   6.637   1.407   4.341 -0.5062 -0.3381 -0.1605
18209W        W35056  18.493  15.946  12.447 -0.1670 -0.1259 -0.0964
18210W        W35057   2.046  15.917   9.482 -0.1019 -0.1561 -0.3272
18211W        W35058  16.102   2.801   1.541 -0.1072  0.2166  0.0548
18212W        W35059   4.177   2.479   1.981  0.1661  0.0316  0.1808
18213W        W35060  18.548   3.534  10.201 -0.2822 -0.0117 -0.2952
18214W        W35061  11.041   1.723  10.459 -0.0368 -0.3301  0.4544
18215W        W35062   7.807  13.894   2.209 -0.4291  0.0092  0.0697
18216W        W35063   3.123   9.669   3.689 -0.0192  0.0341 -0.1830
18217W        W35064   5.354  16.932   2.383  0.0924  0.0560  0.1044
18218W        W35065  13.232   5.679   2.670  0.2181  0.1911 -0.0727
18219W        W35066   5.845   1.782  13.557 -0.0544 -0.1417 -0.1498
18220W        W35067   2.329  13.261  12.912  0.2906 -0.0975 -0.1649
18221W        W35068  19.229   3.496   2.299  0.2332  0.3663  0.2085
18222W        W35069  18.058  16.961  10.840  0.2073  0.0256  0.1001
18223W        W35070   1.156   0.903  14.241  0.0519  0.2449  0.2535
18224W        W35071  18.737   4.658   5.161 -0.1999 -0.0356  0.0218
18225W        W35072   9.540  16.354  11.981  0.1867 -0.0402  0.0277
18226W        W35073   8.996  14.278   9.888  0.0251  0.0223 -0.4419
18227W        W35074   8.766  17.760   4.659 -0.1074  0.3156  0.3088
18228W        W35075  18.346  11.391   3.126 -0.0731 -0.1517 -0.0506
18229W        W35076   5.239   9.295   9.852  0.3547 -0.2224 -0.4576
18230W        W35077   2.655   4.559   0.867 -0.0152 -0.1672 -0.4122
18231W        W35078  17.194  16.857   0.071  0.3501  0.2978  0.0811
18232W        W35079   7.459   1.978   0.520 -0.0115 -0.1977  0.3898
18233W        W35080  10.047  18.285  12.713 -0.0089 -0.0226 -0.1364
18234W        W35081   2.878   8.951  11.144 -0.3010 -0.2794  0.0771
18235W        W35082   7.221   0.633   2.084  0.2965 -0.2070 -0.1099
18236W        W35083  19.344  16.909  10.263 -0.0307  0.2062  0.1819
18237W        W35084   5.742   8.885  13.982 -0.0593  0.2240  0.2757
18238W        W35085   5.787  18.117   2.326  0.3586  0.2355  0.2733
18239W        W35086   3.758   7.979  11.200  0.0374 -0.1932  0.2562
18240W        W35087  14.777  19.896  11.946 -0.0344 -0.1542 -0.0992
18241W        W35088  18.397   5.739   2.959  0.2993  0.0227  0.0154
18242W        W35089   0.922  18.386  10.508  0.2355 -0.3103  0.5487
18243W        W35090   5.673   7.635   0.660  0.0555 -0.1950 -0.0533
18244W        W35091   9.162  10.374   3.415 -0.0417  0.0327 -0.0866
18245W        W35092  13.220  13.211   0.109 -0.0092  0.1785  0.0997
18246W        W35093  13.644  12.709  12.245  0.0456  0.1974 -0.0844
18247W        W35094   4.305   3.915   2.579  0.3103  0.1583  0.3129
18248W        W35095  18.769  15.894   2.959  0.0411 -0.0873 -0.1834
18249W        W35096  12.041  13.637   4.465 -0.4942 -0.1908 -0.0266
18250W        W35097   0.646   9.979   2.047 -0.0089  0.3088 -0.0474
18251W        W35098  12.936  12.409   3.617  0.2367  0.0140 -0.1597
18252W        W35099   9.440   6.465  11.558  0.0427  0.1540  0.0055
18253W        W35100   7.024   5.621   4.419  0.0178 -0.1903 -0.2065
18254W        W35101   1.602  12.001   0.808  0.2808  0.0982 -0.0383
18255W        W35102   0.862  13.360   9.809 -0.3388 -0.1914 -0.2197
18256W        W35103  14.692  11.896   0.074 -0.0016 -0.2899 -0.0842
18257W        W35104   8.923   9.270   2.486 -0.2050  0.1039 -0.0930
18258W        W35105  16.480   7.332   3.277 -0.0684  0.0229  0.0778
18259W        W35106   3.345   8.462  13.973  0.1107  0.1177  0.2912
18260W        W35107   3.292   3.034  11.073  0.0546  0.0320 -0.2520
18261W        W35108   7.848   7.715  10.286  0.2095  0.3825  0.2523
18262W        W35109   9.759  10.917   3.540  0.1774  0.1080  0.0323
18263W        W35110   1.918   4.714   3.826 -0.2629  0.0517 -0.1609
18264W        W35111  11.523   4.228   0.987  0.3476  0.1382  0.0223
18265W        W35112  14.093   5.145  11.249  0.2977 -0.1397 -0.0099
18266W        W35113   6.365  11.305   0.685  0.3516 -0.1300  0.0202
18267W        W35114   6.884  15.827   9.970 -0.2583  0.6807  0.1272
18268W        W35115  16.699  10.442  11.851 -0.3356 -0.0029  0.1510
18269W        W35116  11.564  15.571  11.360  0.0917 -0.0944  0.2231
18270W        W35117   2.087  11.506  12.830  0.3055  0.0827  0.0410
18271W        W35118   5.375   6.035   0.936  0.2638  0.1523 -0.2254
18272W        W35119  15.427   6.897   3.519 -0.0275  0.2805  0.2351
18273W        W35120  14.145   9.412  13.379  0.0628 -0.5520  0.0082
18274W        W35121   7.670   9.720  11.247  0.2000  0.0158 -0.1008
18275W        W35122  10.951   3.712  11.388 -0.0573 -0.0548  0.0778
18276W        W35123   8.362  17.998   4.383 -0.1305 -0.0370 -0.0489
18277W        W35124   7.233  18.710   3.050  0.0078  0.0077 -0.0824
18278W        W35125   1.464  15.423   4.315  0.0185  0.2275 -0.1859
18279W        W35126   9.800  19.598  12.584  0.0330 -0.2490  0.2758
18280W        W35127  13.817   0.178  12.269  0.2645 -0.2283  0.1338
18281W        W35128   3.083   1.682  14.200 -0.0228 -0.0905  0.2988
18282W        W35129   3.612  18.690   9.947  0.1109  0.2101 -0.1998
18283W        W35130   2.633  13.789   3.621 -0.0944 -0.0947  0.0547
18284W        W35131   6.346   3.127  13.768  0.3287  0.1740  0.0585
18285W        W35132  13.817   4.801   3.111  0.1607  0.0655  0.2429
18286W        W35133  12.800  13.470  11.496  0.0127  0.0347  0.3101
18287W        W35134   4.266   1.570   1.944  0.0377  0.1401 -0.1422
18288W        W35135   4.312  15.785  12.503  0.0098 -0.0151 -0.0823
18289W        W35136  13.618   4.699   2.664 -0.1861 -0.1695  0.2957
18290W        W35137   7.051  17.470  12.977 -0.0504  0.0050  0.2080
18291W        W35138   3.047  13.391  10.277 -0.0278  0.0734 -0.0709
18292W        W35139  11.987  18.472  13.821  0.0483 -0.3434  0.0605
18293W        W35140   7.532  18.936  10.545 -0.0637 -0.0997 -0.1270
18294W        W35141  16.621   2.916   1.517  0.0522  0.1291  0.0609
18295W        W35142   7.483   8.481  10.268  0.1315  0.1826 -0.0989
18296W        W35143   1.227  17.342   2.211 -0.0028  0.0872 -0.1685
18297W        W35144   1.406  16.629   3.782 -0.4190  0.2686  0.1441
18298W        W35145  11.368  10.144   3.432 -0.3066  0.0861 -0.1420
18299W        W35146   8.249  10.662  13.798 -0.0711 -0.2599  0.0603
18300W        W35147   3.608   7.161   2.699  0.2040 -0.3100  0.1406
18301W        W35148  10.461  16.955   5.021  0.1205  0.1960  0.1132
18302W        W35149  18.823  19.772   1.417 -0.1210 -0.1260 -0.0216
18303W        W35150   4.699   5.013  11.906 -0.0953  0.0209  0.2477
18304W        W35151  11.215   3.845   0.249 -0.2470 -0.0187  0.0747
18305W        W35152  11.637   2.856  11.929  0.2065  0.0988 -0.0253
18306W        W35153  19.273  16.090   5.099  0.3494  0.6995 -0.1033
18307W        W35154  17.914   6.770   1.849  0.0000 -0.2393 -0.1198
18308W        W35155  14.700   7.111  13.199 -0.1539  0.0118 -0.4801
18309W        W35156   8.549  13.568  13.399  0.0598  0.4661 -0.1070
18310W        W35157  11.451   2.609   2.415 -0.2894  0.1248  0.0302
18311W        W35158   2.252  19.726  12.932 -0.1093  0.0511 -0.4836
18312W        W35159   6.333  19.297   3.745  0.2187 -0.1379  0.1602
18313W        W35160  17.624   8.067   5.514  0.3102  0.1603  0.1312
18314W        W35161   9.258  15.107   2.083  0.2227  0.2639  0.1892
18315W        W35162  17.392   8.741   3.058 -0.1418  0.0677  0.1376
18316W        W35163  13.305  18.340  12.426  0.5068  0.0431  0.0124
18317W        W35164   7.334   2.763   1.915  0.2315  0.0688 -0.0395
18318W        W35165   2.463  17.589   0.126  0.0356  0.1865 -0.0533
18319W        W35166  18.315  15.388   0.352 -0.0513 -0.1206  0.4409
18320W        W35167   6.013   7.447  11.748 -0.2769 -0.0538  0.0682
18321W        W35168  12.468   0.317  12.131  0.1504  0.3092  0.1905
18322W        W35169   8.359   4.975  13.960  0.0018 -0.0507  0.0080
18323W        W35170  17.730   9.661   4.467  0.1596 -0.0962 -0.3680
18324W        W35171   1.997  17.031   2.566  0.2450  0.3680 -0.3138
18325W        W35172  11.121  16.522  10.425  0.2051 -0.1562 -0.0213
18326W        W35173   6.276   9.689  12.906 -0.0729  0.2620  0.2400
18327W        W35174  17.124   4.907  12.032  0.0705  0.5453 -0.3480
18328W        W35175  16.026   1.256  13.973 -0.2881  0.1102 -0.5257
18329W        W35176   8.714   6.876  11.783 -0.1009  0.3036 -0.0121
18330W        W35177   1.863  12.624  10.199 -0.1607  0.1462 -0.0543
18331W        W35178   9.950   3.605   3.291  0.1622  0.0768  0.1998
18332W        W35179  13.684   8.090   4.716  0.1007  0.0497  0.1747
18333W        W35180  13.664  11.102   9.514 -0.0493  0.1674 -0.1997
18334W        W35181   3.524   2.599  10.936  0.2525  0.0742 -0.4796
18335W        W35182   8.390   2.990  11.610 -0.0592 -0.0534  0.1712
18336W        W35183   2.190  18.525  13.191 -0.1498  0.3896  0.1471
18337W        W35184   7.570  17.852  13.735  0.0387  0.1436 -0.2063
18338W        W35185  12.650  18.798  10.211  0.1894 -0.3835  0.3761
18339W        W35186   0.657   4.764   0.823 -0.2789  0.1891  0.0506
18340W        W35187   8.064   9.066   1.704 -0.0162 -0.0774  0.3553
18341W        W35188  10.146  15.951   2.463 -0.1527 -0.1656 -0.2085
18342W        W35189   2.959  13.121  12.124  0.0400 -0.0516 -0.0808
18343W        W35190   0.471  14.307   0.444  0.1404  0.1160  0.0273
18344W        W35191  17.120   8.897   0.692  0.0375  0.2733  0.1224
18345W        W35192   5.768   4.993  12.178 -0.1347 -0.0950  0.2001
18346W        W35193   1.692   8.002   1.094  0.1814  0.2740  0.0748
18347W        W35194   7.016   7.574  11.399 -0.0178  0.0626  0.1098
18348W        W35195   3.329  17.469  12.709 -0.0927 -0.1187  0.0279
18349W        W35196   8.593  10.157  11.101 -0.0451  0.3537 -0.0512
18350W        W35197   9.278  18.933  12.719  0.1432  0.0278  0.3460
18351W        W35198   6.680   8.814   4.576 -0.2766  0.3646 -0.3117
18352W        W35199  11.563  18.561   3.813  0.1752  0.3782 -0.0614
18353W        W35200  14.685  19.774  11.463  0.1437 -0.2048 -0.2654
18354W        W35201   7.375  14.054  13.527  0.1844  0.2302 -0.0161
18355W        W35202  12.918  15.336   8.975  0.1250 -0.2570 -0.0110
18356W        W35203   0.740   3.462  12.249  0.2393  0.0889 -0.1750
18357W        W35204  13.735   7.346  10.750 -0.1662 -0.0863 -0.2108
18358W        W35205  13.568  19.411  13.293 -0.2770 -0.2668 -0.0778
18359W        W35206   9.338   6.841   2.760  0.1784 -0.3052 -0.1749
18360W        W35207   2.392   5.848  10.352 -0.1202 -0.2318 -0.0112
18361W        W35208   6.660  13.165  12.462 -0.0296  0.0951 -0.0038
18362W        W35209  11.084   2.324   2.722 -0.0375  0.2085 -0.0104
18363W        W35210   9.211  14.086  13.467  0.1902 -0.0250  0.3282
18364W        W35211   5.634  16.569   2.029 -0.2579 -0.3170 -0.4234
18365W        W35212   1.738   7.393  10.456  0.0139 -0.2148  0.2303
18366W        W35213   8.074  14.878  14.016 -0.3754  0.2305 -0.3184
18367W        W35214  15.785   6.928   4.730 -0.1676 -0.3432  0.1082
18368W        W35215  10.268  10.107   0.189 -0.0290  0.3345  0.1455
18369W        W35216  18.798   4.795  13.669  0.4445  0.3313  0.2891
18370W        W35217  16.232  13.485   4.422  0.1333 -0.1253  0.3140
18371W        W35218   0.949  19.530   1.248 -0.1969  0.2298  0.0442
18372W        W35219   5.562   3.742   1.008 -0.0587 -0.0553 -0.0515
18373W        W35220  15.374  12.329   1.130 -0.0668  0.2928  0.2257
18374W        W35221  14.193  12.187   1.283  0.5008 -0.4016 -0.2260
18375W        W35222  15.819   5.796  13.734 -0.0031  0.2405  0.2997
18376W        W35223   1.205  10.375   3.196 -0.0277 -0.2123  0.1055
18377W        W35224   2.519  17.251   3.227 -0.1034  0.1118  0.1415
18378W        W35225  12.893   9.538   1.679 -0.0564 -0.0768  0.3217
18379W        W35226   8.844  14.622   1.108  0.1785  0.1566  0.1096
18380W        W35227  15.502  19.200   5.234 -0.0369 -0.0899 -0.0945
18381W        W35228  13.322  17.174   9.905  0.1920 -0.1823  0.2011
18382W        W35229  10.984  15.199   4.595  0.1058 -0.0367 -0.1080
18383W        W35230   1.391   0.941  12.840  0.0658 -0.1731  0.3060
18384W        W35231   0.125   3.167   1.088 -0.1202  0.0470  0.1442
18385W        W35232  12.232   2.407  12.868 -0.1334 -0.2577 -0.2128
18386W        W35233   7.452   9.114  13.096  0.2928 -0.0763 -0.0134
18387W        W35234  12.910   8.307  11.890 -0.2514 -0.0672 -0.1388
18388W        W35235   6.718  11.701   3.900  0.1530  0.0627 -0.1284
18389W        W35236   6.159   1.702   4.026 -0.1015 -0.0350  0.1369
18390W        W35237  17.544  13.476   0.509 -0.2258  0.0739 -0.0771
18391W        W35238  12.560  18.524   1.781 -0.1610 -0.0487  0.0980
18392W        W35239   4.304   1.177  14.117 -0.1869 -0.0008  0.0577
18393W        W35240   1.661   4.961  12.546 -0.2146  0.1878 -0.0105
18394W        W35241  12.105   4.224  13.599  0.1959 -0.2275 -0.1343
18395W        W35242  12.725   2.559  13.144 -0.1812 -0.1123 -0.0421
18396W        W35243   7.992  19.239   2.797  0.0657  0.0212  0.0449
18397W        W35244  16.529   1.483  11.185  0.0339  0.3252 -0.0419
18398W        W35245  12.016   5.988   2.684 -0.3939 -0.1824 -0.0581
18399W        W35246  17.815  10.207   4.532 -0.3566 -0.2738 -0.0136
18400W        W35247  10.420   6.127   9.326  0.0129 -0.1252 -0.0272
18401W        W35248   6.288   9.030   3.330  0.0566 -0.1867 -0.1823
18402W        W35249  12.521   6.541   2.538  0.0738 -0.1581 -0.0489
18403W        W35250   1.922  13.891   2.880  0.0305  0.1242  0.1388
18404W        W35251   8.311   5.951  12.176 -0.0604  0.3880 -0.0119
18405W        W35252  12.543   0.284  11.624 -0.5234 -0.1164  0.2794
18406W        W35253  10.695  19.916   3.438 -0.1476 -0.0258  0.0020
18407W        W35254  19.481  13.855  13.900  0.0697  0.0225  0.3086
18408W        W35255   7.918  15.783  12.886  0.0851 -0.6336 -0.1214
18409W        W35256   5.524   1.927   1.803 -0.0310 -0.1179  0.2538
18410W        W35257  11.677   3.535  13.287  0.1344 -0.3143  0.0781
18411W        W35258  10.406  17.211  13.909  0.1887 -0.2587 -0.1930
18412W        W35259  14.626  14.981   4.746 -0.3121  0.3748 -0.1916
18413W        W35260  16.005  14.280  13.463  0.2778 -0.3695 -0.0525
18414W        W35261   9.129   8.479  13.883  0.5249  0.2311 -0.1158
18415W        W35262   6.843  15.042   0.915  0.4209  0.0100 -0.4781
18416W        W35263   5.364   0.815   1.089 -0.0723  0.1282  0.1988
18417W        W35264   6.465  14.936   9.739  0.2806 -0.1713  0.0981
18418W        W35265  12.061   7.937  12.484 -0.2586  0.1195 -0.0147
18419W        W35266  19.226  11.830   0.875 -0.0529  0.0833 -0.2076
18420W        W35267   4.716  14.608  12.258  0.3075 -0.0183 -0.1174
18421W        W35268  19.323   0.321  10.038  0.1721  0.1401  0.1920
18422W        W35269   6.988   0.896   0.252  0.1327  0.0632 -0.1581
18423W        W35270  19.689  14.034  13.025  0.1435 -0.0767  0.1576
18424W        W35271   8.969  14.654  12.666 -0.2503  0.1575 -0.0090
18425W        W35272  13.927  18.429  11.063  0.1625  0.0454 -0.0845
18426W        W35273  18.286  13.511  12.838  0.1606  0.1368 -0.0739
18427W        W35274  17.813  13.058  11.053 -0.0991 -0.3558  0.2354
18428W        W35275   5.283  17.990   2.614 -0.3078  0.2255 -0.0485
18429W        W35276   0.427  15.792  10.710  0.1841  0.1865 -0.0638
18430W        W35277  15.722  19.717  13.680 -0.1076 -0.0666  0.0491
18431W        W35278   1.784   1.063   4.048 -0.1670 -0.4135 -0.2119
18432W        W35279  14.717   3.346  12.237  0.1301  0.1540 -0.0575
18433W        W35280  11.603   6.609   9.012 -0.2749  0.4145  0.1266
18434W        W35281   2.900   1.156   0.014  0.5924  0.0043 -0.2131
18435W        W35282  18.122   0.669   4.249 -0.2880 -0.1642 -0.1341
18436W        W35283   1.446   5.768  13.640 -0.1651 -0.0743 -0.0376
18437W        W35284   2.264  13.532   3.011  0.1110 -0.1047 -0.0101
18438W        W35285   2.198   1.484  13.105 -0.0903  0.1083  0.2036
18439W        W35286   8.592  13.850  12.213  0.3822 -0.0335  0.0358
18440W        W35287   1.114  11.607   3.412  0.0055 -0.2387  0.0337
18441W        W35288  18.488   3.593   1.916  0.0411 -0.1736 -0.0187
18442W        W35289   6.699  18.789   3.773 -0.0790 -0.0655 -0.0670
18443W        W35290   6.096   4.916  10.055 -0.0061  0.2585 -0.3552
18444W        W35291  13.400  19.445  10.246  0.1280  0.0072 -0.5051
18445W        W35292   6.186  19.036   2.817  0.0345 -0.0570  0.4132
18446W        W35293  15.275  19.800   0.882 -0.2883  0.2146  0.0237
18447W        W35294   1.317  19.765  12.475  0.2899 -0.0737  0.1297
18448W        W35295   4.231   9.514  14.305 -0.1812 -0.0724 -0.0357
18449W        W35296   0.038   4.550   0.141 -0.1270 -0.0759  0.1587
18450W        W35297  12.468  16.336   4.192 -0.2215 -0.2159 -0.1794
18451W        W35298   7.348   5.388  10.787  0.0567 -0.1058  0.1884
18452W        W35299  14.207   1.959  11.423 -0.0186 -0.3821 -0.5358
18453W        W35300   1.230  16.164  11.862 -0.0595 -0.2269 -0.1930
18454W        W35301  18.753   7.779  12.421 -0.2451  0.0408  0.1179
18455W        W35302   6.840   5.513   9.868 -0.0218 -0.1699  0.1440
18456W        W35303   6.277   0.232   2.113 -0.0743 -0.0086 -0.2042
18457W        W35304  12.361   9.280   2.279  0.0315  0.3093  0.0142
18458W        W35305   6.524   0.037   9.726 -0.1077  0.0660 -0.0700
18459W        W35306   5.679  16.291  13.514  0.2065  0.0924 -0.0024
18460W        W35307   5.338   3.566  13.296 -0.2088 -0.0926  0.0381
18461W        W35308   8.222   0.879   2.647 -0.5062 -0.0133 -0.2784
18462W        W35309  16.044  12.470  11.534  0.0215  0.0295 -0.0800
18463W        W35310   6.708   0.591  13.643 -0.0578  0.0020 -0.1019
18464W        W35311  12.452  12.585   2.599 -0.3116  0.0669  0.0986
18465W        W35312  14.562  19.279  14.148  0.0398 -0.2000  0.1415
18466W        W35313  13.316  12.738  11.311  0.2221  0.0520  0.0879
18467W        W35314   9.819   1.427  14.284 -0.0096 -0.2680  0.0673
18468W        W35315  19.490  10.174  11.869  0.1554  0.0320  0.0152
18469W        W35316  17.312   0.922  13.405  0.0222 -0.4638  0.1055
18470W        W35317   7.812   2.552   3.992  0.1228  0.3777 -0.1434
18471W        W35318  13.518   7.983   1.627  0.0488  0.2680 -0.0881
18472W        W35319  10.255  14.343  12.266 -0.1204 -0.0454 -0.2408
18473W        W35320   4.886   5.437  12.335 -0.0267  0.1481  0.2740
18474W        W35321   6.534   6.104  11.773 -0.0338  0.1534  0.0647
18475W        W35322   0.039   6.848  10.241  0.0724  0.1372  0.2243
18476W        W35323   1.538  13.657   2.711  0.2455 -0.0284  0.0981
18477W        W35324  15.804   1.796  11.735  0.0130  0.1789 -0.0291
18478W        W35325   6.686  13.823  11.453 -0.0135 -0.2177  0.1256
18479W        W35326   0.690  14.421  13.228  0.0691  0.3073  0.1085
18480W        W35327  17.909   1.426   0.204 -0.0983 -0.2347 -0.2860
18481W        W35328   5.539   0.053  12.612 -0.1770 -0.1675  0.5353
18482W        W35329   3.439  18.937  12.355 -0.0090 -0.1178 -0.0775
18483W        W35330   2.347   0.133   4.384 -0.2847 -0.0601  0.2606
18484W        W35331   8.503  12.093   4.032  0.0586 -0.2731  0.3525
18485W        W35332   0.271   8.189   9.784  0.1479 -0.2339 -0.0459
18486W        W35333  18.758  15.569   3.356  0.2079  0.2979 -0.2531
18487W        W35334   7.402  15.972   8.608 -0.1543 -0.2543 -0.0251
18488W        W35335  14.457   2.714   1.101  0.1036  0.2578  0.1868
18489W        W35336  17.852   6.997  10.426  0.0631 -0.2161  0.0724
18490W        W35337   3.050   3.683  12.706 -0.1070 -0.3944 -0.2230
18491W        W35338  12.552   4.179  11.889  0.2469  0.1810 -0.0713
18492W        W35339   7.242   1.431   1.906  0.1289 -0.0254  0.0833
18493W        W35340   9.262  17.191   1.612  0.1724  0.1190  0.0593
18494W        W35341  19.799  15.202   2.715 -0.1101  0.1455 -0.2766
18495W        W35342  19.606  11.476  12.294  0.0013  0.0227 -0.1055
18496W        W35343  13.809   2.005   3.803 -0.1719 -0.1147 -0.3164
18497W        W35344   1.152  10.204  13.635  0.1847  0.0737  0.0589
18498W        W35345  13.478  16.117   0.632  0.1880 -0.2070 -0.0382
18499W        W35346  11.357  16.706   2.391  0.0608 -0.0122  0.0671
18500W        W35347  16.381   5.586   1.541  0.1881 -0.2649  0.1689
18501W        W35348  14.436  11.423  13.461  0.0409  0.1369  0.0762
18502W        W35349  10.216  15.512   3.281  0.2662 -0.3747 -0.4747
18503W        W35350  14.527  11.829   3.790 -0.0469 -0.0667 -0.0955
18504W        W35351  11.508  14.739   4.306 -0.2466 -0.0015  0.1585
18505W        W35352  13.538  15.964  10.362  0.1930 -0.3552 -0.0688
18506W        W35353   8.750  11.241   0.375  0.1045  0.3574  0.0260
18507W        W35354   7.253  13.323  13.252 -0.1151  0.0157  0.1272
18508W        W35355  10.688   2.151  11.595 -0.0615  0.4348 -0.0134
18509W        W35356  18.039   2.968  14.238  0.0017 -0.2636 -0.1588
18510W        W35357  19.383   5.901   5.064  0.0390 -0.2335  0.1223
18511W        W35358   1.966   1.026  13.750 -0.0448 -0.2430 -0.0631
18512W        W35359  17.228  17.568  13.677 -0.0047  0.1156 -0.1744
18513W        W35360  16.461   9.883   4.613  0.0813 -0.1634 -0.1298
18514W        W35361   4.616  16.553   2.168 -0.0956  0.0909 -0.1817
18515W        W35362   7.135   8.097  10.133 -0.1661 -0.1764  0.0100
18516W        W35363  15.803  14.279  14.255  0.1913 -0.2383 -0.3282
18517W        W35364   9.641   2.270  13.795  0.0551  0.0204  0.3619
18518W        W35365  13.302  17.416   0.194  0.0962  0.0715 -0.0098
18519W        W35366  17.597   6.847  11.520  0.1275 -0.0862  0.0851
18520W        W35367  14.622   7.158  12.725 -0.0945  0.2948 -0.3844
18521W        W35368  14.877   6.873   4.182  0.2238  0.1988  0.1554
18522W        W35369  18.445  10.371  13.062  0.0659  0.2024  0.0586
18523W        W35370  14.307   6.398   2.719  0.0113  0.0253  0.1307
18524W        W35371  12.703  12.527   0.565  0.3751  0.1737  0.0651
18525W        W35372   9.392  12.551   4.009 -0.2334  0.1849 -0.3352
18526W        W35373   1.377   6.336   4.887 -0.0331 -0.0312  0.2345
18527W        W35374  18.823   7.375  12.887 -0.2990 -0.0847  0.1504
18528W        W35375  14.445   5.654  14.068  0.1736 -0.0428 -0.0235
18529W        W35376   2.755   7.418   3.091 -0.3872  0.1891 -0.0594
18530W        W35377  18.293  19.807  13.173  0.0327 -0.2017 -0.0316
18531W        W35378   0.980   4.167   3.626 -0.0270 -0.1317  0.0665
18532W        W35379   2.622  18.449   0.447 -0.0968  0.0272  0.0018
18533W        W35380   0.167  17.963   0.190 -0.3340 -0.1132 -0.2911
18534W        W35381  11.455  12.322   1.266  0.1269 -0.0691 -0.0983
18535W        W35382   0.198  19.544  13.395  0.0815 -0.3677 -0.0867
18536W        W35383   4.679   4.186  13.299 -0.0721  0.2922  0.1154
18537W        W35384   8.616  14.140   0.809 -0.2408 -0.2016  0.0897
18538W        W35385   4.549   0.504   0.925  0.0391  0.0073 -0.1049
18539W        W35386  10.450  11.765  11.316 -0.0909 -0.0120 -0.5846
18540W        W35387  11.709   6.572   1.063 -0.1809 -0.1175 -0.5260
18541W        W35388   2.352   6.099   1.421 -0.0566  0.2527  0.2801
18542W        W35389   5.600   4.864  12.623  0.1546  0.1446 -0.0062
18543W        W35390  18.408   5.008   1.948  0.2296 -0.0555 -0.2515
18544W        W35391  17.853  16.845   2.648  0.1996 -0.3858  0.1089
18545W        W35392   7.861   6.885  11.314 -0.1247 -0.1089 -0.0118
18546W        W35393   2.347   8.691  10.371  0.0627 -0.0449  0.0023
18547W        W35394  10.591   4.685   0.012 -0.0020  0.1809  0.2898
18548W        W35395  10.378  10.867   2.389 -0.1864 -0.1098 -0.0510
18549W        W35396   6.229   5.445  12.965 -0.4021 -0.1265 -0.0114
18550W        W35397   6.459  10.908   2.183 -0.1530 -0.0388 -0.2512
18551W        W35398   8.992  18.118   3.220 -0.3340 -0.4436  0.1207
18552W        W35399  11.025  15.396  12.146 -0.1362  0.0650 -0.1916
18553W        W35400   1.389   6.963   1.298  0.0555 -0.0342 -0.0919
18554W        W35401   7.771   4.025  10.781  0.0953  0.3558 -0.2382
18555W        W35402   3.534   1.437  11.206 -0.1081  0.2478  0.2004
18556W        W35403   2.476  12.701   1.564 -0.2556  0.2655 -0.1710
18557W        W35404  17.731   9.934  10.762  0.1321  0.0181 -0.1175
18558W        W35405  11.436   0.548  12.991  0.2151 -0.0988  0.4644
18559W        W35406   3.444  18.608   3.389  0.0684 -0.0516  0.0691
18560W        W35407  15.636  17.464   1.096 -0.0103 -0.5862 -0.1077
18561W        W35408   7.389  14.029   1.946  0.2965 -0.4385 -0.0372
18562W        W35409  17.272  15.658  10.970 -0.0473  0.2498  0.1989
18563W        W35410   9.124   0.123  12.049  0.0103  0.1381 -0.4271
18564W        W35411   3.824   3.908   0.240 -0.2346 -0.2133  0.2411
18565W        W35412   8.140  10.807  12.306 -0.0322 -0.0278  0.2786
18566W        W35413  17.658  15.239  11.785  0.2121 -0.0808 -0.0535
18567W        W35414   8.825  19.789   1.636 -0.1736 -0.2980  0.3303
18568W        W35415  14.841  11.259   3.584 -0.2356 -0.2875 -0.1617
18569W        W35416  15.056   1.627   0.831  0.1083 -0.4678  0.1124
18570W        W35417  17.538   3.127   0.930  0.0454  0.1226  0.0356
18571W        W35418   7.322  16.585  12.565  0.0634 -0.3069  0.3634
18572W        W35419   5.336  10.608   2.916  0.0197 -0.1230 -0.3008
18573W        W35420  16.762  11.271  13.292  0.0127  0.0417 -0.0781
18574W        W35421   2.124   0.064   3.950  0.2310  0.0991 -0.2178
18575W        W35422   1.578   2.882   5.562 -0.0435  0.2532 -0.0345
18576W        W35423  13.816   4.907   2.108 -0.2306  0.2162 -0.1436
18577W        W35424  18.694   0.918   2.430  0.0392 -0.2244 -0.1727
18578W        W35425  10.206   7.046  12.448 -0.0013 -0.0760  0.2131
18579W        W35426   4.698  10.130  12.019 -0.0757  0.1192 -0.0782
18580W        W35427  19.199  11.702  10.433 -0.0056 -0.1998 -0.0486
18581W        W35428  12.164   7.538   0.931 -0.4779 -0.1457  0.1958
18582W        W35429  15.468  10.067   4.765 -0.1971 -0.1892  0.4016
18583W        W35430   5.954   4.703   3.853  0.4286  0.1446 -0.2563
18584W        W35431   0.968   5.389  11.510  0.0090 -0.1463 -0.0969
18585W        W35432   3.472   8.181  10.276  0.0560  0.0362 -0.0623
18586W        W35433   3.833  17.109  11.720  0.3410  0.0426 -0.1507
18587W        W35434   4.999  11.735  13.423  0.1668 -0.0358 -0.3679
18588W        W35435   1.244   8.314   9.946  0.1179 -0.1306 -0.1490
18589W        W35436   3.330  14.732   9.842  0.4223 -0.0450  0.0281
18590W        W35437   4.868  12.534   3.852  0.1943 -0.0029 -0.0526
18591W        W35438   8.862  12.934   0.719  0.0563 -0.1897  0.3393
18592W        W35439   2.039   1.546  11.788  0.3460  0.1992  0.2380
18593W        W35440   2.802  17.439   0.502  0.2710 -0.1212 -0.0902
18594W        W35441  13.901  10.211  12.791 -0.0132  0.3346 -0.2083
18595W        W35442   1.936   6.012   4.177  0.0185  0.3862 -0.4862
18596W        W35443   2.479  19.543  13.322  0.4360 -0.2199  0.4886
18597W        W35444   3.826  12.441   3.116  0.0200  0.2468  0.0442
18598W        W35445   6.841   8.229   2.968 -0.1409  0.0774  0.1494
18599W        W35446   0.244   6.377  12.753  0.1854  0.0430 -0.0232
18600W        W35447   7.803   0.700   9.579 -0.1143  0.1125 -0.0531
18601W        W35448   1.341   9.540  13.731 -0.0689  0.4657 -0.0523
18602W        W35449  16.386  11.373  11.878  0.1246 -0.1684  0.0219
18603W        W35450  14.854  12.619   2.340 -0.4331 -0.1745 -0.4571
18604W        W35451  15.428  17.345   3.378 -0.0129 -0.1051  0.1817
18605W        W35452  10.781   9.001  10.211 -0.1364 -0.2350 -0.2519
18606W        W35453   4.020   2.845  11.695 -0.2842  0.1825  0.2324
18607W        W35454  19.222   1.302  10.963  0.1220 -0.3027  0.0061
18608W        W35455  17.746  14.033  11.715 -0.1298 -0.1644 -0.0270
18609W        W35456   4.174   0.395   1.531 -0.1087 -0.0385  0.1096
18610W        W35457   8.464   6.512   0.438 -0.0253  0.1366  0.1679
18611W        W35458   3.147  16.976   4.598  0.4208 -0.0788 -0.0038
18612W        W35459   3.369   7.768  10.965 -0.0113 -0.0197 -0.2268
18613W        W35460  19.463  18.884   3.872  0.2183 -0.0732  0.1349
18614W        W35461   0.405   9.558   9.664  0.2123  0.0092  0.1399
18615W        W35462   8.362   3.008   0.375 -0.0227  0.0987 -0.1619
18616W        W35463  12.709   5.011  11.631 -0.0313 -0.0325  0.1684
18617W        W35464  12.099  18.294   1.462  0.2549 -0.0234 -0.0082
18618W        W35465  12.172   5.952   3.502  0.0222  0.3338 -0.0554
18619W        W35466  13.013   3.021  12.281 -0.2149 -0.2775 -0.0305
18620W        W35467   5.809   8.938   2.053  0.2056 -0.0558  0.0193
18621W        W35468  12.582  15.167  12.353 -0.0041 -0.1180  0.1743
18622W        W35469   2.264   1.224  11.493  0.1359 -0.1569 -0.0192
18623W        W35470  18.683  17.767  12.326 -0.3766 -0.2034 -0.1061
18624W        W35471  11.183   5.090  10.380 -0.1784 -0.0625 -0.2671
18625W        W35472  11.601  13.197   5.018  0.1489  0.0617 -0.1042
18626W        W35473   2.993  13.988  10.629  0.0584  0.1327  0.0282
18627W        W35474   4.187  15.363  10.390 -0.0074  0.0151 -0.1014
18628W        W35475   6.884  18.908   1.981 -0.0393  0.1042 -0.2669
18629W        W35476   1.118  13.070  11.001 -0.3205 -0.1174  0.2672
18630W        W35477  16.141   1.382   1.466  0.0925  0.2587 -0.1212
18631W        W35478   0.856  18.746   0.505 -0.2185 -0.2726 -0.0591
18632W        W35479  13.567   2.840  13.528  0.1466 -0.1317  0.0179
18633W        W35480   6.709  19.360   3.346 -0.1588  0.1618 -0.0879
18634W        W35481  13.568  10.790  10.283 -0.3531  0.2220  0.2142
18635W        W35482  17.092  10.790  12.012  0.0385  0.0218  0.3661
18636W        W35483  11.229  16.927   2.874 -0.0890 -0.0439 -0.0347
18637W        W35484   2.566   4.608  11.558 -0.1029 -0.1843 -0.1389
18638W        W35485   7.556  14.411   3.940 -0.3241 -0.5037 -0.0325
18639W        W35486  19.294  13.680  12.113 -0.2097  0.1173 -0.0186
18640W        W35487   2.865   2.598  14.125 -0.0187 -0.2675  0.2484
18641W        W35488  18.038  18.968   1.986 -0.0395 -0.0319  0.3928
18642W        W35489   4.565  13.013   3.477 -0.2021  0.0418  0.1723
18643W        W35490  10.699  16.376   3.982  0.0253  0.3956 -0.1902
18644W        W35491  12.144  11.547   1.856  0.0084 -0.0646 -0.3729
18645W        W35492   2.841   5.908  14.093 -0.3490 -0.2040  0.0382
18646W        W35493  16.811  11.626  12.029  0.2992  0.0145 -0.2395
18647W        W35494  13.753   8.181   2.931 -0.2087 -0.3001 -0.2112
18648W        W35495  16.906  19.174   4.399 -0.0283 -0.3809  0.0045
18649W        W35496  18.441   0.571   0.841  0.0746 -0.0564 -0.1275
18650W        W35497  11.679   3.724   0.022  0.2548 -0.0453 -0.3993
18651W        W35498   4.969  10.858   1.819 -0.2797  0.0359  0.1928
18652W        W35499  18.313  18.593   0.110  0.1157 -0.1176  0.3747
18653W        W35500   1.514   8.070  13.385 -0.1021  0.0445 -0.1629
18654W        W35501   4.692   1.720   2.139  0.1540 -0.3864  0.1494
18655W        W35502  17.651  10.946   2.049  0.1296 -0.2354 -0.0981
18656W        W35503  12.756  10.229  10.101 -0.1464  0.1446 -0.0562
18657W        W35504  17.287   7.800   0.161 -0.0657 -0.2923 -0.3479
18658W        W35505   4.577  12.846  11.972  0.2388 -0.0751 -0.2928
18659W        W35506   2.554  10.781   0.806  0.3445 -0.6671  0.0377
18660W        W35507  13.426   5.404   4.826 -0.0826 -0.0462 -0.3007
18661W        W35508   9.146   9.871  11.109  0.1046 -0.3250 -0.2742
18662W        W35509  14.361   6.608  12.785 -0.0333  0.3039 -0.0972
18663W        W35510   3.909  18.181  10.129 -0.0925 -0.1168 -0.1892
18664W        W35511   4.193   7.298  11.302 -0.1026  0.0292 -0.0843
18665W        W35512   9.162  18.653   0.334 -0.0311  0.0750  0.0727
18666W        W35513   8.451  17.878   3.910  0.1315  0.0162  0.1010
18667W        W35514   2.120  13.348  12.462  0.0966 -0.0406  0.1051
18668W        W35515   9.547  16.865   2.486 -0.1457 -0.0318  0.0753
18669W        W35516  18.898  10.651  11.172  0.3027  0.1259  0.1265
18670W        W35517  15.398   2.311  12.617  0.1017 -0.1513 -0.0733
18671W        W35518   8.293  18.746   0.649  0.0847  0.3619  0.0118
18672W        W35519   7.447   1.134   4.677  0.1180 -0.0932 -0.2496
18673W        W35520  14.699  13.236  13.986  0.1029 -0.0876 -0.2125
18674W        W35521  16.250   6.736   4.696  0.1103  0.3204  0.0443
18675W        W35522   2.250   6.005   0.977  0.1204 -0.0748 -0.1089
18676W        W35523  16.223  14.718   1.382 -0.1282  0.2045 -0.2834
18677W        W35524  16.673  14.317  10.740 -0.0914  0.0130 -0.0115
18678W        W35525  12.952  11.277  10.589  0.1505 -0.4687 -0.3125
18679W        W35526  13.645  17.053   2.828  0.2951  0.1391 -0.1720
18680W        W35527  11.807  12.680   3.230 -0.2157  0.0962 -0.0381
18681W        W35528  11.062   8.181  11.284  0.1218 -0.1986 -0.3733
18682W        W35529   5.271  18.576   9.857 -0.0506  0.0260  0.1375
18683W        W35530  19.509  14.304   4.441 -0.3117 -0.0114  0.0490
18684W        W35531   2.243  12.255   3.213  0.4570 -0.1774 -0.1122
18685W        W35532   1.835   4.252   0.850 -0.1677  0.0717  0.0145
18686W        W35533   4.226   6.267   3.827 -0.1792  0.0725 -0.0740
18687W        W35534   8.407   0.422  13.217 -0.0551 -0.2116 -0.1278
18688W        W35535  19.323   8.731   5.279 -0.1504  0.0468  0.0153
18689W        W35536   2.853  13.549   5.526 -0.0721 -0.0582  0.1558
18690W        W35537  16.371   5.226  10.692 -0.0286 -0.1534  0.0028
18691W        W35538   5.161  10.555  10.210 -0.0638 -0.0452  0.0435
18692W        W35539   0.319   4.595   4.712 -0.0328 -0.2351 -0.1868
18693W        W35540  13.998  10.945   5.110 -0.0588 -0.3352 -0.0386
18694W        W35541  17.948  17.326  13.420 -0.0142  0.3253 -0.4112
18695W        W35542  12.221  16.157  12.466  0.1721  0.3134 -0.1475
18696W        W35543   7.042   9.585   0.274  0.1303  0.0255 -0.0335
18697W        W35544  14.750   7.879  12.735  0.0865 -0.0450  0.2063
18698W        W35545  14.870   9.897   0.601  0.3173  0.0329 -0.0371
18699W        W35546   5.955  15.324  10.924 -0.0275  0.1101  0.0776
18700W        W35547   9.627  13.631   5.097  0.1193 -0.0967  0.1069
18701W        W35548   4.035   0.417  10.164 -0.0918  0.3370 -0.0384
18702W        W35549  18.833   6.257   3.782 -0.1517 -0.0032 -0.0363
18703W        W35550  15.528   0.491   0.064 -0.1652  0.1358 -0.5181
18704W        W35551   0.664   2.373  13.988 -0.0914 -0.2119  0.0138
18705W        W35552   5.579   5.862   0.387  0.1331  0.0407  0.1061
18706W        W35553   4.745  17.700   0.733  0.1975  0.0735  0.0237
18707W        W35554   9.428   6.427   3.600 -0.4462  0.1230  0.0471
18708W        W35555   7.126  19.216   3.060 -0.1011 -0.4178 -0.2422
18709W        W35556   7.491   0.410   3.103  0.1825  0.0264  0.0633
18710W        W35557   6.720   9.662   1.945  0.0056  0.1440 -0.0475
18711W        W35558   8.201   0.868   4.334  0.5730  0.1395  0.3187
18712W        W35559   1.561   8.736   3.841 -0.0164  0.2741 -0.1702
18713W        W35560  13.586   7.222  11.840 -0.1372  0.0859  0.1251
18714W        W35561  14.872   2.346   1.029  0.2128  0.2969 -0.0781
18715W        W35562  18.154  14.298  11.591  0.2420  0.0635 -0.0322
18716W        W35563   9.004  13.089  13.142 -0.2953  0.1057 -0.4321
18717W        W35564   3.446   3.621   2.711 -0.2336 -0.0394  0.1972
18718W        W35565   3.060  11.610   0.896 -0.1824  0.4873 -0.2583
18719W        W35566  19.093  10.651   1.424 -0.1045 -0.0791  0.0158
18720W        W35567  19.375  18.174  11.020  0.0961 -0.1336  0.3438
18721W        W35568  16.800  11.549  11.385 -0.0782  0.1841 -0.0792
18722W        W35569  16.017  10.828   3.379  0.0808 -0.0677 -0.0091
18723W        W35570   6.132   7.026   9.865 -0.2029  0.1635  0.0417
18724W        W35571  16.653  15.253   0.282  0.1633  0.2742 -0.1363
18725W        W35572  10.177   0.128   1.139 -0.0994  0.2939 -0.0160
18726W        W35573   0.220   3.612   0.725 -0.0903  0.1295  0.5646
18727W        W35574  17.259  15.108   5.153 -0.2158  0.0375  0.0291
18728W        W35575  11.653  19.489   3.557 -0.0934  0.0377 -0.0631
18729W        W35576   0.913  13.419  11.657  0.0879 -0.1157 -0.1470
18730W        W35577  12.456  11.880  12.317  0.3450 -0.3884  0.0494
18731W        W35578   2.995  10.140   4.567 -0.0106 -0.0547 -0.2021
18732W        W35579  18.945   5.740   3.101  0.2741 -0.0640 -0.4193
18733W        W35580  10.363   6.388   2.355  0.0691  0.2203  0.0624
18734W        W35581   6.915  18.478   2.431  0.0109  0.0307 -0.1895
18735W        W35582  19.224  19.693  13.414  0.1469  0.5141  0.3554
18736W        W35583   9.693  15.041   4.002 -0.1410 -0.0046 -0.0327
18737W        W35584  19.376  15.985   2.234 -0.0211 -0.0714 -0.1886
18738W        W35585   4.360  16.439  11.985 -0.1352  0.1921  0.1304
18739W        W35586  12.227  18.080  13.732 -0.0114 -0.0814  0.3030
18740W        W35587  10.492   4.187  12.911 -0.4037 -0.2481 -0.1418
18741W        W35588   8.838   2.995  13.627 -0.2511 -0.0667  0.3128
18742W        W35589  16.550   1.522   0.664 -0.1361  0.2045 -0.0541
18743W        W35590  11.051  17.597  13.889 -0.0022  0.0005  0.0720
18744W        W35591  12.227   3.750  10.970  0.0562 -0.3899 -0.3746
18745W        W35592  14.993   5.523   3.644  0.0022  0.1214 -0.0837
18746W        W35593   6.368  12.976  11.553 -0.0182  0.1354 -0.3694
18747W        W35594   6.387  13.480  13.243 -0.0260 -0.2528  0.2186
18748W        W35595  17.718   1.948  10.727  0.1078  0.1087 -0.0332
18749W        W35596   7.664  11.172   2.487  0.0274 -0.1345  0.4824
18750W        W35597   7.051  13.034   3.299  0.0147 -0.0794 -0.0975
18751W        W35598  15.173  13.538  10.721 -0.0344 -0.0997 -0.1105
18752W        W35599  11.225  18.788  11.399  0.0612  0.0624 -0.0078
18753W        W35600   6.507   6.559  10.613 -0.0083  0.1675 -0.1427
18754W        W35601  13.894  17.319   3.146  0.1541  0.2604 -0.4494
18755W        W35602   6.384  15.253  10.093 -0.1871 -0.2843  0.0564
18756W        W35603   8.101   3.445  11.764 -0.2379  0.0141  0.0670
18757W        W35604   2.776   7.107   2.619  0.1877 -0.2473 -0.3860
18758W        W35605  17.577   8.011  13.528  0.3783  0.0815 -0.1372
18759W        W35606   7.161  11.621   0.852  0.1400  0.2181 -0.1937
18760W        W35607  13.506  15.731  10.887  0.0121 -0.1636  0.0460
18761W        W35608   8.577   8.673  10.513 -0.3832 -0.0865 -0.2162
18762W        W35609  12.871   9.953  11.717 -0.1734  0.0524 -0.4532
18763W        W35610  10.344  17.752  13.145 -0.2010 -0.1638  0.1142
18764W        W35611  11.196  18.442  13.006  0.2148  0.5277 -0.0235
18765W        W35612   7.873  10.596   4.242 -0.1633  0.2034  0.0396
18766W        W35613   8.271  12.906  11.961  0.1707  0.1920 -0.0470
18767W        W35614   8.802  14.691   9.075 -0.1321 -0.2363 -0.1148
18768W        W35615   7.344  16.223   0.038  0.0400 -0.2396  0.1105
18769W        W35616  15.548  19.589   2.584  0.0371  0.2932 -0.0566
18770W        W35617   0.548  17.307   0.472  0.1803  0.0407  0.2532
18771W        W35618  12.842  19.120   0.072 -0.1721  0.2143  0.3627
18772W        W35619   2.451   1.935  10.930 -0.1583  0.1107  0.0157
18773W        W35620  15.055  13.064  11.571 -0.0987  0.2490 -0.0419
18774W        W35621  13.562   2.216   1.430  0.1378 -0.0886 -0.0540
18775W        W35622  18.939   3.652   3.409 -0.0464 -0.1228 -0.0965
18776W        W35623   2.709  12.853  12.979 -0.0980  0.3112  0.0917
18777W        W35624   8.734  18.625   3.748  0.0121  0.3296  0.3444
18778W        W35625  10.026  19.896   3.595 -0.1570 -0.2193 -0.2401
18779W        W35626  12.873   4.961   9.718  0.0346 -0.2379 -0.1114
18780W        W35627   0.691  13.860   1.940 -0.1318 -0.0271  0.5515
18781W        W35628   4.138  19.681  12.664  0.1052 -0.1512 -0.1745
18782W        W35629   6.613  13.421  11.846  0.1100 -0.1525 -0.0486
18783W        W35630  13.253  17.785   0.955 -0.1570 -0.2023  0.1508
18784W        W35631   3.095  10.777   2.323 -0.1030  0.1901 -0.1531
18785W        W35632  13.023  19.770   4.164 -0.2140  0.0486 -0.0189
18786W        W35633   4.057   2.903   1.656 -0.1229 -0.1604  0.1030
18787W        W35634   7.853  14.175   2.981  0.1073  0.2215  0.0640
18788W        W35635   0.258  10.608  11.533 -0.2862  0.2937  0.4002
18789W        W35636  16.262   3.178  12.056 -0.0992  0.0939 -0.0867
18790W        W35637   1.568   0.327   3.278 -0.3754  0.0291 -0.2477
18791W        W35638   4.611  12.445   1.285  0.0207  0.2972  0.2372
18792W        W35639  11.904  11.920   3.358 -0.0580 -0.1664 -0.2107
18793W        W35640  15.221  15.525  12.789 -0.3150 -0.1283 -0.1091
18794W        W35641   8.030  10.794  14.228  0.2129 -0.1971 -0.1959
18795W        W35642   6.166   7.401   0.431  0.0111  0.1657  0.2782
18796W        W35643   9.941  13.524  10.801 -0.1475  0.1027 -0.0592
18797W        W35644  17.773  11.231   0.991 -0.1628  0.0543 -0.3045
18798W        W35645   8.269   5.588   1.130  0.2198  0.0595  0.0703
18799W        W35646  17.859  10.316  13.296  0.1763 -0.0577  0.2015
18800W        W35647   5.962  14.367   2.920 -0.1991 -0.1200 -0.3155
18801W        W35648   5.396   3.182  11.522 -0.0958  0.2614  0.4759
18802W        W35649   5.466  11.851  13.183  0.1655 -0.3073 -0.0810
18803W        W35650   6.157   7.765   0.785  0.0314 -0.0961 -0.3272
18804W        W35651  15.060  19.677  11.187 -0.0450  0.1448 -0.2356
18805W        W35652   6.192  15.282   3.845 -0.2281 -0.2642  0.2604
18806W        W35653   9.827   5.177   0.518 -0.2291 -0.1652  0.2843
18807W        W35654   9.687   1.008  14.071 -0.0408  0.0663  0.0571
18808W        W35655   0.809  15.343  13.602  0.2914  0.1029 -0.0096
18809W        W35656   7.814   2.513   2.994 -0.0541 -0.0169  0.1057
18810W        W35657  14.830   7.261   0.604  0.2932 -0.2017 -0.2511
18811W        W35658  13.531   5.287   2.435 -0.0407 -0.3448  0.4058
18812W        W35659   9.574  10.330  10.121  0.2140 -0.0630  0.2229
18813W        W35660   7.976  18.852   2.212  0.1076  0.0564  0.0048
18814W        W35661   9.156   4.154   2.628  0.0781 -0.2830  0.0245
18815W        W35662  11.242  12.575  13.424 -0.2510  0.1404 -0.0127
18816W        W35663  10.406  17.981  13.983 -0.0586 -0.0365  0.0216
18817W        W35664  14.645   7.188   5.070 -0.1377  0.2156 -0.2255
18818W        W35665   5.947   9.942   2.584 -0.0742 -0.1111 -0.3360
18819W        W35666   5.996   7.995   1.277  0.0415 -0.2657  0.1848
18820W        W35667   9.981  12.113  14.309 -0.0997  0.0080 -0.0659
18821W        W35668  10.067   3.110   3.232  0.0756 -0.3130 -0.1102
18822W        W35669  19.014   4.500  12.387 -0.1564  0.1189 -0.1514
18823W        W35670  16.950   2.647  12.043  0.0731  0.0314 -0.2060
18824W        W35671  11.067  13.789  12.522  0.0542  0.1381 -0.0435
18825W        W35672  17.866  14.223   0.940  0.3225  0.0288 -0.1794
18826W        W35673   8.981   1.729   4.834  0.0490  0.0629  0.1133
18827W        W35674   5.365  10.539   1.448  0.0973  0.1728  0.2405
18828W        W35675  15.225   0.233   2.635 -0.2581 -0.1464  0.0972
18829W        W35676   9.969  15.019  10.616 -0.2270 -0.1972  0.1409
18830W        W35677   5.494  12.306   9.877 -0.1602 -0.3041  0.4898
18831W        W35678   0.055  15.348  12.310  0.0464  0.2275 -0.2655
18832W        W35679   9.278   4.576  12.544  0.3682 -0.0622 -0.2387
18833W        W35680   4.438   3.836  10.930  0.2762 -0.0273  0.0163
18834W        W35681   4.361  12.596   9.880  0.3260  0.3399 -0.3949
18835W        W35682   7.842  14.733   4.178  0.1736 -0.0313  0.3272
18836W        W35683   4.598  15.529   0.574 -0.1412 -0.1055 -0.1498
18837W        W35684  10.441  12.592   0.442 -0.1242  0.0801  0.3081
18838W        W35685   4.840  12.280  11.050  0.0731  0.0223  0.0642
18839W        W35686   4.587   5.350  10.949  0.2380  0.1313 -0.0440
18840W        W35687   8.240   7.801   0.811  0.0785  0.2534  0.2685
18841W        W35688  15.431  17.403   0.331  0.1052  0.1837  0.0580
18842W        W35689   0.486  15.762  12.874 -0.3610 -0.0550 -0.0138
18843W        W35690   9.076   1.696  13.122 -0.4025 -0.0131 -0.1503
18844W        W35691  14.652  16.036   1.511 -0.1632 -0.2123 -0.3808
18845W        W35692   9.673   4.816  12.244  0.4610  0.1663 -0.0275
18846W        W35693  13.900   8.105   0.880 -0.1351 -0.1090  0.3000
18847W        W35694   4.131  14.524   1.648  0.3504  0.2187  0.1674
18848W        W35695  11.985   1.582  12.225  0.0187 -0.0712 -0.1337
18849W        W35696  18.784  16.647   1.277 -0.4502  0.0650  0.2124
18850W        W35697  15.611  16.979  12.693  0.1359  0.1060 -0.3190
18851W        W35698   5.403  19.340  12.106  0.1398 -0.2002  0.0162
18852W        W35699  13.561   0.029   0.169 -0.0158  0.1692  0.1309
18853W        W35700  11.782   8.046   1.056  0.0190  0.0332 -0.1919
18854W        W35701  18.456   5.015   0.341  0.1405 -0.1957  0.0056
18855W        W35702  13.272   4.904  14.055  0.0380  0.0184  0.0694
18856W        W35703   5.914   1.474  12.823  0.0370 -0.4528  0.0782
18857W        W35704  18.895  18.217  13.033  0.4304 -0.0896  0.1165
18858W        W35705   4.569  13.162  10.905  0.0894  0.0295 -0.2055
18859W        W35706  16.671  18.665  13.790 -0.0770 -0.0289  0.0490
18860W        W35707  14.488   2.946  13.638  0.0615 -0.0880  0.2715
18861W        W35708   2.915  13.801   1.971  0.2825  0.2871  0.1487
18862W        W35709  10.329  10.366   5.421 -0.0284 -0.0413  0.4065
18863W        W35710  10.142  14.364  10.355 -0.4082  0.0742  0.2051
18864W        W35711   7.622   8.779   4.019 -0.4949 -0.1154  0.3093
18865W        W35712  10.756   0.706  12.683  0.1158 -0.2347  0.0809
18866W        W35713   1.636   3.534   1.906 -0.1593 -0.1250  0.3231
18867W        W35714   1.430   0.726   2.786 -0.0176 -0.2377 -0.0756
18868W        W35715  19.845  16.109   1.163 -0.1502 -0.0504  0.1869
18869W        W35716  17.425  12.194   3.902  0.2392 -0.2286  0.0697
18870W        W35717   4.304  16.892  14.117  0.3019  0.2709  0.0173
18871W        W35718  18.010   5.155  14.169  0.3257  0.4983 -0.2664
18872W        W35719   7.395  12.038  10.344  0.1259  0.0964 -0.1363
18873W        W35720   5.551  15.497   2.672 -0.1289  0.2319 -0.0609
18874W        W35721   3.866  10.540  13.457 -0.1023  0.1702 -0.2893
18875W        W35722  17.732  13.322  10.583  0.1249 -0.0390 -0.1516
18876W        W35723   2.688   8.725   4.403  0.0901 -0.0446  0.0568
18877W        W35724   8.836  13.923  13.191  0.0699 -0.3836 -0.1081
18878W        W35725  11.679   3.313   4.019 -0.1319  0.2280 -0.0415
18879W        W35726   8.991   9.152   1.265  0.3088 -0.3451  0.2835
18880W        W35727  17.819   2.614   0.927  0.3345 -0.1206  0.0261
18881W        W35728   6.527   4.022  10.148 -0.0224 -0.1440 -0.0364
18882W        W35729   5.689  12.276  13.370  0.0450  0.1372 -0.2387
18883W        W35730   1.986   5.377  12.530  0.0250  0.1577 -0.1061
18884W        W35731  19.745   1.393   9.532  0.3385  0.1325  0.0263
18885W        W35732   9.779  14.301   2.777  0.1156 -0.1971  0.0827
18886W        W35733   3.890  19.495  10.350 -0.2314 -0.2874  0.0593
18887W        W35734   9.597  17.713   0.969  0.1967  0.0107  0.0323
18888W        W35735  10.130  12.213  12.975  0.0130 -0.3102 -0.0475
18889W        W35736  11.880   1.646  11.107 -0.0812 -0.1440 -0.3150
18890W        W35737   7.684   1.768  12.078 -0.0523  0.0782  0.2656
18891W        W35738   0.364  12.727  12.174 -0.0495  0.2493  0.0922
18892W        W35739  10.775   6.145   2.220 -0.1346  0.0595 -0.0332
18893W        W35740   6.907   5.387   2.205 -0.1823 -0.2085  0.0964
18894W        W35741   2.518   9.889   3.714  0.2322  0.1552 -0.1653
18895W        W35742  11.761  19.557   2.892  0.0280 -0.3644 -0.2419
18896W        W35743   5.081  12.974  13.374 -0.0620 -0.0401 -0.2430
18897W        W35744   2.884   9.340  10.004 -0.0989 -0.2961 -0.1316
18898W        W35745  16.785   3.196   5.094 -0.2012 -0.0870 -0.0696
18899W        W35746  18.524  17.412  13.992 -0.1195  0.0791 -0.1094
18900W        W35747  15.286  10.978   3.837  0.1013 -0.3025  0.1337
18901W        W35748  12.082  17.586  10.497 -0.1042 -0.0508  0.0180
18902W        W35749  16.402  19.769   0.225 -0.2864  0.0693 -0.1121
18903W        W35750   5.644   6.185  13.303 -0.0263 -0.0467 -0.0463
18904W        W35751   4.776  15.370   5.128  0.1201  0.0984  0.0330
18905W        W35752   8.390  16.570  10.090  0.0795  0.1631 -0.0460
18906W        W35753   5.231  10.145   1.021 -0.0038  0.0297  0.2539
18907W        W35754  11.825  12.532   2.333 -0.0712 -0.0722  0.0247
18908W        W35755   7.105  19.863  12.895  0.0560  0.0633 -0.2367
18909W        W35756   3.559  19.718   5.082  0.0655  0.0726  0.1543
18910W        W35757  17.997   5.196   2.247 -0.4299  0.0814  0.2354
18911W        W35758  11.463  16.579  10.070  0.1739 -0.2537  0.2993
18912W        W35759  17.113   0.784   1.764 -0.1378 -0.0750 -0.1525
18913W        W35760  10.699   5.407  11.324  0.0783 -0.5007  0.0445
18914W        W35761  12.859  11.125  11.761 -0.1523  0.0795 -0.0071
18915W        W35762  12.587  16.993   9.936  0.0073 -0.1478 -0.1318
18916W        W35763  19.432   8.669   9.475  0.2462 -0.2084 -0.1905
18917W        W35764  17.399   0.653   2.694  0.0638  0.1631  0.1448
18918W        W35765  17.200  19.241  14.288 -0.2111  0.1161  0.0446
18919W        W35766   9.419   3.551   2.065  0.2628  0.1397 -0.1791
18920W        W35767  13.231   6.645  12.617  0.1571 -0.0104  0.0542
18921W        W35768   7.694  15.656   4.647 -0.1827 -0.1748 -0.1952
18922W        W35769   1.511   2.916   9.951  0.1454 -0.1352 -0.1202
18923W        W35770   4.704  16.780  11.969  0.0687  0.0282 -0.0514
18924W        W35771   0.829  14.879   1.037 -0.1216  0.2606 -0.0338
18925W        W35772  12.949  15.750   3.791  0.3320 -0.0779 -0.0411
18926W        W35773   5.939  12.121   4.699  0.2814 -0.2365  0.1495
18927W        W35774  14.965   9.055  10.899 -0.1633 -0.1669 -0.0538
18928W        W35775  10.217   6.109  10.908  0.0294  0.2641  0.1746
18929W        W35776   2.004  17.071   3.783  0.1782  0.2260 -0.3143
18930W        W35777   1.021   5.233   0.745  0.1867 -0.1595 -0.0429
18931W        W35778   0.403  16.377   0.390  0.0306 -0.0737  0.0992
18932W        W35779   3.281   8.337  13.346  0.3688 -0.3666  0.1131
18933W        W35780  11.252   7.282   4.543 -0.3660  0.0560  0.0909
18934W        W35781  19.798   8.364  11.223 -0.0179  0.2541  0.0455
18935W        W35782  14.834   0.461   4.637  0.0943  0.2880  0.5475
18936W        W35783   6.526  15.702   3.193  0.1649 -0.0524  0.1323
18937W        W35784   0.117  12.361   0.754 -0.2010 -0.0576  0.0937
18938W        W35785  19.488  15.857  10.802 -0.0994  0.1677  0.0147
18939W        W35786   6.054   0.116  12.683  0.0677  0.2163  0.0022
18940W        W35787   7.139   9.988  12.664 -0.0589  0.3249 -0.1468
18941W        W35788  17.134  10.806  10.420  0.0056  0.0695 -0.0614
18942W        W35789   2.204   0.706   2.866 -0.2564 -0.3153 -0.2025
18943W        W35790   9.346  17.730  11.063 -0.1152 -0.1800  0.0630
18944W        W35791  12.762  12.176  10.663  0.1571  0.1621 -0.0581
18945W        W35792  13.871   5.935  12.139 -0.1517 -0.0275 -0.1996
18946W        W35793   4.297  13.356  14.033  0.0574 -0.0198  0.0052
18947W        W35794   2.817   0.875  12.601  0.0414 -0.1889  0.1962
18948W        W35795   7.786   7.670  13.531 -0.4691  0.2118  0.1187
18949W        W35796   6.031  10.501   0.114 -0.0209 -0.2165 -0.1899
18950W        W35797  10.010  10.006   2.392  0.1410  0.0077 -0.1211
18951W        W35798   4.724  11.935   3.039 -0.1317 -0.1133  0.0728
18952W        W35799  10.020   3.041  10.730 -0.0505 -0.0805 -0.2370
18953W        W35800  17.041   8.468   3.372  0.2284 -0.3068 -0.1252
18954W        W35801  19.396   8.021  11.932 -0.0887 -0.3389 -0.0179
18955W        W35802   5.043   9.288  13.234 -0.5406 -0.3362 -0.0927
18956W        W35803  18.044   5.185  10.550 -0.0514  0.2856  0.1443
18957W        W35804   5.102   6.448   1.814 -0.1579 -0.2705 -0.0729
18958W        W35805   5.573  14.543   1.766 -0.0268  0.0673  0.1282
18959W        W35806  18.010  13.040   3.277  0.1203  0.1570  0.2265
18960W        W35807   6.589   5.846   0.501 -0.0100 -0.3533  0.2889
18961W        W35808  19.044   0.567   2.685  0.1303  0.1918  0.1406
18962W        W35809   2.651   6.533   3.649 -0.2168  0.1516  0.1075
18963W        W35810   1.315   0.939   0.390 -0.2470 -0.0971  0.0550
18964W        W35811  13.905  19.366  10.077  0.0901 -0.1186  0.0183
18965W        W35812   0.544   4.133   5.035 -0.0409  0.2220  0.2499
18966W        W35813  17.589   5.001  13.290  0.2018 -0.0226  0.2058
18967W        W35814   2.853  18.282  10.241 -0.0204 -0.0449 -0.0483
18968W        W35815  11.809   3.450   4.810  0.1044 -0.3913  0.0952
18969W        W35816   6.847   3.583  10.405 -0.0148 -0.0994  0.0491
18970W        W35817  16.906  19.087   0.518  0.0621  0.2758  0.1720
18971W        W35818   3.475   6.747  13.907 -0.1419 -0.1280  0.0922
18972W        W35819   5.762  13.943   2.672 -0.1923  0.0920  0.1778
18973W        W35820   4.505  12.225   3.994 -0.1789 -0.0272  0.1638
18974W        W35821   2.933   6.430   2.779  0.0624 -0.1660  0.0128
18975W        W35822   9.134  14.618  13.611  0.2491  0.0177 -0.1456
18976W        W35823  11.312  18.973  13.226 -0.2175 -0.0683  0.3274
18977W        W35824  18.613   7.457   1.508 -0.0808  0.3678 -0.2324
18978W        W35825  18.213  14.036  12.619 -0.2221 -0.3185  0.1366
18979W        W35826   2.904   7.545   4.493  0.0083 -0.1322  0.5777
18980W        W35827  14.456  17.807   2.051  0.2521 -0.3039 -0.1417
18981W        W35828   6.859  13.982   1.771  0.3963 -0.0880  0.0532
18982W        W35829   1.027  14.797  13.969 -0.1183  0.3242  0.2020
18983W        W35830   2.735   8.876   1.177 -0.0929  0.1542 -0.1359
18984W        W35831   9.513   1.839  10.979 -0.1971 -0.1526 -0.1970
18985W        W35832   9.021  13.878   1.657 -0.2576 -0.0313 -0.0649
18986W        W35833  12.257   1.773  11.472 -0.1707 -0.2437 -0.0464
18987W        W35834   2.033   4.489   0.434 -0.0309  0.0508  0.0409
18988W        W35835  16.605  12.963  14.172  0.3284  0.2989 -0.2771
18989W        W35836  19.755  19.853  11.948  0.2352  0.1374  0.0404
18990W        W35837   3.627  12.377   1.107 -0.1846 -0.1556  0.1298
18991W        W35838  19.312  14.881  12.103 -0.4753 -0.0636  0.1650
18992W        W35839   2.928   7.898   0.939  0.2126 -0.0938  0.3136
18993W        W35840   1.346   1.865   2.440 -0.2317  0.1220 -0.0453
18994W        W35841   1.592  13.241  13.956  0.0292 -0.0749  0.2910
18995W        W35842   3.349  10.839   1.000  0.1159  0.0605  0.2719
18996W        W35843  14.695  18.353  12.853 -0.0139 -0.0478 -0.0396
18997W        W35844   9.764   0.131  14.155  0.0785 -0.1618 -0.1477
18998W        W35845  14.903  10.672   3.487 -0.0707  0.3381  0.0660
18999W        W35846   1.410   1.879  10.872 -0.1133 -0.0925  0.0078
19000W        W35847   0.181  14.482   4.460  0.0824  0.1502  0.3490
19001W        W35848  13.888   2.444  12.716 -0.0395 -0.1350 -0.0452
19002W        W35849  18.938   3.183   1.941 -0.2303 -0.1824  0.1097
19003W        W35850  13.229  17.035  11.095 -0.0597  0.1786  0.3183
19004W        W35851  18.622   4.230   1.690 -0.2391  0.3729 -0.1448
19005W        W35852   0.782   7.696  13.369 -0.1839  0.0582 -0.3318
19006W        W35853   8.765   2.735  13.234  0.2013 -0.0799 -0.1425
19007W        W35854   1.800  15.441  13.587 -0.1867 -0.2969 -0.0349
19008W        W35855  15.538  13.888   0.374 -0.0362 -0.2306 -0.5339
19009W        W35856   6.748   1.710  12.635  0.0223 -0.1459  0.0838
19010W        W35857   4.599   9.207  10.839  0.1038  0.4183 -0.1141
19011W        W35858   0.457  14.244   2.249 -0.1449 -0.2837  0.1512
19012W        W35859   3.981   7.601  13.918 -0.1539 -0.1812 -0.3374
19013W        W35860   7.122  18.227  10.913 -0.0477  0.1394 -0.0323
19014W        W35861   5.537   6.833   0.657 -0.1465 -0.0974  0.1231
19015W        W35862  14.194   3.002   3.952  0.2612 -0.1219 -0.1551
19016W        W35863   2.066  15.566   3.178 -0.0691 -0.3523 -0.2495
19017W        W35864   5.698  17.679   3.899 -0.1771  0.1608  0.1671
19018W        W35865   4.832   1.333  10.070 -0.2971 -0.0320  0.5876
19019W        W35866   5.205   4.562  12.115 -0.1402 -0.3646 -0.0378
19020W        W35867   6.527   1.648   1.347  0.0469 -0.1350  0.3349
19021W        W35868  18.741   3.481   1.429 -0.0787 -0.3471  0.1885
19022W        W35869  16.404  16.663   1.404  0.0695 -0.1640 -0.1353
19023W        W35870  14.921   3.057  12.814 -0.0168  0.0183  0.1728
19024W        W35871   8.044   9.702  10.065 -0.0317 -0.0651 -0.3639
19025W        W35872   2.654  18.453  12.921 -0.3082  0.3538 -0.3578
19026W        W35873   6.165   3.183  11.051  0.2513 -0.3182  0.5860
19027W        W35874  18.051  19.337   1.652 -0.5040  0.1519  0.0160
19028W        W35875   5.825   3.931  11.777  0.1754 -0.0556 -0.2875
19029W        W35876   4.598  12.636  13.513 -0.2814  0.3525 -0.1402
19030W        W35877  11.760   3.797   2.899 -0.0579  0.1907 -0.1810
19031W        W35878   4.426  14.289   4.458 -0.1221  0.2652  0.2123
19032W        W35879   6.012   0.975   2.814  0.1879 -0.3207 -0.2369
19033W        W35880   3.443  17.080   2.355  0.0737 -0.0366 -0.1939
19034W        W35881   4.303  10.372   0.261 -0.1783  0.0093  0.0315
19035W        W35882  16.202   9.986   3.105  0.1137 -0.2686  0.0831
19036W        W35883  13.355  14.197   2.200 -0.1979  0.1553  0.3324
19037W        W35884   2.052  19.136   4.261  0.1363  0.1221  0.0436
19038W        W35885  13.445   6.645   3.503 -0.1370 -0.0898 -0.0723
19039W        W35886   8.323  16.036  10.037  0.2724 -0.0442  0.1473
19040W        W35887   8.582  16.387  11.373  0.0499  0.0246 -0.1916
19041W        W35888   4.725  16.656   1.698 -0.1582  0.0034 -0.1799
19042W        W35889   6.084   3.072   3.937  0.3234 -0.1252 -0.2109
19043W        W35890   3.544   7.413  10.715  0.1700  0.1810 -0.0201
19044W        W35891   6.752   6.369   3.514 -0.0214  0.1715  0.1965
19045W        W35892  16.327  17.750  11.733  0.1168  0.0338 -0.1856
19046W        W35893  18.579  12.017  12.263  0.2084  0.0652 -0.4307
19047W        W35894   5.406  12.131   3.741 -0.2071 -0.1772 -0.1234
19048W        W35895  16.644  16.417   2.776 -0.5712 -0.1487  0.0487
19049W        W35896   5.192   5.931   4.932 -0.2565 -0.3061  0.0915
19050W        W35897  13.753  13.923  10.611  0.0653 -0.1491 -0.2634
19051W        W35898  15.212   1.166   0.990 -0.1342  0.1165  0.2153
19052W        W35899   9.368  17.099  10.870 -0.2846  0.0001 -0.1699
19053W        W35900   0.749  16.345  13.230  0.0208 -0.3476  0.0616
19054W        W35901   4.034  17.704  13.109 -0.1384 -0.1881  0.1080
19055W        W35902   1.674   4.816   1.159 -0.0489 -0.2035  0.2569
19056W        W35903   5.738  14.243  10.818  0.1714 -0.2701 -0.2519
19057W        W35904  11.798   5.151   0.483 -0.2300 -0.1319  0.1564
19058W        W35905   6.656  13.862  14.109  0.2428  0.1677  0.2419
19059W        W35906  12.954   4.672   4.498 -0.1988 -0.0907  0.3232
19060W        W35907   8.137  17.579  10.934  0.0625  0.1510 -0.0751
19061W        W35908   9.677  14.414   4.577 -0.0633 -0.0014  0.0349
19062W        W35909  10.765   7.646  13.676  0.0217  0.1461  0.0921
19063W        W35910  17.425   2.044   4.662  0.0131  0.4598  0.1281
19064W        W35911   5.156  12.223  13.322  0.1577 -0.0803 -0.2350
19065W        W35912   5.909   9.635   1.243 -0.0292 -0.1171  0.2156
19066W        W35913  18.741  17.370  13.486  0.1213  0.1052  0.3174
19067W        W35914  15.347  11.846   4.118  0.0031  0.1519  0.0355
19068W        W35915  13.577   4.044   1.788 -0.1064 -0.3577  0.0240
19069W        W35916  15.698   5.984   2.235 -0.1254 -0.0242  0.2207
19070W        W35917  10.377  12.864  13.397  0.0493  0.0270  0.0715
19071W        W35918   0.707  16.960   3.236  0.2110 -0.2303 -0.1175
19072W        W35919   8.352  12.323  13.164 -0.1990  0.2325 -0.0805
19073W        W35920  13.134  17.957  12.844 -0.3600  0.1313 -0.1889
19074W        W35921  11.961  13.036   3.695 -0.2910  0.1543 -0.0020
19075W        W35922  15.839   2.476   1.893 -0.5245  0.2459  0.1650
19076W        W35923  12.951   4.284   3.580 -0.0078 -0.3098  0.0623
19077W        W35924  18.037  18.239  12.487  0.1296 -0.0141  0.1634
19078W        W35925  10.960  11.716   3.130  0.1575  0.3757  0.0379
19079W        W35926   0.890   0.865  13.055  0.0861  0.0587  0.1726
19080W        W35927   4.783  14.441  10.475  0.2729  0.2658 -0.1664
19081W        W35928  11.022   2.580  14.138 -0.0128 -0.0012 -0.2604
19082W        W35929  15.617  18.280   0.462  0.1242 -0.0973 -0.0878
19083W        W35930  12.205   4.759   3.003  0.3115 -0.2392  0.0919
19084W        W35931   7.026   2.872   1.337 -0.0788 -0.0279  0.0920
19085W        W35932  16.469  14.779   2.656  0.0535  0.1891  0.0128
19086W        W35933  13.990  15.206   5.770  0.1882 -0.2956 -0.3521
19087W        W35934  14.792   6.884   9.422  0.2033  0.0426  0.0139
19088W        W35935   5.761   5.087   2.868 -0.1558  0.0724  0.0355
19089W        W35936  12.376   7.513  10.303 -0.2020  0.0607  0.2624
19090W        W35937  19.778  15.457  13.230  0.2457 -0.1067  0.2444
19091W        W35938  18.732  13.657   2.115 -0.1702  0.0535 -0.0348
19092W        W35939  19.224  13.856  13.015 -0.2060  0.1435 -0.0298
19093W        W35940  15.922  12.986   0.959 -0.0322  0.0493 -0.2100
19094W        W35941  18.905   2.283   4.495  0.0659 -0.1897 -0.1288
19095W        W35942   5.508  17.304  10.507 -0.1040  0.1050  0.2914
19096W        W35943   3.990   9.821  12.077  0.2304  0.2088 -0.2060
19097W        W35944   6.631   5.763  13.011 -0.0179 -0.0514 -0.1675
19098W        W35945  19.306  18.362   0.624  0.0494 -0.0334  0.0962
19099W        W35946  10.102  12.628   0.059 -0.3023 -0.0821  0.1108
19100W        W35947  19.017   9.710   2.586  0.3467  0.0596  0.0983
19101W        W35948  12.054   1.509   4.047 -0.0198 -0.0265 -0.0522
19102W        W35949   5.663  17.316   3.526 -0.1427  0.1376 -0.1890
19103W        W35950   1.447   5.191  13.526  0.1615  0.0694  0.1247
19104W        W35951   9.938  12.556  12.620  0.0344 -0.1402 -0.1304
19105W        W35952   3.638  18.103   9.684 -0.2723 -0.1029  0.0414
19106W        W35953   4.274   3.222   1.249 -0.2382  0.2147 -0.1997
19107W        W35954  12.723  11.669  10.405  0.0665 -0.2046  0.0070
19108W        W35955   3.705   2.906  12.102  0.0828  0.2543 -0.0645
19109W        W35956   8.028   4.008  13.711 -0.0190 -0.0790 -0.0703
19110W        W35957   9.518   3.623   9.746  0.4179 -0.0567  0.1544
19111W        W35958   1.272   8.608   3.044  0.5185  0.0943 -0.1048
19112W        W35959  19.701  13.120   0.113 -0.1050 -0.3419  0.3657
19113W        W35960   0.049   4.364   2.210 -0.3535 -0.0174  0.1545
19114W        W35961  10.065   8.448   4.461  0.2508 -0.3306  0.1203
19115W        W35962  13.410  18.136   4.965  0.2062  0.2552 -0.1504
19116W        W35963   7.834  11.509   0.504  0.1365  0.0512  0.1976
19117W        W35964   8.705   1.570  10.204  0.1384  0.0096  0.1719
19118W        W35965   8.015   6.421   1.333  0.0863  0.1232  0.0605
19119W        W35966  18.087  16.533  13.047  0.1423  0.4068  0.1376
19120W        W35967   4.639   6.629  13.958 -0.2472 -0.0715 -0.0132
19121W        W35968  17.690  12.272   0.898 -0.0839 -0.0854  0.1690
19122W        W35969   0.098  11.810   3.685  0.2899 -0.0944 -0.0239
19123W        W35970   4.874  10.363  13.803  0.1178  0.0295 -0.0278
19124W        W35971  13.855   2.261   0.285 -0.1236 -0.0876  0.1252
19125W        W35972   5.476   6.307  14.269  0.0694 -0.0614 -0.1635
19126W        W35973  15.269   2.717   0.321  0.1003  0.1276 -0.0203
19127W        W35974   8.138  19.351   2.287 -0.1970 -0.1126 -0.0805
19128W        W35975   4.661   3.784   9.887  0.1260  0.1359  0.0973
19129W        W35976   5.266   1.420   0.298  0.0393 -0.1621 -0.0995
19130W        W35977  13.542  14.907   2.419 -0.1695 -0.2505  0.1946
19131W        W35978   6.527   5.578   2.444 -0.1161 -0.0569  0.2589
19132W        W35979  13.281   8.689  10.781 -0.1756 -0.1779 -0.0878
19133W        W35980   4.191  10.931  10.870 -0.1023 -0.0380  0.1395
19134W        W35981   5.712   1.647   1.468 -0.0726  0.1036 -0.0570
19135W        W35982   8.754   9.899  11.600 -0.2642  0.0569 -0.2204
19136W        W35983   0.286  16.962   4.137 -0.0692 -0.1406 -0.0754
19137W        W35984   0.151   3.927   1.939  0.0074 -0.2072  0.1036
19138W        W35985  18.893  12.552  10.583 -0.1615 -0.3205 -0.1337
19139W        W35986   2.283  12.477   0.690 -0.1329 -0.1425 -0.0642
19140W        W35987   6.003   7.493   3.612  0.1239  0.1846 -0.2291
19141W        W35988   3.982   9.282   3.667  0.3148  0.0478  0.0492
19142W        W35989   4.244   0.132   4.318 -0.0396  0.4837  0.2694
19143W        W35990  18.827  16.031   0.580 -0.0785 -0.0439 -0.2815
19144W        W35991  11.838   3.916   2.402 -0.0504  0.0081 -0.4398
19145W        W35992  12.272   7.081  14.214 -0.1147 -0.0221  0.1637
19146W        W35993  13.010   7.542   3.242 -0.1282 -0.1576 -0.0417
19147W        W35994  12.302   1.313  13.895 -0.1354  0.0224  0.3170
19148W        W35995  10.216   6.611   3.277  0.0019  0.2045 -0.2016
19149W        W35996   8.440  19.911  13.863  0.2143 -0.0625  0.1130
19150W        W35997  12.126  17.867  11.153 -0.2465  0.2216  0.0077
19151W        W35998  15.837  19.671   3.574  0.3154 -0.1267 -0.1512
19152W        W35999  13.439  16.474   4.280 -0.0726 -0.2351  0.0100
19153W        W36000  18.220  18.850  10.579 -0.0861  0.1654 -0.3238
19154W        W36001   6.104  15.843   0.530  0.2040  0.1893 -0.5076
19155W        W36002  13.063  19.137   3.421  0.4903  0.1722  0.0490
19156W        W36003  15.277  18.695  13.213 -0.1147 -0.1403  0.0395
19157W        W36004   3.400   0.818  13.638 -0.0280  0.2185  0.5181
19158W        W36005  10.154  16.373   3.254 -0.2250  0.1041  0.5952
19159W        W36006   5.562   4.510   2.591 -0.2836 -0.0208  0.1408
19160W        W36007  14.210  13.060  13.912  0.2680  0.2522  0.1244
19161W        W36008   8.527   2.919   0.963 -0.1774 -0.2312 -0.0455
19162W        W36009  11.669   4.171   0.159 -0.1597  0.0462  0.0760
19163W        W36010  15.963   6.870   4.282 -0.2019 -0.3610 -0.2548
19164W        W36011  19.592  14.053   3.726 -0.1190  0.0552  0.2443
19165W        W36012   3.451  19.579   2.676  0.1232  0.3201  0.0649
19166W        W36013  11.926  10.971   4.765  0.0668 -0.1153  0.1487
19167W        W36014   2.637  17.286  14.064 -0.3019 -0.0342  0.1483
19168W        W36015   8.758  17.245   2.942  0.0719 -0.0814  0.2783
19169W        W36016   3.723   8.373   3.518 -0.2879  0.2050  0.2045
19170W        W36017   6.829   7.039  13.546  0.0809  0.0250  0.2183
19171W        W36018   1.352   2.980  12.004 -0.1637  0.4043 -0.0654
19172W        W36019   0.104   4.999   3.983  0.0624  0.0565 -0.1149
19173W        W36020  10.174  17.476   1.803  0.1779  0.0022  0.3822
19174W        W36021  12.619  19.354  12.994  0.0307  0.3085  0.3906
19175W        W36022   5.000   1.458  12.646 -0.3319 -0.2300 -0.1363
19176W        W36023  14.654   6.788  11.461  0.1862 -0.1740  0.2482
19177W        W36024  17.742  12.949  12.400  0.0027 -0.4933  0.2217
19178W        W36025   3.060  11.673   2.253  0.2879  0.3130 -0.3185
19179W        W36026  12.505  11.056   1.724  0.0655  0.2712  0.1148
19180W        W36027  13.101  12.751   4.025  0.3027 -0.0508 -0.4148
19181W        W36028  16.207   7.854   4.457  0.2927  0.2981  0.3797
19182W        W36029  14.882  10.955  10.353  0.4163 -0.0136  0.3102
19183W        W36030  14.625   6.871   1.103 -0.1425  0.1345 -0.1932
19184W        W36031  19.578   6.609   2.637 -0.0544  0.0447  0.3220
19185W        W36032   1.271  13.791  12.366  0.4741  0.0786 -0.1192
19186W        W36033   4.030   0.787   4.967 -0.0020  0.0112 -0.0984
19187W        W36034  14.175  12.752   4.908  0.0704  0.0959  0.1920
19188W        W36035  15.170   4.222   3.793 -0.3459 -0.1699 -0.1103
19189W        W36036   7.440  12.406  12.201  0.2628 -0.1899 -0.1092
19190W        W36037  13.550  17.902  12.543 -0.1214 -0.3358 -0.4482
19191W        W36038  13.293  11.853  11.177  0.2664  0.1835  0.3765
19192W        W36039   5.792  19.201  10.306 -0.1588  0.2471  0.2155
19193W        W36040  11.066   0.958   0.989 -0.0527 -0.0563 -0.0524
19194W        W36041  14.573  14.066  12.390  0.0543  0.3024 -0.0355
19195W        W36042  13.062   9.089  13.403 -0.2021  0.1509 -0.1331
19196W        W36043   3.406   7.779   0.845  0.1051 -0.1511 -0.0895
19197W        W36044   9.916   0.481   3.927 -0.1643 -0.0919  0.0040
19198W        W36045   4.874  11.023   0.666 -0.2861  0.0451 -0.0473
19199W        W36046   9.277   9.627  12.769 -0.1703 -0.0223 -0.2979
19200W        W36047  12.501   8.010  12.733  0.1512  0.1262 -0.0312
19201W        W36048   5.536   7.601   3.333 -0.0794  0.0431 -0.2028
19202W        W36049   6.148   2.186  10.865 -0.1650  0.2692 -0.1980
19203W        W36050   3.311  13.950  11.010 -0.2041 -0.1540  0.1954
19204W        W36051   7.405   7.921   3.500 -0.1237 -0.0885 -0.1281
19205W        W36052  17.723  14.550   2.484 -0.2147 -0.0355  0.0227
19206W        W36053  12.250  10.913   2.608  0.0842 -0.3732 -0.0029
19207W        W36054   7.982  14.853   3.691  0.0753 -0.0722 -0.2378
19208W        W36055  16.397   9.144   1.721  0.3341 -0.2311 -0.0071
19209W        W36056   5.657  16.087   0.489  0.4329  0.3175  0.0465
19210W        W36057  17.543  16.182   4.494 -0.2243  0.2909 -0.1205
19211W        W36058   5.852  19.902  11.412  0.0938 -0.0687 -0.2388
19212W        W36059  16.323   0.409   1.511 -0.2110 -0.1129 -0.1444
19213W        W36060   1.309   9.435   1.194 -0.0920  0.3130  0.1076
19214W        W36061  13.691   6.021   1.843  0.3272 -0.1802  0.1836
19215W        W36062   6.928   6.854  10.333 -0.2631 -0.0417 -0.0358
19216W        W36063  19.906  19.561   3.172 -0.0003  0.3251 -0.1942
19217W        W36064  12.853  18.797   3.063 -0.0704 -0.1822 -0.1586
19218W        W36065   7.173   8.102  13.246  0.0447 -0.0054  0.2289
19219W        W36066   2.767   2.387  12.812 -0.2768  0.0724 -0.0214
19220W        W36067  11.090   4.967  14.301  0.1152  0.2222  0.1847
19221W        W36068   6.843  11.259   0.799  0.2464 -0.0372 -0.3478
19222W        W36069  19.519  12.301  12.040  0.0221 -0.2504 -0.4014
19223W        W36070   2.108   9.236  12.039  0.1188  0.0567 -0.2647
19224W        W36071  10.514   5.731   5.193 -0.1288  0.0577 -0.2064
19225W        W36072   1.256   3.152  13.951  0.0133 -0.2317  0.2784
19226W        W36073   1.109   0.521   1.063  0.0660 -0.3298  0.0509
19227W        W36074  13.593   0.768   1.667 -0.0327 -0.0408  0.0174
19228W        W36075  17.377  10.831  13.895  0.5021  0.0300 -0.1489
19229W        W36076  15.267  15.522   4.313  0.0420 -0.0408 -0.0456
19230W        W36077   4.730  13.067  13.820  0.2273 -0.0922  0.1537
19231W        W36078   0.163  11.346   1.706  0.0823  0.2998  0.2100
19232W        W36079  19.751   2.386  11.883 -0.0295 -0.2553  0.2465
19233W        W36080   3.384   4.351  10.125  0.0892 -0.1019 -0.0110
19234W        W36081   5.116   6.906  10.097 -0.0520  0.2245  0.3103
19235W        W36082   4.942   8.242   4.925  0.1038 -0.1301  0.2141
19236W        W36083  16.281  12.858   3.216 -0.0386  0.3072  0.1574
19237W        W36084  19.095   5.277  11.700 -0.1022  0.1155 -0.1559
19238W        W36085   4.355   7.814  10.041 -0.1208  0.0834 -0.3846
19239W        W36086  18.005   9.596  11.851  0.0669  0.3437  0.1049
19240W        W36087  12.552   8.947  13.122 -0.1958 -0.0460  0.0432
19241W        W36088  14.257  11.519   2.888 -0.0179 -0.1199  0.2594
19242W        W36089  13.827  11.926   0.216  0.0383 -0.1227  0.0221
19243W        W36090  15.479   5.143   1.176  0.2394 -0.1129  0.2208
19244W        W36091  18.148  14.000   1.380  0.0637 -0.2046  0.0202
19245W        W36092   9.928  10.793  12.942  0.0570  0.0647 -0.0040
19246W        W36093   1.198  12.392  13.998 -0.0994  0.4224  0.0077
19247W        W36094  16.358  14.340   0.130 -0.0697 -0.4103 -0.2796
19248W        W36095   5.241  11.802  11.995 -0.2240 -0.0784  0.0922
19249W        W36096   5.078  17.935   9.816 -0.1601  0.1243 -0.2539
19250W        W36097  10.322  15.623  12.825 -0.0801  0.0095  0.2460
19251W        W36098  17.974   9.482   2.700 -0.0475 -0.1050 -0.1291
19252W        W36099   2.909  10.407  13.058 -0.1308 -0.0115 -0.0835
19253W        W36100   4.186  18.339  12.486  0.0812  0.1198 -0.0114
19254W        W36101   1.480   0.740   4.141  0.2475  0.1429 -0.4115
19255W        W36102  18.484  12.493   1.453 -0.1628  0.1928 -0.1953
19256W        W36103  13.071  14.847  11.748 -0.2946  0.0915  0.1633
19257W        W36104  11.837   1.668   4.483  0.0181 -0.3634 -0.2725
19258W        W36105   3.701   2.760  13.798 -0.0020  0.1613  0.1817
19259W        W36106  12.164  12.534  13.997 -0.1256  0.1934  0.0165
19260W        W36107   2.296   2.070   2.172  0.4603 -0.1307  0.3355
19261W        W36108   2.423   3.183   0.908  0.0369  0.2437 -0.1225
19262W        W36109  15.623   2.909  14.220  0.1329 -0.0147  0.2738
19263W        W36110   5.422   5.776  10.939  0.0015 -0.0538 -0.0178
19264W        W36111   7.651  13.848  10.363 -0.5255  0.1288 -0.1026
19265W        W36112  17.498  18.160  13.354 -0.3328 -0.1167 -0.1516
19266W        W36113  16.955  10.341  12.281 -0.1346  0.0614  0.0910
19267W        W36114  11.336  10.710   1.287 -0.0478 -0.0097  0.2069
19268W        W36115   2.293   7.428  12.187 -0.0420  0.0283 -0.1122
19269W        W36116  19.717   9.403   2.008  0.2916  0.1301 -0.2684
19270W        W36117  15.257  10.278  11.198  0.4205 -0.4041  0.0411
19271W        W36118   4.531  10.893   2.178 -0.2617  0.0383  0.0780
19272W        W36119   8.954  17.614  13.029  0.0870  0.1562  0.0278
19273W        W36120   7.755   2.598   4.613  0.1725 -0.3523  0.0503
19274W        W36121  11.044   1.043  11.412  0.0434  0.2586  0.0860
19275W        W36122   7.071  15.334   3.975  0.2684 -0.2368  0.2693
19276W        W36123   5.866   4.336  12.792  0.1100 -0.1634 -0.0061
19277W        W36124   1.049  18.797   4.074  0.1313  0.2362  0.1463
19278W        W36125   1.453  12.754  11.088 -0.4048 -0.0864 -0.0468
19279W        W36126   8.328   8.842  12.035 -0.2324  0.3515  0.0047
19280W        W36127   4.915  10.904  14.032 -0.4190 -0.0861 -0.1010
19281W        W36128   0.635   0.252  10.538  0.0015  0.0982  0.1004
19282W        W36129   2.512   4.188   2.641  0.2527 -0.0348  0.3655
19283W        W36130  12.925   1.612   1.892  0.2221 -0.0459 -0.0774
19284W        W36131  19.744  12.593  14.254  0.2458 -0.0930 -0.2973
19285W        W36132  15.153  13.253  12.964  0.3684 -0.1180 -0.2978
19286W        W36133   3.612   5.434  11.444 -0.0587 -0.1119 -0.0289
19287W        W36134   1.872   3.855  10.996  0.1990 -0.3356 -0.0701
19288W        W36135  11.340   3.875  13.423 -0.2570  0.2062  0.2547
19289W        W36136  10.230  13.446   0.484 -0.1079  0.1737  0.0081
19290W        W36137   7.139  13.453  10.959 -0.0060  0.4394  0.3444
19291W        W36138  15.753   6.140   4.861 -0.1073 -0.1993  0.1143
19292W        W36139   2.318  10.878   3.665 -0.2546 -0.0486  0.2679
19293W        W36140  17.627   8.580   0.975 -0.0487  0.0316  0.0438
19294W        W36141  10.453   8.030   9.697 -0.4052 -0.2730  0.2970
19295W        W36142   6.295  17.732  11.098 -0.0189  0.0857  0.0093
19296W        W36143   3.466   6.877   0.966 -0.0973 -0.3425  0.0754
19297W        W36144   1.748   4.283   4.031 -0.0969 -0.3501 -0.5264
19298W        W36145  12.662  12.692  10.597 -0.1524  0.1233  0.1414
19299W        W36146   0.554   8.065  13.096  0.1320  0.1565 -0.1554
19300W        W36147   0.512  15.825   0.043  0.1730 -0.1479  0.2858
19301W        W36148  15.815   9.780   0.494  0.0612  0.2640  0.2286
19302W        W36149  18.843  19.348  10.549  0.0026  0.1367 -0.3610
19303W        W36150  16.739   4.849  12.455 -0.3395  0.1969  0.0849
19304W        W36151  19.548   0.557   5.308 -0.2785  0.0471 -0.1940
19305W        W36152   4.711  17.271   1.723 -0.0239  0.2677  0.1951
19306W        W36153  15.117  13.698   2.561 -0.3078 -0.1826 -0.1207
19307W        W36154  15.265   3.726  10.078  0.1470 -0.1572 -0.1209
19308W        W36155   5.360  10.011  10.309 -0.0824  0.0661  0.2802
19309W        W36156  17.599  11.664   4.865 -0.3806  0.3497  0.0481
19310W        W36157   0.821  10.730  12.280 -0.0732  0.0237 -0.1247
19311W        W36158  10.714  19.600  10.363  0.1085 -0.1510  0.2044
19312W        W36159  12.902  14.382  12.035  0.2972  0.1303  0.1106
19313W        W36160  13.425   1.842   4.213  0.3792 -0.3340 -0.0869
19314W        W36161   6.547  17.435   2.114 -0.2933 -0.0185  0.3638
19315W        W36162   1.337   9.678  12.406  0.1081 -0.0523  0.0413
19316W        W36163   2.665  15.503   2.161 -0.3378 -0.0974 -0.1063
19317W        W36164   9.352  11.610   0.324  0.0740 -0.0850 -0.0414
19318W        W36165   1.877  11.608  10.121  0.2937 -0.2175 -0.0678
19319W        W36166  16.735   1.407  11.721  0.2671  0.4737 -0.0924
19320W        W36167  13.168  10.000   0.812 -0.1623 -0.0299 -0.2035
19321W        W36168   9.734  12.359   0.915 -0.3591  0.0466 -0.0217
19322W        W36169  11.360   6.370  12.040  0.1185  0.3760 -0.0976
19323W        W36170   1.283  15.466   2.311  0.1318 -0.0054  0.4293
19324W        W36171  10.129   6.415   4.762  0.0276  0.2178 -0.1693
19325W        W36172   0.338   6.483   0.490  0.1416 -0.0408  0.1355
19326W        W36173   2.156   4.214   3.152 -0.1896  0.1854  0.0342
19327W        W36174  14.052  19.848  10.892 -0.2859 -0.0631  0.1823
19328W        W36175   8.738   4.770   2.967  0.2552 -0.2004 -0.1581
19329W        W36176  11.398   8.414  12.282  0.0366 -0.1591  0.3541
19330W        W36177   3.238  13.613  11.986 -0.0462  0.2499  0.3059
19331W        W36178   9.429   8.633   4.259 -0.2037 -0.2088  0.3078
19332W        W36179  15.489   6.973   0.094 -0.2375 -0.2104  0.1288
19333W        W36180  15.768  12.806   2.642 -0.0462  0.2462 -0.0977
19334W        W36181  11.451  18.373  13.857 -0.1348  0.0900  0.1107
19335W        W36182  17.869  14.373  13.293 -0.2910  0.2811  0.1139
19336W        W36183   6.975   6.261  10.462  0.0332  0.2139 -0.0253
19337W        W36184  15.552  17.873   0.196  0.3635 -0.1176 -0.2175
19338W        W36185   6.381   6.099   3.690 -0.0908 -0.1943 -0.2600
19339W        W36186  17.472   7.171   0.747 -0.0328  0.2152 -0.0766
19340W        W36187  10.177   6.871   4.880 -0.0650  0.0332 -0.2124
19341W        W36188  16.948  12.618   1.377 -0.0493 -0.0833 -0.0430
19342W        W36189  10.413  15.125   2.850 -0.2870 -0.2616 -0.1497
19343W        W36190   8.296  12.134   3.559 -0.0853 -0.0762  0.1939
19344W        W36191  14.725  15.194   3.707  0.3786 -0.0613  0.0234
19345W        W36192   9.096  10.220  11.439 -0.1950 -0.1721 -0.1069
19346W        W36193  13.024  10.555   5.196  0.2677  0.1083 -0.1225
19347W        W36194   0.523  16.790   2.636 -0.1709  0.0415  0.1559
19348W        W36195   5.778   6.314   0.746 -0.0325  0.0171 -0.0913
19349W        W36196   1.289   7.304  12.938 -0.0921 -0.1538 -0.0137
19350W        W36197   7.418  17.226   1.179  0.1766 -0.0863 -0.0583
19351W        W36198  19.891   8.909  12.210  0.3960  0.1478  0.0551
19352W        W36199  10.402  18.621   3.221  0.0826 -0.0084  0.0379
19353W        W36200  16.474   3.476   3.247  0.0939  0.1340 -0.0745
19354W        W36201  13.758  11.603   9.605  0.6726  0.3301 -0.2163
19355W        W36202   3.864   2.415   1.581 -0.1109  0.1075  0.0540
19356W        W36203  12.318  18.161  12.447  0.1769  0.2656 -0.2480
19357W        W36204  15.133   5.496  10.880 -0.0179  0.0287  0.0605
19358W        W36205   2.007  12.957  11.197 -0.1412 -0.1576 -0.2781
19359W        W36206   6.339   6.614   3.713 -0.2536 -0.0647  0.1153
19360W        W36207  13.512   7.604  11.433 -0.1570 -0.3168  0.0761
19361W        W36208   4.441   5.721  13.905 -0.0660 -0.1387 -0.0516
19362W        W36209  11.477   4.821  11.105  0.2097 -0.0921 -0.0003
19363W        W36210  13.727  16.247  10.866 -0.2948  0.0493  0.3222
19364W        W36211  16.565   7.083   3.897 -0.2342  0.1000 -0.1817
19365W        W36212   9.294   0.126   0.159  0.1206  0.0389 -0.2745
19366W        W36213  14.123  15.426   0.259 -0.3982  0.1182  0.2060
19367W        W36214  17.527   3.338   2.454 -0.0425  0.1279  0.0016
19368W        W36215  10.851   8.307  13.958 -0.3300  0.2048  0.0537
19369W        W36216   4.428   1.802   4.195 -0.1616  0.0229 -0.0389
19370W        W36217  17.660   2.866   3.161 -0.1204  0.0979  0.0785
19371W        W36218   0.799   2.956   2.570 -0.3830 -0.1627 -0.0176
19372W        W36219  10.669   7.638   1.808  0.1698 -0.3311  0.2536
19373W        W36220  14.509  16.335   4.549  0.0447 -0.2505  0.3488
19374W        W36221   0.618  17.170   3.720 -0.1641  0.0589  0.0890
19375W        W36222  10.950  19.347   1.017 -0.4177  0.3549  0.0561
19376W        W36223   9.573  14.212  11.635 -0.0774  0.2198 -0.1147
19377W        W36224  11.303   3.560   1.731  0.4367  0.1383 -0.2967
19378W        W36225  18.215  10.545   3.755  0.3965  0.4561 -0.2856
19379W        W36226   5.764   5.024   1.887  0.0331  0.1907  0.1452
19380W        W36227   5.912   9.200   4.211 -0.1461 -0.1950  0.0788
19381W        W36228   8.170   1.184   1.792  0.0504  0.1397  0.1156
19382W        W36229  13.914  19.437   0.158  0.0115  0.0882 -0.0584
19383W        W36230   0.820  19.199   0.102 -0.0107 -0.1767  0.2440
19384W        W36231   9.785  18.519  13.545 -0.0935 -0.2525  0.4442
19385W        W36232  11.920  19.587  13.532  0.1848  0.2124 -0.2554
19386W        W36233   4.963  11.998  12.408  0.1408 -0.2009  0.0215
19387W        W36234  16.518  10.013  10.522  0.0731  0.1003 -0.0930
19388W        W36235   5.329  12.499  14.227  0.0704 -0.2694 -0.2320
19389W        W36236  17.375   0.128   2.592  0.0028 -0.1501  0.3967
19390W        W36237  17.062   8.258  12.775  0.2973  0.0588 -0.0641
19391W        W36238   3.791  18.067  12.626  0.2372  0.1747  0.0702
19392W        W36239  16.793  15.444   1.233  0.3228 -0.3922 -0.1502
19393W        W36240   9.867  11.121  11.954 -0.2032 -0.0518  0.0494
19394W        W36241   7.228  18.331  13.633  0.1337  0.0732 -0.0554
19395W        W36242  11.189  12.439  11.504  0.1376 -0.0304  0.1143
19396W        W36243  10.410   0.292   0.244 -0.1924  0.1807  0.0638
19397W        W36244  10.829   6.661  11.371 -0.1107 -0.0622  0.0510
19398W        W36245   6.597   9.756   4.859 -0.0160 -0.2334  0.5722
19399W        W36246   1.582   1.909   4.316 -0.0123  0.0977 -0.1829
19400W        W36247   8.850  10.050   4.398  0.0837  0.3818  0.1414
19401W        W36248  16.018   6.773   1.467  0.0780 -0.1825 -0.1559
19402W        W36249   3.374   6.311   3.139 -0.1694  0.2826 -0.1316
19403W        W36250   4.127   3.131   3.823 -0.1884  0.1836  0.0031
19404W        W36251  13.720   7.820  10.488  0.2491  0.2216  0.0903
19405W        W36252   1.440   3.161  11.521  0.0320 -0.0269  0.0555
19406W        W36253  10.275  19.121  10.050 -0.4508  0.0866  0.1637
19407W        W36254  11.577   3.856   0.604  0.0159  0.3062  0.2811
19408W        W36255   1.543  18.327   3.136 -0.3525  0.2920  0.2637
19409W        W36256   9.670   5.739   5.397  0.2535  0.1822  0.0932
19410W        W36257   2.692  18.255  12.069  0.0373 -0.1845  0.0191
19411W        W36258  10.946  14.277   1.751 -0.1319 -0.0651 -0.2992
19412W        W36259   9.643  14.375  12.122 -0.2952  0.0861  0.1079
19413W        W36260   0.178   3.020  11.397 -0.0336 -0.2539 -0.2782
19414W        W36261   1.724  12.041   1.287 -0.2639  0.0460  0.1150
19415W        W36262  19.036   2.546  10.620 -0.0187 -0.1467 -0.2972
19416W        W36263   9.857   3.478  10.025 -0.4438 -0.0381  0.3481
19417W        W36264   6.039   3.910   3.773  0.2199 -0.0687 -0.1422
19418W        W36265  17.363   5.696  10.695  0.0460  0.1896  0.1244
19419W        W36266   6.144   0.813   3.653  0.1279  0.0180  0.1400
19420W        W36267  12.264   4.889  11.835  0.1606 -0.1985 -0.2824
19421W        W36268  16.934  10.290   1.210  0.2647 -0.1338 -0.1420
19422W        W36269   2.200  19.793  14.113 -0.3442  0.0221 -0.1338
19423W        W36270   8.564   3.284   2.411 -0.0909  0.0218 -0.2696
19424W        W36271  17.341   0.988  12.757  0.0282  0.0152 -0.1607
19425W        W36272  10.401  15.007   3.374 -0.0108  0.1880 -0.0316
19426W        W36273  16.641   0.933  11.141  0.0149 -0.0426  0.2718
19427W        W36274  12.070  14.141  12.484  0.4721 -0.0249  0.0382
19428W        W36275  15.106  11.571   2.491 -0.0938  0.1639 -0.1501
19429W        W36276   4.531   9.267   1.359  0.4108  0.0606  0.1220
19430W        W36277  12.078  16.045   3.985  0.1180  0.1105  0.3539
19431W        W36278   9.656  10.745   4.076 -0.0132  0.4833 -0.1010
19432W        W36279   5.836  17.811  14.226  0.0455 -0.1363 -0.3385
19433W        W36280  19.864  10.905   4.249 -0.0892  0.2062 -0.2710
19434W        W36281  13.387   8.297   0.633 -0.1100  0.4201 -0.2819
19435W        W36282   2.520   8.553   3.797  0.2999  0.1880  0.1017
19436W        W36283  14.248   3.859  13.799 -0.2126 -0.0230 -0.1410
19437W        W36284   4.198   2.076   3.854  0.0688 -0.2520  0.3462
19438W        W36285  19.893  18.643   0.535 -0.2573 -0.2220 -0.0394
19439W        W36286   2.865  19.525   3.263  0.1030 -0.2745 -0.0378
19440W        W36287  14.101  13.916   2.725  0.1078  0.0031 -0.1193
19441W        W36288   8.416  13.272   2.804 -0.3601  0.1926  0.0402
19442W        W36289   1.189  13.894  11.776 -0.0933 -0.0701  0.0943
19443W        W36290  12.746   9.153   1.990 -0.2110 -0.1035  0.2505
19444W        W36291  19.368   6.249  11.383 -0.1507 -0.0096  0.0439
19445W        W36292   0.188   5.918  11.554 -0.1457 -0.1363  0.1103
19446W        W36293   7.926   0.384   4.242 -0.1983  0.0002 -0.3232
19447W        W36294  11.621  19.788   1.539  0.3959  0.2370 -0.0084
19448W        W36295   8.250  16.971  12.740  0.1581  0.2497 -0.1016
19449W        W36296  18.925   4.414  11.593  0.1631 -0.1434 -0.1723
19450W        W36297  12.220   1.264  10.669 -0.4464 -0.0389 -0.2417
19451W        W36298  15.463   6.995  13.510  0.1136 -0.2153  0.1217
19452W        W36299  11.793   3.854  11.339  0.1671  0.0302 -0.1235
19453W        W36300  10.586   1.799  11.127 -0.0411  0.3164 -0.0377
19454W        W36301   0.794   5.972   2.030 -0.0467 -0.1273  0.1186
19455W        W36302   9.905  16.649  13.775 -0.0757 -0.0175  0.3816
19456W        W36303  13.604   7.768   3.914 -0.1535 -0.0285 -0.0588
19457W        W36304   2.855  13.489   2.984  0.0574 -0.1315  0.1767
19458W        W36305   1.271  15.405  12.150  0.0573 -0.0254  0.3344
19459W        W36306  17.937  19.479   5.612  0.0873 -0.0169 -0.3610
19460W        W36307   2.528  10.095  13.207 -0.0310  0.1468  0.3018
19461W        W36308   7.007   6.187  13.068  0.2306 -0.3731 -0.2088
19462W        W36309  11.002  11.116   0.782 -0.0408 -0.2273 -0.2271
19463W        W36310   6.345   8.218  10.488 -0.1912 -0.0453  0.0065
19464W        W36311  10.552   3.096   2.932  0.1287 -0.1114  0.1399
19465W        W36312   3.350   0.561   4.265 -0.0085  0.3472  0.3046
19466W        W36313   1.170   5.973   9.740  0.1422  0.0140 -0.0742
19467W        W36314  13.741   3.778   4.334  0.0087 -0.2394 -0.1796
19468W        W36315  10.889  11.560  13.395 -0.3415  0.1504  0.2543
19469W        W36316   3.164   7.038   3.580 -0.1373 -0.0164 -0.0088
19470W        W36317  14.287   0.537   3.638  0.0597 -0.4494 -0.1775
19471W        W36318  19.013   1.729   1.442 -0.2144  0.0836 -0.0961
19472W        W36319  14.833  13.323   0.133  0.3173  0.2821  0.2190
19473W        W36320   6.982  14.909  12.740 -0.2033  0.1991  0.0751
19474W        W36321   8.514  11.799  13.049  0.2310 -0.0931 -0.0213
19475W        W36322  12.742  17.817  11.171 -0.2827  0.0949  0.0939
19476W        W36323  15.035  12.817   3.690 -0.4323 -0.3229  0.3660
19477W        W36324   0.463  17.961  13.767  0.1465 -0.0041 -0.0449
19478W        W36325  16.519  14.831  11.712  0.3107 -0.2722 -0.2977
19479W        W36326  11.580  15.590  13.392 -0.1368  0.0576  0.1466
19480W        W36327  17.921   6.210   0.406 -0.3302 -0.3806  0.0314
19481W        W36328  14.069   4.160   3.508  0.3035  0.0969  0.0082
19482W        W36329  16.735   7.253   9.801 -0.1320 -0.0633 -0.0623
19483W        W36330  16.975   7.190   0.969  0.2354 -0.0519 -0.2314
19484W        W36331  19.271  16.560   5.213  0.0838 -0.1102 -0.0775
19485W        W36332   2.610   9.056   2.094 -0.3750 -0.0125  0.0366
19486W        W36333   5.619   5.534   2.714 -0.0174 -0.1699 -0.0694
19487W        W36334   6.186   2.146   2.664 -0.1656 -0.2696 -0.1055
19488W        W36335  14.872   3.023   2.284 -0.2687 -0.3540 -0.4307
19489W        W36336  11.664  18.129   1.242 -0.0968  0.0509  0.0078
19490W        W36337   1.875   8.415   1.997 -0.0559  0.1680  0.1330
19491W        W36338   3.062   9.703   4.237  0.3815  0.0720  0.0419
19492W        W36339  15.771   1.073  11.330 -0.4699  0.1062  0.0403
19493W        W36340  11.267   7.253   0.620 -0.0198  0.0709  0.0894
19494W        W36341  16.517  16.369   0.927  0.0678 -0.1293 -0.0905
19495W        W36342  13.767  13.535  11.728 -0.2632 -0.1942  0.0308
19496W        W36343  15.648  12.828   1.328  0.0579 -0.0265 -0.1425
19497W        W36344  19.021   3.703  12.815 -0.3179  0.1277  0.3021
19498W        W36345  17.458  11.088  13.447 -0.0198  0.2387 -0.2077
19499W        W36346  12.571   0.350   1.243 -0.0207  0.2821 -0.3790
19500W        W36347  12.872   9.812   4.023  0.1036 -0.0930  0.0413
19501W        W36348  18.238  12.904   2.287  0.3110 -0.2838 -0.3060
19502W        W36349  14.881   4.227   3.395  0.0823  0.2032  0.3328
19503W        W36350  14.166   0.818   5.009  0.1761  0.3391  0.4793
19504W        W36351   4.274  11.921   1.168  0.1669 -0.3169 -0.3111
19505W        W36352   5.830  15.664  11.298 -0.1948  0.0889  0.0986
19506W        W36353  14.532   0.444  13.049 -0.0213  0.2636  0.1630
19507W        W36354   9.339  11.675   1.491  0.1791 -0.1256 -0.0085
19508W        W36355  17.529   0.422  11.899 -0.0730 -0.1852  0.1123
19509W        W36356   3.577  10.593   2.163  0.0556  0.0607  0.2791
19510W        W36357  19.773   6.685   3.406 -0.3735 -0.2244  0.0983
19511W        W36358   3.593   9.863  12.519  0.0798  0.0502 -0.1223
19512W        W36359   8.280   5.060  10.005 -0.0879 -0.0791 -0.2554
19513W        W36360   1.105   6.351  12.277 -0.1021 -0.1780  0.0535
19514W        W36361   0.212   0.820  10.322 -0.0230  0.3289  0.0130
19515W        W36362   1.985   2.920   3.282  0.1366 -0.2008  0.0984
19516W        W36363  17.530  17.268   2.689  0.0616 -0.2078 -0.2114
19517W        W36364  12.419   4.269   0.746  0.3098 -0.4489  0.0680
19518W        W36365   8.029  17.224   1.150 -0.2962  0.0349 -0.0693
19519W        W36366   1.978   7.722   2.554  0.0011  0.5204 -0.2496
19520W        W36367   4.042  14.659  13.280  0.0165 -0.0273 -0.1364
19521W        W36368  18.371   0.470   0.317  0.1300  0.0343  0.0669
19522W        W36369  11.979   4.623   5.094 -0.0836  0.1362  0.2288
19523W        W36370   7.706   4.876  12.503 -0.1462 -0.2753 -0.3593
19524W        W36371   3.002  14.628  13.041  0.0073  0.0561  0.1545
19525W        W36372  18.207   4.199   2.225  0.0997  0.2249  0.2480
19526W        W36373   3.562   5.338  13.756  0.0650  0.1029 -0.0327
19527W        W36374  12.323   3.727   5.158 -0.0162  0.1803  0.0586
19528W        W36375  12.586   1.167   3.240 -0.0851  0.2290 -0.2066
19529W        W36376   1.065  10.420   3.758  0.2870  0.0575 -0.2265
19530W        W36377  16.123  11.253   2.990 -0.2517  0.0750  0.1086
19531W        W36378   7.608  15.197  12.813 -0.1469  0.1481  0.0519
19532W        W36379   2.541  16.578   9.382 -0.1143  0.0400  0.0918
19533W        W36380   4.870  15.196   3.698 -0.0702  0.0239 -0.1948
19534W        W36381   0.652   2.864   4.471  0.0010  0.1200 -0.1887
19535W        W36382   8.549  14.709  13.878  0.2204  0.0725  0.3176
19536W        W36383  16.923   5.846  10.961  0.3489 -0.2327 -0.1247
19537W        W36384  16.234  13.241  10.346 -0.2144 -0.0530 -0.0628
19538W        W36385  14.061  13.757  13.580 -0.0697  0.1209  0.1825
19539W        W36386  18.459   7.095  13.046 -0.1654 -0.2712  0.4233
19540W        W36387  19.124   5.784  11.645 -0.0932 -0.0125  0.0312
19541W        W36388  10.791  12.417   4.086 -0.2152 -0.0528 -0.4540
19542W        W36389   4.094  15.250  12.376 -0.0633  0.1421 -0.0967
19543W        W36390  16.722   6.739   4.830 -0.3359 -0.2209 -0.3055
19544W        W36391   7.325  15.033  10.043  0.0006  0.0344 -0.0353
19545W        W36392  14.908  18.921   0.034 -0.0587  0.4558 -0.3469
19546W        W36393   9.212   9.015  12.259  0.3374 -0.1708 -0.2814
19547W        W36394  14.655   7.689  10.800  0.0968  0.2567 -0.2499
19548W        W36395  14.563   2.829  13.090  0.0110 -0.0430  0.0076
19549W        W36396   0.507  13.494  14.239 -0.0362  0.0986  0.2096
19550W        W36397   5.424  11.548   0.217  0.0046  0.1180  0.0273
19551W        W36398  11.498  18.304  10.957 -0.2386  0.1983 -0.1783
19552W        W36399   8.890  10.938  12.541 -0.0466  0.1405  0.0260
19553W        W36400  17.439  15.066  12.669 -0.0232 -0.1426  0.0062
19554W        W36401  16.896  13.792  11.056  0.0106  0.0532 -0.0855
19555W        W36402   1.871  10.236  10.058 -0.0715 -0.0753  0.0521
19556W        W36403  14.103  13.040  12.278 -0.0863  0.2279 -0.2470
19557W        W36404   7.392  11.819   4.539 -0.1796 -0.0929  0.0130
19558W        W36405  13.876   4.827  12.400  0.0522 -0.2202 -0.0706
19559W        W36406   9.273  15.462   2.630  0.0247  0.3381 -0.0400
19560W        W36407  19.113   0.205  13.683 -0.0720 -0.2156  0.0286
19561W        W36408  15.979  13.363  10.827 -0.2694  0.0122 -0.0421
19562W        W36409   5.120  15.369  10.310  0.1852  0.1530 -0.1024
19563W        W36410  18.180  15.815   2.115 -0.2857 -0.3737 -0.0140
19564W        W36411   7.500   4.063  13.171  0.0303  0.3030 -0.0664
19565W        W36412   1.207   6.512   2.645  0.0809 -0.1704 -0.5584
19566W        W36413   2.668   0.150   1.561  0.1897  0.2983  0.1300
19567W        W36414  12.976   6.709  10.960  0.1047  0.0017  0.0678
19568W        W36415  11.444   3.175   1.378 -0.4546 -0.0199 -0.2805
19569W        W36416  19.807   7.994   0.496  0.2694  0.0615 -0.1235
19570W        W36417  10.371   2.172   1.397  0.1076  0.0182  0.1113
19571W        W36418   3.053  10.522  13.553 -0.1288  0.0858 -0.1061
19572W        W36419   8.114   2.698  10.170  0.4458 -0.0493  0.1194
19573W        W36420  16.014  18.507   2.248 -0.3197  0.3149 -0.0210
19574W        W36421  12.469   3.776   0.616 -0.5202 -0.0708  0.0691
19575W        W36422   7.471   3.106  10.538 -0.2412  0.3027 -0.3671
19576W        W36423   6.455  11.268   9.341  0.0706  0.0483 -0.2942
19577W        W36424  17.666   1.142  13.112 -0.2993  0.0470  0.0448
19578W        W36425  15.558   2.688  12.333 -0.1935  0.1321 -0.0392
19579W        W36426   4.027   4.016  14.085  0.0589 -0.2830  0.0527
19580W        W36427   1.638  11.498   3.411 -0.0361 -0.2026 -0.0148
19581W        W36428  14.531   7.234  10.655 -0.0240 -0.2532  0.0924
19582W        W36429   6.171  18.137  13.808  0.0135  0.0422 -0.2103
19583W        W36430   2.504  19.047   3.854  0.0506  0.1274 -0.2576
19584W        W36431   4.136   3.795   2.117 -0.1158  0.0093  0.2377
19585W        W36432   7.212  10.260  11.918 -0.2046 -0.3404  0.2865
19586W        W36433  16.837  14.731   5.068 -0.1832 -0.0151 -0.0653
19587W        W36434   3.512   6.458   2.679  0.2053 -0.0007  0.1994
19588W        W36435   8.012  19.070   1.753 -0.2580  0.0018  0.1985
19589W        W36436   2.786  12.337   0.659 -0.2555 -0.2048 -0.1599
19590W        W36437  13.866  15.999   2.688 -0.0002  0.1871 -0.0390
19591W        W36438   3.491  16.180   3.755 -0.0964 -0.1867 -0.1089
19592W        W36439  19.786   8.916   4.058 -0.0833  0.1290  0.2092
19593W        W36440  11.960   9.810   3.347  0.4137  0.2218 -0.0217
19594W        W36441   0.220  11.605  10.503  0.1384 -0.0814 -0.0139
19595W        W36442  10.712  13.112   3.784  0.0189  0.1712 -0.0607
19596W        W36443  12.989   2.149  10.919  0.2606  0.1136 -0.0307
19597W        W36444   7.480  17.400   1.942  0.0630  0.1418 -0.3689
19598W        W36445   2.459   9.482   0.092 -0.0014  0.0540 -0.1061
19599W        W36446   3.180  11.668   3.091  0.1118  0.0971 -0.1125
19600W        W36447   6.167  10.485  13.442  0.0829 -0.1363 -0.0004
19601W        W36448   0.961  14.892   9.159 -0.0428 -0.2479  0.0022
19602W        W36449  15.551  18.056   1.174  0.2926  0.0873  0.0229
19603W        W36450  10.506   8.009  14.088  0.1884  0.0965  0.1306
19604W        W36451  16.549  15.964   4.117  0.0136  0.0834  0.2643
19605W        W36452   3.985  12.120  11.943  0.1280  0.2272 -0.0526
19606W        W36453  10.540   5.694  10.358  0.2479  0.2568 -0.0541
19607W        W36454   7.574   9.206  10.212  0.2315  0.2529  0.0995
19608W        W36455  10.070  13.078   3.180 -0.2014 -0.2028 -0.0055
19609W        W36456  17.575  13.932  13.964  0.1192 -0.1166 -0.1212
19610W        W36457  17.088  12.268  11.558  0.0207 -0.1386 -0.0917
19611W        W36458  14.857  10.713   1.311  0.1730  0.2516 -0.0995
19612W        W36459  11.378   0.589   3.148 -0.1007 -0.0653  0.3275
19613W        W36460   3.599  15.821   0.513  0.2209  0.0510  0.0281
19614W        W36461   7.631   5.297  13.651 -0.0385  0.1595 -0.1360
19615W        W36462  11.999  13.096   1.558 -0.0966 -0.3139 -0.0038
19616W        W36463   1.091  10.646  10.415 -0.1670  0.0185 -0.0705
19617W        W36464   6.250   1.979  12.633  0.1986 -0.2182  0.2419
19618W        W36465   6.549   3.997  13.648  0.1946 -0.2071  0.2941
19619W        W36466   3.378   3.513   1.789 -0.0571 -0.0440  0.0694
19620W        W36467   8.742   6.693   2.132 -0.2721 -0.2257 -0.2696
19621W        W36468   6.361  16.851   1.032 -0.1753 -0.1261  0.1781
19622W        W36469  12.706  11.549   3.924 -0.0282  0.2894  0.3533
19623W        W36470   7.564   4.174  13.669  0.0713 -0.1111  0.0240
19624W        W36471   6.883  18.906  10.750 -0.0798  0.0441  0.2502
19625W        W36472   8.599   6.578  13.936 -0.0792 -0.0988 -0.0512
19626W        W36473  17.351   6.767  11.927 -0.1722  0.3840 -0.0218
19627W        W36474  15.043  16.013   5.558 -0.0342 -0.3034  0.3542
19628W        W36475   6.440  17.262   1.403 -0.2901 -0.2532 -0.1209
19629W        W36476  15.595   5.569  10.250 -0.2293  0.1185 -0.2753
19630W        W36477  13.408  10.060   2.756  0.2837 -0.0935  0.0538
19631W        W36478   2.444   4.836  10.347  0.3322  0.1879  0.1924
19632W        W36479   2.578  14.085   1.730 -0.1065 -0.0812 -0.1507
19633W        W36480  16.297  12.908   8.951 -0.2521 -0.2256 -0.0877
19634W        W36481  17.641  14.757  11.644 -0.0228  0.4690  0.0162
19635W        W36482  16.834  13.683  12.808  0.0452 -0.0923 -0.0890
19636W        W36483  12.626  11.226   4.263  0.0443 -0.0792 -0.1147
19637W        W36484  16.135   1.351   2.867 -0.3140  0.1150 -0.3948
19638W        W36485  12.840   3.100   2.486 -0.1930 -0.1092 -0.2336
19639W        W36486   0.660   6.941   0.314 -0.2812 -0.0544  0.0234
19640W        W36487   7.119   4.660   4.238 -0.1659  0.2039  0.0111
19641W        W36488   0.418  17.307  10.874 -0.2499 -0.0540 -0.0356
19642W        W36489  10.836  10.826   1.258 -0.0664 -0.3627 -0.1568
19643W        W36490  19.616   8.388  12.198  0.2072 -0.2753  0.0326
19644W        W36491   1.176   8.240  12.242 -0.3180 -0.1172  0.0549
19645W        W36492  14.435   2.886   2.378  0.2840 -0.0347 -0.2694
19646W        W36493   9.538  13.836  13.977  0.1704 -0.0782 -0.1060
19647W        W36494  14.607   9.289  14.222 -0.2057 -0.1271 -0.4160
19648W        W36495  15.811  13.478  11.327  0.0523 -0.1436  0.1903
19649W        W36496  16.782  14.210  13.939 -0.0853 -0.1003  0.0872
19650W        W36497  15.704  11.290   5.108 -0.0769  0.0405  0.1785
19651W        W36498  13.252  15.691   0.918 -0.0667  0.3213  0.0898
19652W        W36499   1.123   1.958   1.363 -0.0401  0.2405  0.1126
19653W        W36500  13.077  17.874   4.540 -0.4014 -0.3058 -0.1357
19654W        W36501   4.755   2.289   3.848  0.2150  0.0804 -0.0354
19655W        W36502  15.318   9.516  12.546 -0.1693 -0.4540 -0.4635
19656W        W36503  10.302  19.011   1.534  0.1943 -0.0338  0.2579
19657W        W36504  15.592   5.989   1.731  0.0498  0.0364  0.4949
19658W        W36505   5.500   7.932  13.187  0.3571  0.1401  0.0753
19659W        W36506  10.918  18.345  11.737 -0.3512 -0.0087  0.3636
19660W        W36507  15.573  13.454  10.445 -0.1481  0.2699  0.0118
19661W        W36508   2.721  19.218  13.637  0.1603 -0.0211 -0.0622
19662W        W36509   2.878  18.166  12.566  0.0629 -0.2202  0.2405
19663W        W36510   5.535   1.745  11.579  0.3552 -0.2117  0.0193
19664W        W36511  13.591   7.044  12.632  0.0861  0.0104  0.1283
19665W        W36512   8.473  17.202   3.856  0.1064 -0.1986 -0.1550
19666W        W36513  18.880   1.950   3.038 -0.3251  0.1698 -0.1171
19667W        W36514  12.713  16.222   9.416  0.0402  0.0133 -0.2001
19668W        W36515  15.021  10.927  12.289 -0.0185  0.0657 -0.2757
19669W        W36516   9.269  18.129  12.097 -0.2282  0.1066 -0.3311
19670W        W36517   3.982   6.719  13.207 -0.1363 -0.1519 -0.1843
19671W        W36518   1.138   6.237  13.383  0.2313 -0.1994  0.3415
19672W        W36519  17.610   7.602   0.520 -0.2445 -0.0495  0.1239
19673W        W36520   5.897   3.082   2.232 -0.0608  0.0133 -0.3393
19674W        W36521  18.835   3.503   5.245 -0.0752 -0.0802 -0.0458
19675W        W36522   6.977   8.924  12.568 -0.0090  0.0726 -0.2792
19676W        W36523  16.448   6.733  12.301 -0.1511 -0.0951 -0.0779
19677W        W36524   0.688  18.367   0.829 -0.1611  0.3448 -0.2575
19678W        W36525   5.221   5.864  13.318  0.2111  0.0618  0.2293
19679W        W36526  18.917  17.285  11.044  0.1897 -0.0496 -0.3903
19680W        W36527   5.290   9.739  11.606 -0.0590 -0.0396  0.3042
19681W        W36528  15.485  18.425  12.212  0.0044 -0.2672 -0.0944
19682W        W36529   9.188   4.051   5.138  0.0316  0.0987  0.0079
19683W        W36530   0.867  17.116  11.718 -0.1251 -0.3708 -0.0224
19684W        W36531   0.140  19.109   4.801  0.1818  0.0252  0.0776
19685W        W36532   6.295   7.107   5.156 -0.0113 -0.0993  0.2373
19686W        W36533   6.596  12.589   3.313 -0.2449  0.0556  0.1224
19687W        W36534  18.387  11.198  12.400 -0.1281  0.0112  0.1352
19688W        W36535  14.793   3.075   1.404 -0.0762 -0.0244  0.1028
19689W        W36536   6.302   0.358   3.710  0.3656 -0.0581 -0.0400
19690W        W36537  14.328   5.356  13.364  0.2649  0.1400 -0.1575
19691W        W36538   0.309  10.059  11.536 -0.3144 -0.3751  0.3995
19692W        W36539  19.516  16.332   0.002  0.2812 -0.0688  0.1429
19693W        W36540   8.757   6.031   1.761 -0.2728 -0.1303 -0.1278
19694W        W36541   1.223  17.840   3.267 -0.0933 -0.2573 -0.2586
19695W        W36542  17.651   0.628  12.390 -0.0132  0.0618 -0.0558
19696W        W36543   4.448   4.036   0.429  0.1584  0.0462  0.1246
19697W        W36544   1.523  13.298  11.208 -0.0271  0.2828 -0.0580
19698W        W36545  14.862   1.685   4.101  0.1145  0.1169 -0.0581
19699W        W36546   8.405   8.013   3.075  0.0542 -0.0471  0.1038
19700W        W36547   9.730  19.356  11.729  0.0595  0.0368  0.1261
19701W        W36548  15.003   3.663   0.127 -0.4114  0.3065 -0.1600
19702W        W36549   2.292  13.400  14.192 -0.0417  0.0452 -0.1018
19703W        W36550  14.951   4.520   1.261 -0.1877  0.1307 -0.0487
19704W        W36551   6.988   5.695   2.568  0.4039 -0.0287 -0.1437
19705W        W36552  10.340   5.088  11.503  0.1647 -0.1290  0.2192
19706W        W36553   9.791   7.274  12.289  0.1317  0.2938  0.2749
19707W        W36554  11.761  10.686   0.497  0.0434  0.0962 -0.2109
19708W        W36555   8.331  13.361   0.307 -0.1725  0.0202 -0.1251
19709W        W36556   6.440  18.065   0.791  0.0542 -0.0413 -0.3730
19710W        W36557  16.129   5.037   2.002  0.3359 -0.2414  0.0191
19711W        W36558  12.211  16.774   1.940  0.3440 -0.0808 -0.1155
19712W        W36559   3.705  14.047   2.596 -0.0784 -0.0137  0.0199
19713W        W36560   6.525   3.032   2.968 -0.1609 -0.1462  0.0421
19714W        W36561  19.310  13.087  12.773  0.1641  0.1058 -0.1722
19715W        W36562  14.742   1.473  10.840 -0.1533  0.0201 -0.1116
19716W        W36563  17.637  13.170  11.529  0.1212 -0.1934 -0.0839
19717W        W36564   2.448   7.842  10.148 -0.2623 -0.1700 -0.0773
19718W        W36565  14.958   8.159  10.768 -0.0088 -0.1123  0.3008
19719W        W36566  14.803  17.837  13.485 -0.0036  0.2858 -0.1863
19720W        W36567  16.259   6.935   3.027 -0.0646  0.2329  0.1027
19721W        W36568   9.928   5.905   4.599  0.2010  0.1401  0.0590
19722W        W36569  15.526   5.102  13.884 -0.1509 -0.1339 -0.3432
19723W        W36570   1.694  10.579   1.623  0.2480 -0.0582  0.0645
19724W        W36571  15.101  18.352   0.767  0.3549 -0.0087 -0.0805
19725W        W36572   9.889   1.467   1.889  0.1843 -0.1558 -0.0745
19726W        W36573   5.404  18.513   4.654 -0.1880  0.0371 -0.1519
19727W        W36574  10.586  13.676   2.615 -0.3894  0.0196  0.1814
19728W        W36575   4.880  19.460  12.204 -0.1046  0.2679  0.0647
19729W        W36576   3.958  12.709  13.552  0.3156 -0.0938  0.2760
19730W        W36577   8.134  13.001  13.312  0.0858 -0.2391  0.1980
19731W        W36578  18.706   4.098   5.193  0.1859  0.3494 -0.3332
19732W        W36579  15.043  12.239   1.462  0.1382 -0.0036  0.2568
19733W        W36580  11.885   1.353   2.852 -0.1589 -0.1702 -0.1097
19734W        W36581  19.777   4.430   3.189 -0.1875  0.0046  0.1499
19735W        W36582  15.184   7.338   3.209  0.2001 -0.0681 -0.5238
19736W        W36583  15.191   0.811  13.178 -0.0126  0.2160 -0.0985
19737W        W36584   2.620  18.039  14.271 -0.2216  0.3021  0.2466
19738W        W36585   5.487   0.202   0.369  0.2322  0.0233  0.3627
19739W        W36586   3.172   1.004  11.298  0.0499  0.2457  0.0332
19740W        W36587   5.632  11.955   2.791 -0.2996  0.0730  0.2885
19741W        W36588  15.411   0.679   1.140  0.0283 -0.1423 -0.2130
19742W        W36589   1.629   2.403   9.864  0.0338 -0.2800 -0.1104
19743W        W36590  15.269  13.329  12.517  0.0388 -0.0563 -0.1216
19744W        W36591  16.100  18.214   2.711 -0.1991  0.2480 -0.5454
19745W        W36592  10.586  16.522   0.989 -0.1146 -0.3837  0.2044
19746W        W36593  15.344   9.491   1.625  0.2982  0.1392  0.0200
19747W        W36594   7.263   9.249   0.714 -0.3694  0.1847  0.0206
19748W        W36595   5.209   8.990  14.253 -0.1497  0.1413  0.1046
19749W        W36596  16.703  11.713   9.353 -0.2900  0.1457 -0.2648
19750W        W36597  15.540  17.779   3.881 -0.1305 -0.2699 -0.0725
19751W        W36598   5.352   0.740  10.695  0.0495 -0.1960 -0.0211
19752W        W36599  15.853   2.737   0.722  0.2560  0.0181 -0.0388
19753W        W36600  14.652   6.010   2.167  0.2047 -0.3144 -0.0114
19754W        W36601  11.631   4.852  10.616 -0.1604 -0.4999 -0.0041
19755W        W36602   9.292  15.880  14.225  0.0988 -0.1530 -0.2495
19756W        W36603  11.370  17.934   1.584  0.1255  0.0905 -0.5725
19757W        W36604   5.598   4.550  10.559 -0.0472  0.0239 -0.2263
19758W        W36605  18.736   0.351  11.014  0.1507  0.0055 -0.0410
19759W        W36606  17.328   7.580   2.755 -0.0064  0.0258  0.1636
19760W        W36607  12.398  12.317  12.574  0.0705  0.0365  0.1512
19761W        W36608   8.384   2.625  13.504  0.0619  0.3653  0.2190
19762W        W36609  10.984  16.688   9.852  0.2251 -0.1132 -0.1314
19763W        W36610  16.952   8.245   4.974  0.2253 -0.1832  0.0934
19764W        W36611  15.027  13.176   0.988 -0.2771  0.1209  0.0491
19765W        W36612   9.815  19.196   1.426 -0.0847 -0.0720 -0.2031
19766W        W36613  14.222  16.350   3.162  0.0496  0.2514 -0.3634
19767W        W36614  17.686   3.634   5.362 -0.1793 -0.0161 -0.0081
19768W        W36615  12.453  15.366  12.998 -0.1644 -0.2194  0.0218
19769W        W36616  16.435   5.745  13.083  0.0020  0.0014  0.1252
19770W        W36617   1.578  10.575   4.968 -0.0138 -0.0444 -0.1606
19771W        W36618   0.010   3.400   2.832  0.0090  0.1259  0.0740
19772W        W36619   2.052  15.482  11.808  0.4271 -0.2576 -0.1391
19773W        W36620   4.902  16.775   2.604  0.2209  0.2416 -0.0811
19774W        W36621  16.915  18.109   4.105  0.1476  0.2590 -0.0314
19775W        W36622  18.091   5.652  13.950  0.3203  0.1457 -0.0459
19776W        W36623  19.182  10.694  12.025 -0.1684 -0.0192 -0.1624
19777W        W36624   5.305   9.527   2.276  0.3587 -0.1658  0.1810
19778W        W36625   5.028  11.594   1.573  0.1354  0.0815  0.1705
19779W        W36626   1.534  15.031   2.503  0.1983  0.0768  0.0666
19780W        W36627   8.604   9.169   4.090  0.1617  0.1059  0.1328
19781W        W36628   4.507   2.790  14.267 -0.0793  0.3109 -0.0166
19782W        W36629  17.247   4.704  13.444  0.0194 -0.1067  0.1667
19783W        W36630  14.704  17.858  14.181 -0.2628  0.0660  0.2710
19784W        W36631  14.703   4.703   2.590 -0.0879  0.0260 -0.2791
19785W        W36632   3.853   3.475   2.499  0.0158 -0.0736 -0.0892
19786W        W36633   2.437   5.680  10.821 -0.1031 -0.1644 -0.0022
19787W        W36634  18.910   4.261  12.839  0.0152 -0.0284 -0.1023
19788W        W36635  11.696  14.208  13.702  0.5888 -0.2577  0.3678
19789W        W36636  10.568  12.263   3.585  0.0096 -0.1710 -0.2538
19790W        W36637  17.462  14.515   4.108  0.5478  0.0407  0.4020
19791W        W36638   9.476  19.425  10.988  0.0099  0.2725  0.0299
19792W        W36639  13.553  13.869   1.393 -0.0555  0.0282 -0.0835
19793W        W36640  13.960  10.465   5.250 -0.1509 -0.2526 -0.3414
19794W        W36641   5.517   3.559  13.772 -0.1375 -0.1766 -0.0719
19795W        W36642  15.783   2.056  13.997 -0.3576 -0.2641  0.0739
19796W        W36643   7.654  14.990   4.982  0.4947  0.0845 -0.0351
19797W        W36644   3.455  11.455   1.738 -0.2833  0.0832 -0.0888
19798W        W36645   7.356  10.384   9.903  0.1427  0.1094  0.0126
19799W        W36646  14.984   2.780   0.796 -0.0181 -0.1346  0.2351
19800W        W36647   4.288   5.692  12.414  0.1282  0.0024  0.0738
19801W        W36648   8.028   9.376  11.229  0.0725 -0.0617  0.1119
19802W        W36649  19.371   7.803  10.499 -0.0017 -0.0578  0.1709
19803W        W36650   9.003   4.242  13.813 -0.0124 -0.4031 -0.1953
19804W        W36651  18.109  15.427  11.933  0.1389 -0.3917  0.0494
19805W        W36652  17.303   9.305   2.039 -0.0123  0.1219  0.1392
19806W        W36653  17.336  15.476   3.852  0.2610  0.1389 -0.1897
19807W        W36654   7.690   1.545  12.799 -0.0182  0.3116 -0.0470
19808W        W36655   9.876  19.097  11.288 -0.2123 -0.1178  0.0560
19809W        W36656   7.553   1.147  11.536 -0.2767  0.2082  0.1463
19810W        W36657  10.204   9.476  11.325 -0.0793  0.2561 -0.1877
19811W        W36658  16.722  12.131   1.580  0.0343  0.2377 -0.1557
19812W        W36659  15.173  15.329   0.829 -0.0238  0.0866  0.1081
19813W        W36660   5.646   1.300   1.107  0.2886 -0.0412 -0.3016
19814W        W36661   2.107  12.822  13.118 -0.0730  0.4817  0.4944
19815W        W36662   1.722   8.246  12.230 -0.4409  0.1375 -0.1750
19816W        W36663  18.012  13.122  14.058  0.2386 -0.1674 -0.1594
19817W        W36664  15.467   4.841   4.689 -0.1473  0.0256 -0.0334
19818W        W36665  12.827   4.388   1.280 -0.4839 -0.1778  0.4476
19819W        W36666  18.197  17.519   2.701  0.0227 -0.1985 -0.1815
19820W        W36667  17.038  13.370   0.628  0.1540  0.0030  0.0026
19821W        W36668   5.120   7.641  10.094  0.0887  0.0051  0.1637
19822W        W36669  11.706  11.551   3.744  0.1573 -0.0118  0.0251
19823W        W36670  16.940   3.924   0.953 -0.3235 -0.1874 -0.1867
19824W        W36671   7.640   8.150  13.369 -0.0888 -0.0029 -0.0356
19825W        W36672   4.251  18.394   0.181  0.2564 -0.0456  0.0090
19826W        W36673   1.330  19.728   3.589  0.1322 -0.1812  0.2303
19827W        W36674   5.250  10.600   2.245 -0.1782 -0.2253  0.2419
19828W        W36675  11.181   1.137   5.284 -0.0371  0.2184  0.1371
19829W        W36676   0.724  14.909  11.781  0.1472  0.3811 -0.4723
19830W        W36677  14.032   3.126  13.459  0.0886 -0.1688 -0.0785
19831W        W36678  12.905   1.427   4.523  0.6010 -0.0809 -0.1926
19832W        W36679   8.529  19.900  10.055  0.0333  0.0875 -0.1272
19833W        W36680  15.549  16.344  14.056  0.0977  0.1701  0.1338
19834W        W36681   1.982   5.075  10.465  0.5239 -0.1864  0.0342
19835W        W36682  19.424   5.317   2.990  0.2081  0.2510  0.2185
19836W        W36683   4.187   6.175  12.294 -0.0668  0.1815  0.2834
19837W        W36684  17.925   9.215   5.336 -0.1568  0.0110 -0.2580
19838W        W36685   6.139  16.175   4.406  0.2499 -0.0567  0.1340
19839W        W36686  16.605   6.670   1.506  0.0296  0.1610 -0.2420
19840W        W36687  13.056   4.413   4.895 -0.1204  0.1203 -0.1509
19841W        W36688   9.571   0.145   4.050  0.1435 -0.1379  0.1089
19842W        W36689  12.988  10.304   2.452  0.0747 -0.1547 -0.0041
19843W        W36690  19.260   9.030   3.645 -0.4228 -0.0621 -0.1260
19844W        W36691  17.758   8.047   0.243  0.1513 -0.4683  0.0056
19845W        W36692   1.281   7.853  11.294  0.0646  0.3091  0.0663
19846W        W36693   8.107  10.797  11.272  0.0113  0.1502  0.2396
19847W        W36694  12.917   4.915   2.077 -0.0006  0.0614 -0.2760
19848W        W36695   5.555   8.933  11.943 -0.1332  0.2525 -0.2089
19849W        W36696   5.900  15.149  13.762  0.0951  0.1589  0.1543
19850W        W36697   2.877   8.924   2.517  0.2441  0.1304 -0.1711
19851W        W36698  15.505  18.781  10.274 -0.4955 -0.1129  0.0793
19852W        W36699   1.110   2.667  14.133  0.2704  0.0281  0.1470
19853W        W36700  15.080   8.041  11.654  0.0123 -0.1491  0.0509
19854W        W36701   2.424   0.041   2.201  0.0828 -0.2812  0.0438
19855W        W36702  18.492  12.089  10.949 -0.2088  0.2165  0.2726
19856W        W36703  12.877  11.308   1.454 -0.1826 -0.1157  0.2029
19857W        W36704   1.815   0.490  11.223 -0.2389  0.0147  0.3482
19858W        W36705   2.906  19.413  11.860  0.0828  0.0509  0.3344
19859W        W36706   6.533   4.781  10.463 -0.2345 -0.1298  0.0095
19860W        W36707   3.021  12.820  13.723  0.2794  0.0868  0.2212
19861W        W36708  19.177   2.867  13.708  0.1858  0.0376 -0.0848
19862W        W36709  11.032  15.358  11.308  0.1798  0.1180  0.0483
19863W        W36710  18.802  18.795   2.804  0.1733  0.0382  0.1392
19864W        W36711   4.339  15.640   2.369 -0.2018  0.3303 -0.2726
19865W        W36712  13.607  16.986   1.517 -0.0363 -0.2801 -0.0300
19866W        W36713  17.645   7.177   5.533 -0.1252 -0.0594 -0.1046
19867W        W36714   2.180   2.006   0.310 -0.1727  0.1109  0.0506
19868W        W36715  18.176  19.874   1.519 -0.0981  0.1583  0.0713
19869W        W36716   7.003  17.404  14.306 -0.0130  0.0404  0.1017
19870W        W36717   9.257  13.261  12.767 -0.1820  0.0824 -0.1053
19871W        W36718   6.400  17.900  11.668  0.1124 -0.2071  0.2995
19872W        W36719  14.103  10.041   3.810 -0.3435 -0.0270  0.0289
19873W        W36720   4.084   9.104   1.094  0.0857  0.3882  0.1684
19874W        W36721  10.435  16.721  12.995  0.0311  0.2110  0.1997
19875W        W36722  10.381  18.880   0.565 -0.1060 -0.1707 -0.0520
19876W        W36723  19.664   7.989  10.039 -0.2560 -0.2872 -0.2361
19877W        W36724   9.889  13.574   1.592 -0.2310  0.1325  0.1802
19878W        W36725  12.456  15.579  11.502  0.3779  0.2507  0.1171
19879W        W36726  16.059  13.578   0.650 -0.4322 -0.1851  0.1599
19880W        W36727  12.733  18.745  13.520  0.2805  0.0932  0.2488
19881W        W36728  16.905   3.644   4.982 -0.5304 -0.1573  0.2662
19882W        W36729  19.475  18.377  13.952 -0.1616 -0.0900  0.0754
19883W        W36730  15.366  15.066  12.538  0.1165  0.2435 -0.0278
19884W        W36731  16.360  18.999  12.562 -0.4139 -0.1281 -0.0492
19885W        W36732  11.060   0.035  12.236  0.1377  0.2924  0.1856
19886W        W36733  10.050  16.343  11.789  0.0600 -0.0652  0.1844
19887W        W36734  14.872   4.262   4.298  0.0603 -0.1805 -0.3148
19888W        W36735   1.747  17.233  11.148 -0.1238  0.1433 -0.0395
19889W        W36736  16.982   6.393  10.731  0.0842 -0.0969 -0.3778
19890W        W36737  14.125  14.724  13.350 -0.1337  0.1620  0.0233
19891W        W36738  10.863   4.190   3.744 -0.1831 -0.1302  0.1314
19892W        W36739  12.959  11.901  12.045 -0.0532 -0.1464 -0.1903
19893W        W36740   7.252   7.416   4.490 -0.3066 -0.1467  0.2795
19894W        W36741   9.197   5.545   2.991  0.5419 -0.1897  0.0260
19895W        W36742   8.223   3.206   5.162 -0.0472 -0.2101  0.2107
19896W        W36743  15.608   3.197  12.348  0.0947  0.2613 -0.5372
19897W        W36744   1.093  17.481  10.725  0.1410 -0.4077  0.0496
19898W        W36745   8.024   4.301   1.660 -0.3019  0.1022  0.0644
19899W        W36746   1.087   1.368   9.034 -0.2306 -0.0024  0.2652
19900W        W36747  10.527   9.274   3.921  0.0163 -0.0648  0.1729
19901W        W36748   3.796   4.094   1.690 -0.1248  0.4634 -0.0208
19902W        W36749   3.595  14.160  10.631  0.0880 -0.2476 -0.1398
19903W        W36750  15.383  11.812   1.291 -0.0872  0.1192  0.0501
19904W        W36751  18.054  16.032   0.466  0.1704 -0.0524 -0.0693
19905W        W36752  15.833   6.660   3.361  0.1122  0.3129 -0.0650
19906W        W36753  19.261   3.132   5.262 -0.0673  0.1670  0.0839
19907W        W36754   3.894  14.825  13.804  0.0461 -0.0319 -0.0824
19908W        W36755   0.337   4.393   3.135 -0.2020  0.2566 -0.2175
19909W        W36756   9.295   4.326  10.078  0.0106 -0.0906 -0.1444
19910W        W36757  17.494  14.896   3.612 -0.1055 -0.1639 -0.0507
19911W        W36758  12.362  18.024  10.681 -0.0503  0.1345  0.0357
19912W        W36759   9.682   0.280   0.737 -0.0734  0.0495  0.4099
19913W        W36760   7.130  19.299   1.440  0.0017 -0.2488 -0.2514
19914W        W36761  19.079  15.655   0.215 -0.2681  0.1046  0.0981
19915W        W36762  15.949  16.388   2.516 -0.0722  0.0675 -0.1872
19916W        W36763  12.495  13.507   3.612  0.1134 -0.2388  0.0442
19917W        W36764  15.440  12.689  10.761 -0.0517  0.1879  0.3005
19918W        W36765  18.386   1.346   2.155  0.1330 -0.2307  0.2227
19919W        W36766  12.990  17.559   3.591 -0.2947  0.0562 -0.0334
19920W        W36767   4.726   2.102   1.283 -0.1674  0.0855 -0.2031
19921W        W36768  18.467  12.083  13.557  0.2214  0.0275  0.3489
19922W        W36769   2.291   7.076  12.967  0.0981  0.1970  0.1175
19923W        W36770   3.726   5.769   3.980 -0.1495  0.2050  0.1554
19924W        W36771   6.347  16.260  11.014 -0.0035  0.0954 -0.2282
19925W        W36772  12.593  14.707   1.093 -0.1251 -0.0188  0.2351
19926W        W36773  12.118  13.947   1.177  0.1216 -0.2600  0.0467
19927W        W36774   5.865  15.475  12.167 -0.4037  0.0581  0.0176
19928W        W36775   9.368   2.366   1.022  0.1129 -0.1837  0.1564
19929W        W36776   0.552   4.361   1.208  0.2241  0.1265 -0.1430
19930W        W36777   6.893   7.112   3.075  0.1658 -0.3416 -0.0679
19931W        W36778  13.190   4.202  10.751 -0.1558 -0.0806  0.0975
19932W        W36779   4.256  15.228   4.369 -0.0927  0.1113  0.1247
19933W        W36780   2.823  12.708  12.319  0.1531 -0.0641 -0.0942
19934W        W36781  17.407   9.258   0.258 -0.0904 -0.2572  0.0826
19935W        W36782  10.112  13.576   2.486 -0.0185  0.2111  0.0357
19936W        W36783   0.237   1.426  10.875 -0.0687 -0.1622 -0.1832
19937W        W36784  17.838  19.667  13.354 -0.0119  0.0757 -0.1020
19938W        W36785   8.492   7.303   2.409  0.2274  0.0234 -0.1393
19939W        W36786  14.824  15.770   3.152 -0.2086  0.0876 -0.2302
19940W        W36787   0.910  18.217   0.342 -0.1479  0.1351  0.3383
19941W        W36788  18.059  11.513   3.995 -0.2586  0.0632  0.0855
19942W        W36789  18.549  10.975  10.959 -0.2449 -0.1121 -0.2929
19943W        W36790  17.715  16.855  11.222 -0.0448  0.2546 -0.2164
19944W        W36791  19.485   6.752  13.984 -0.1281 -0.2204 -0.0193
19945W        W36792   1.647   6.835  14.143 -0.0919  0.1852 -0.4129
19946W        W36793   0.692  12.985   3.709 -0.1239 -0.0679 -0.4593
19947W        W36794   1.686  12.154  11.387 -0.1180 -0.0699 -0.1420
19948W        W36795   3.509   9.489  10.107  0.0514 -0.2173  0.1206
19949W        W36796   9.518  15.082   9.437  0.0787  0.2559 -0.1414
19950W        W36797  18.198   2.121  10.826 -0.1135 -0.0806  0.0186
19951W        W36798   3.127  16.531  11.375 -0.0320  0.2913  0.0422
19952W        W36799  18.912   7.735  13.831 -0.0904 -0.0234  0.0950
19953W        W36800   7.661  19.212  12.448 -0.2402 -0.0499 -0.0211
19954W        W36801  12.590  19.112   1.008 -0.0378  0.0358  0.2414
19955W        W36802   2.268  19.441   0.985  0.1511 -0.2125  0.2505
19956W        W36803  14.371  12.054   2.957 -0.2438 -0.0434 -0.1406
19957W        W36804  16.448   0.158  13.973  0.1384 -0.0943  0.1400
19958W        W36805   5.744   6.639   1.145 -0.4004  0.1488  0.2966
19959W        W36806   4.884   0.812  12.184  0.2290 -0.2253 -0.0536
19960W        W36807   3.228  10.391   3.723 -0.1652  0.0130  0.2274
19961W        W36808   1.342  19.347   2.191 -0.1544 -0.4139 -0.1765
19962W        W36809   8.612  13.798   1.250  0.0481 -0.0046 -0.0481
19963W        W36810  18.006   7.110   2.615 -0.0372  0.2092  0.2633
19964W        W36811  15.087  11.786  13.607 -0.1226 -0.1042  0.2171
19965W        W36812  14.121  10.754  10.639 -0.0269 -0.0264 -0.0176
19966W        W36813  10.829   2.734   3.167  0.2425 -0.4260  0.5003
19967W        W36814   4.887  19.599   3.637 -0.0364  0.0651  0.1172
19968W        W36815   4.800  16.640  14.037  0.2452  0.1003  0.1513
19969W        W36816   2.996   6.071  10.473 -0.0869  0.3213  0.0537
19970W        W36817   7.131   4.500   0.059  0.3296  0.1547  0.2372
19971W        W36818  11.501  16.045   9.808  0.0096  0.1736  0.0745
19972W        W36819   4.150  11.444  10.275 -0.0771  0.4348  0.2062
19973W        W36820  12.777   8.558   3.211 -0.1175 -0.1808  0.1899
19974W        W36821  11.682  15.312  13.812  0.3101  0.1688  0.3384
19975W        W36822   7.829   7.079   0.122 -0.1867  0.0358  0.3346
19976W        W36823   5.694  11.230   1.512  0.3866  0.0410  0.2162
19977W        W36824   5.050   3.384   8.885  0.0564  0.2412  0.0352
19978W        W36825  10.318   6.120   3.269 -0.3420  0.2055  0.2941
19979W        W36826  13.138   8.046   1.945 -0.2589  0.0497  0.3020
19980W        W36827   5.179  16.396  13.610  0.0400 -0.0755 -0.1095
19981W        W36828  14.005  16.763   3.034 -0.2327 -0.3822 -0.1205
19982W        W36829   5.215  16.469   4.029  0.0048  0.0106  0.2142
19983W        W36830   2.153  11.862   1.635  0.4155  0.0593 -0.1092
19984W        W36831   2.513   5.880   8.603 -0.2870 -0.1564  0.0829
19985W        W36832   7.340  17.438  10.410  0.0715  0.3953  0.3841
19986W        W36833  13.293  14.412  10.723 -0.2516 -0.2080  0.0101
19987W        W36834   5.473  19.623  13.007 -0.2186 -0.1480  0.2162
19988W        W36835   5.224   3.977   0.686 -0.3256  0.3623 -0.0272
19989W        W36836  12.534   3.855   3.749  0.0080  0.2506 -0.0466
19990W        W36837  16.965   0.038  13.264  0.1239 -0.0421 -0.1220
19991W        W36838   1.713  13.943  14.020  0.0977 -0.0094  0.4304
19992W        W36839  15.954   4.892   0.993 -0.1332  0.0777 -0.2612
19993W        W36840   2.877   7.333   1.371 -0.2500 -0.2593 -0.1944
19994W        W36841   7.212   3.612   0.476  0.0973  0.1869 -0.5419
19995W        W36842  19.390  15.315   5.052 -0.4284  0.1696  0.1559
19996W        W36843   6.523  12.955  12.036  0.2819  0.0891  0.1950
19997W        W36844  16.015   2.586  11.427  0.4419  0.0821 -0.1608
19998W        W36845   0.596   1.067   1.720  0.3114  0.1092 -0.1649
19999W        W36846  12.419   2.729  13.575 -0.0491  0.2961  0.0941
20000W        W36847  15.726  16.001  10.271 -0.0317 -0.2904  0.0918
20001W        W36848   8.210  12.675  11.465  0.0534 -0.0721 -0.0254
20002W        W36849   0.079   7.885   1.496 -0.0083 -0.0682  0.1938
20003W        W36850  10.188  13.157  11.126  0.0836 -0.0257  0.2081
20004W        W36851   6.906   0.789   2.439  0.0217 -0.2002 -0.0572
20005W        W36852  15.372   1.094   3.451  0.2004  0.2027  0.0799
20006W        W36853  17.151   0.721  12.346 -0.0841  0.0745  0.0000
20007W        W36854   9.056   6.058   4.965  0.2895  0.1005 -0.1939
20008W        W36855   3.572   7.274   1.311  0.0279 -0.1743  0.1134
20009W        W36856  17.033  15.930   3.677  0.3669 -0.3406 -0.0163
20010W        W36857  16.314   2.460   0.474  0.1579  0.0549 -0.1925
20011W        W36858  10.924  17.848   3.347  0.1366 -0.1816  0.0116
20012W        W36859   1.304   1.518  13.377  0.3136 -0.2465 -0.0550
20013W        W36860  14.245  11.637   1.339  0.1768  0.0150  0.0411
20014W        W36861  13.352  10.746   4.153  0.1896 -0.1539 -0.0892
20015W        W36862   4.773  10.618  12.703  0.0651  0.0141 -0.0979
20016W        W36863   7.175   9.356  11.802 -0.0060 -0.2495  0.3523
20017W        W36864   5.862   3.540   3.998 -0.1664 -0.3229  0.2548
20018W        W36865  16.924   2.773  11.595  0.3164 -0.2460 -0.0206
20019W        W36866   1.117   9.996  11.148 -0.0104  0.3694  0.2391
20020W        W36867   3.991  16.058   1.564 -0.1665  0.2588  0.2282
20021W        W36868   4.116  18.286  13.965 -0.2275  0.0928  0.0821
20022W        W36869  16.156  16.047   0.600 -0.1311  0.0471  0.0154
20023W        W36870  15.547   9.335  12.955 -0.1250 -0.1499  0.0274
20024W        W36871  17.881  11.551  13.686  0.2968 -0.0461 -0.1231
20025W        W36872   0.066  17.706  14.047  0.2581  0.3609  0.0359
20026W        W36873  17.209  19.064  13.151  0.0609  0.1139  0.1277
20027W        W36874   7.616   9.930   2.304 -0.0873  0.1288 -0.2373
20028W        W36875   3.559  18.711  13.293 -0.0764 -0.2196  0.0176
20029W        W36876   6.450   4.467  10.023 -0.0634  0.0758 -0.2197
20030W        W36877  10.730  17.851  10.711  0.0820  0.2312 -0.2323
20031W        W36878  16.578   5.266  11.135  0.2697  0.0402  0.0666
20032W        W36879  17.582   1.628   2.454  0.0110  0.0277 -0.0838
20033W        W36880  15.859   0.126   2.834 -0.2344  0.2075  0.0557
20034W        W36881  16.614  12.467  10.115 -0.2742  0.3004  0.1012
20035W        W36882  14.169   7.304   1.292 -0.0464  0.0214  0.0042
20036W        W36883  15.119   9.365   2.271  0.1968 -0.1673 -0.2529
20037W        W36884   3.742   1.356   3.392  0.1278 -0.3282 -0.1576
20038W        W36885   0.685   6.642   2.171 -0.0317 -0.0920 -0.3921
20039W        W36886  13.813   4.857  13.726 -0.1174  0.2588  0.0667
20040W        W36887  19.207   3.197   0.169  0.1798 -0.1086  0.0096
20041W        W36888   7.378   4.939   3.152  0.1863 -0.4904  0.1622
20042W        W36889   9.067   5.126   1.670  0.0780  0.0831  0.1688
20043W        W36890   5.805   5.159   2.381  0.1234  0.0230  0.1100
20044W        W36891  15.216   6.005   3.068 -0.2490  0.2586  0.2645
20045W        W36892  19.400   9.953  13.324 -0.1430  0.1400 -0.0003
20046W        W36893  13.777   4.238   9.274 -0.2195  0.2801 -0.2346
20047W        W36894  13.415   9.143   9.952 -0.1750  0.4097  0.3987
20048W        W36895   7.949   5.227  10.561  0.3903  0.0905  0.1385
20049W        W36896  16.647  18.903  11.200  0.1434  0.3551  0.0807
20050W        W36897  10.964  18.496  10.106 -0.0805  0.0435  0.1951
20051W        W36898  18.116  10.482   4.280  0.2814  0.1685 -0.2069
20052W        W36899  19.705  17.169  12.888 -0.1398 -0.0902 -0.0832
20053W        W36900   2.251  11.274  10.110 -0.1105 -0.2171 -0.0394
20054W        W36901   2.828   1.919   1.988 -0.1118  0.5575 -0.2202
20055W        W36902   7.775  11.570  13.715  0.3294 -0.2841  0.2362
20056W        W36903  12.102   4.878   4.626 -0.0660  0.0937 -0.1086
20057W        W36904  18.314  19.763  12.257  0.0570  0.2519  0.1943
20058W        W36905   7.245  18.590   0.890 -0.0516  0.0580  0.0111
20059W        W36906   8.493   2.378   5.292  0.0270 -0.3601 -0.1268
20060W        W36907  17.427   8.143  11.526  0.3311 -0.1074  0.0775
20061W        W36908  17.285   8.250   1.189 -0.2610  0.1111 -0.3148
20062W        W36909   5.826   6.221  12.823  0.1887 -0.0295  0.0835
20063W        W36910  19.719   4.405   1.724 -0.1646  0.1834 -0.0750
20064W        W36911   0.654  16.585  12.396  0.3772  0.0688  0.1570
20065W        W36912   3.270   7.476  13.893 -0.0412 -0.1318 -0.2556
20066W        W36913   2.714  12.015   3.927  0.1018  0.0274 -0.1301
20067W        W36914  10.489  13.263   2.346  0.2780 -0.0222  0.1331
20068W        W36915   6.401   8.125   3.212 -0.0369 -0.0757  0.1465
20069W        W36916   1.703   7.599   3.587 -0.1599  0.2841 -0.0053
20070W        W36917   6.314  10.057  14.065 -0.1133  0.1128  0.0018
20071W        W36918   3.971   7.010   3.350  0.0032  0.0336  0.0548
20072W        W36919   0.544  18.507  13.794 -0.3503  0.0158 -0.1565
20073W        W36920   5.532  10.303  10.698 -0.0532  0.1759  0.1721
20074W        W36921  11.379   7.848   2.705 -0.0034 -0.2018 -0.1698
20075W        W36922   2.871  13.528  10.745 -0.0447  0.0007 -0.1635
20076W        W36923  17.227  13.562   2.102 -0.0901 -0.0173 -0.2172
20077W        W36924   6.057   5.258   4.074 -0.1911  0.2201  0.2307
20078W        W36925  16.428  17.034  13.673 -0.1600  0.2059 -0.2866
20079W        W36926  11.432  10.796   2.222  0.1590  0.2708  0.0173
20080W        W36927  12.713   6.208  12.265  0.0588  0.2246 -0.1153
20081W        W36928   0.807  12.537  13.106 -0.4977 -0.0700  0.1935
20082W        W36929  18.420   5.040  11.188  0.1007 -0.1224 -0.0081
20083W        W36930  17.881   6.312   1.226 -0.1160  0.4463 -0.1322
20084W        W36931  19.261  17.138   2.851 -0.0533 -0.0597 -0.2007
20085W        W36932  11.681  12.727  13.638  0.2157  0.0229 -0.0109
20086W        W36933  16.644   8.571   3.876  0.0299 -0.1907  0.2188
20087W        W36934  19.571   5.971   1.669 -0.4835 -0.0607 -0.1666
20088W        W36935   0.395   3.045  10.643 -0.0470  0.0877 -0.1894
20089W        W36936   7.707   5.403   2.953  0.0760  0.0773 -0.2399
20090W        W36937   2.774  17.351   4.606  0.3679 -0.0123  0.0332
20091W        W36938  14.725   0.545  12.132  0.3335  0.1679 -0.1280
20092W        W36939   5.399  12.444   4.085 -0.0087 -0.2064 -0.0893
20093W        W36940   6.624   0.327   1.350 -0.0685 -0.1388  0.2432
20094W        W36941  19.691  11.735  13.516  0.1062 -0.2320 -0.0868
20095W        W36942  14.684   6.654  14.081  0.0946  0.1336  0.0079
20096W        W36943  11.186  19.584  13.765  0.2516  0.0974  0.1501
20097W        W36944   0.689   6.914  10.409  0.0134  0.1465 -0.0667
20098W        W36945  12.029  13.395  10.585 -0.2452 -0.1174  0.2561
20099W        W36946  14.953  10.040  10.707  0.0581 -0.0483  0.2276
20100W        W36947   0.997   1.506  13.804 -0.0320  0.0721  0.1950
20101W        W36948  13.498  11.065  11.338  0.0465  0.0412  0.0162
20102W        W36949   3.687  15.058  14.222 -0.0372 -0.0962 -0.0640
20103W        W36950   1.825   0.135  13.098  0.1259 -0.2475  0.0011
20104W        W36951  12.980  11.823   1.438  0.3269  0.0410  0.0086
20105W        W36952   0.926  10.494  14.017  0.0132  0.0059  0.0905
20106W        W36953  16.126  16.185   4.252  0.0674  0.1626  0.4184
20107W        W36954   7.125  16.369   3.824  0.1552  0.1935  0.2493
20108W        W36955  13.193   2.557   3.695 -0.0278  0.1403  0.3323
20109W        W36956  17.309   3.401   4.351 -0.0402 -0.0172  0.0988
20110W        W36957   0.750   5.068   0.223  0.2051 -0.0563 -0.1586
20111W        W36958  16.740   6.231   4.646 -0.0321 -0.3888  0.0723
20112W        W36959   9.570   6.698  12.020 -0.3326  0.1787  0.3226
20113W        W36960   6.265  11.502  14.102 -0.3282  0.1380  0.1746
20114W        W36961  11.591   2.144  13.438 -0.0022  0.2181  0.1924
20115W        W36962  19.842  17.252  11.530 -0.1998  0.2239  0.0345
20116W        W36963   1.094   9.630  11.892 -0.0849 -0.0488  0.1329
20117W        W36964  10.311   2.418   0.960  0.2409  0.0435  0.0409
20118W        W36965  12.620   5.503   0.999  0.7437  0.0074  0.5846
20119W        W36966  16.253  13.831  13.562 -0.1025  0.0072 -0.4156
20120W        W36967  12.997   9.333  13.872  0.0716  0.1071  0.1350
20121W        W36968   9.589  18.388   4.741  0.0452 -0.1689  0.0031
20122W        W36969  15.771  17.674  11.821 -0.2112  0.1774  0.4380
20123W        W36970  19.566   0.291  13.345  0.1459 -0.4505  0.1388
20124W        W36971   8.079  11.586  10.086  0.1606  0.0944 -0.0795
20125W        W36972   7.156  19.731   0.875 -0.0896 -0.2367  0.0188
20126W        W36973  18.881   9.177   2.574 -0.3397  0.1415  0.0021
20127W        W36974   9.507  12.705  13.997 -0.0027 -0.2472 -0.1533
20128W        W36975   1.822  12.237  12.321 -0.1505 -0.0241  0.1383
20129W        W36976  14.056   0.206  13.274 -0.0257 -0.0957 -0.0045
20130W        W36977  10.459  19.378   4.506  0.1714 -0.3371 -0.1158
20131W        W36978   9.797   2.132  11.873  0.0361 -0.2060  0.1999
20132W        W36979  11.960   4.443   1.122  0.2174 -0.2340 -0.1249
20133W        W36980  10.763  18.682   0.293  0.0621 -0.0462 -0.2909
20134W        W36981   7.698   2.592  11.800  0.1855 -0.0130  0.1841
20135W        W36982  17.860  18.250  11.940 -0.5160  0.1459 -0.0421
20136W        W36983  15.005   2.594   4.990  0.1280  0.0070  0.1181
20137W        W36984   4.660  12.477   3.208 -0.0700  0.1453  0.1833
20138W        W36985  15.105  19.892   2.269 -0.2467  0.0432 -0.3100
20139W        W36986   2.057  10.962   0.764  0.0342 -0.0640  0.0587
20140W        W36987  14.366  13.296   4.415 -0.1346  0.0259  0.1256
20141W        W36988   7.235  14.585   2.432  0.0245 -0.1458 -0.1335
20142W        W36989  14.594  19.023   2.502  0.2642  0.2681 -0.2576
20143W        W36990   7.196  14.804   0.684  0.1606 -0.1154  0.1480
20144W        W36991  15.100   6.162   3.958  0.3541 -0.1876 -0.0668
20145W        W36992  14.698   1.398   1.148  0.1650 -0.0002 -0.1017
20146W        W36993  12.626   6.896   1.316  0.1999 -0.4949  0.1320
20147W        W36994  12.955   9.814  12.977 -0.1997  0.1584 -0.0070
20148W        W36995   7.883  17.203  14.028  0.0149  0.3612  0.3068
20149W        W36996  19.534  18.733  11.199  0.3497  0.1066 -0.0702
20150W        W36997  12.163   8.213   2.736  0.3298  0.1092  0.3093
20151W        W36998  14.360  11.478   1.803 -0.1727 -0.3231 -0.1311
20152W        W36999  17.309  15.196   0.599 -0.0407 -0.2612 -0.1292
20153W        W37000   2.228  13.788  10.442 -0.1828  0.0180 -0.3027
20154W        W37001  19.203   9.965  10.543  0.0381 -0.2053  0.1862
20155W        W37002   7.275  18.497   0.285  0.2031 -0.1099  0.1005
20156W        W37003  14.539   5.644   0.335  0.0061  0.1357  0.2762
20157W        W37004   7.383  13.900   5.234  0.4408  0.2692 -0.0263
20158W        W37005   4.527  19.717  13.292 -0.0761  0.0212  0.1972
20159W        W37006  13.455  12.390  11.009 -0.1477 -0.0631  0.0647
20160W        W37007   2.693   7.304  13.099 -0.0361  0.1940 -0.2149
20161W        W37008   5.221  10.673  11.494 -0.2335 -0.0646 -0.2345
20162W        W37009   3.845  12.285   4.497 -0.3948  0.1571  0.0664
20163W        W37010  17.641   8.507  10.999 -0.2026 -0.0022  0.0025
20164W        W37011   5.354  19.733  11.334 -0.1012 -0.3495  0.3955
20165W        W37012  12.822  13.148   0.419 -0.0820  0.0360 -0.1735
20166W        W37013   7.926  13.774  13.583  0.2180  0.3744 -0.2131
20167W        W37014   3.487   9.003   3.558  0.2925 -0.0386 -0.0239
20168W        W37015   7.320  12.072   3.338  0.0698 -0.5305 -0.2740
20169W        W37016   9.005   0.803  10.271 -0.0729 -0.0436 -0.0035
20170W        W37017  11.379   2.304   3.129  0.1868  0.2414 -0.1376
20171W        W37018   0.083  10.992   9.633 -0.0035 -0.1668  0.0515
20172W        W37019  15.134  14.396   9.532 -0.0270 -0.0814 -0.1146
20173W        W37020  14.226   9.775  12.503  0.0711 -0.0747 -0.3161
20174W        W37021   2.394  11.768   3.447  0.2340  0.1660  0.0333
20175W        W37022   2.995  16.925  13.847 -0.2596 -0.0715 -0.0282
20176W        W37023  18.722   3.239   3.265 -0.3827 -0.1653  0.4777
20177W        W37024  12.211   3.136  11.084 -0.0365  0.1680 -0.2617
20178W        W37025   2.663   6.870   1.571 -0.1359  0.1461  0.1221
20179W        W37026  10.577  15.692  10.657 -0.3351 -0.1820  0.2256
20180W        W37027   1.104  18.790   1.094  0.3557  0.1773 -0.0682
20181W        W37028  18.504   6.396   0.132 -0.2917  0.0620 -0.1721
20182W        W37029  11.941  11.889  10.113 -0.0596  0.0220 -0.0734
20183W        W37030   3.796   5.509  12.375  0.0080 -0.1911 -0.0764
20184W        W37031  14.453  17.391   1.573  0.0732 -0.2228 -0.1705
20185W        W37032   4.560  16.502  13.617 -0.1081  0.1921  0.2221
20186W        W37033  15.807  10.306   3.217 -0.3162  0.1669 -0.0533
20187W        W37034   6.495  12.069   2.347 -0.3143 -0.0080 -0.1129
20188W        W37035   5.087   9.207  10.735 -0.0313 -0.1295 -0.1889
20189W        W37036   5.314  12.413   0.464 -0.1729  0.1937 -0.0551
20190W        W37037  18.913  11.414   2.362 -0.0606  0.0788  0.1278
20191W        W37038   9.853  16.286   0.304  0.3232 -0.0326  0.1985
20192W        W37039  10.694  18.705  12.698 -0.1523 -0.2743 -0.3762
20193W        W37040  13.499   2.270  14.257 -0.1056  0.0347  0.1167
20194W        W37041  13.608  13.056   0.464  0.1619  0.0201 -0.1585
20195W        W37042  11.765   2.657   0.289  0.0681  0.3439 -0.1160
20196W        W37043   3.307   7.435  12.464 -0.2681  0.1600  0.3385
20197W        W37044  12.498   9.663   2.077 -0.1082 -0.2965 -0.2154
20198W        W37045   4.776  19.466   1.390 -0.0234  0.2584 -0.1759
20199W        W37046  16.270  11.113  13.413 -0.2988 -0.1473  0.1866
20200W        W37047  16.374   8.014   1.594  0.3185 -0.0917  0.0523
20201W        W37048  13.126  12.304   0.638 -0.0118  0.1039  0.1775
20202W        W37049   6.403   7.940  13.689  0.3785  0.0907 -0.0111
20203W        W37050   0.124   2.720  11.001 -0.1168  0.0710 -0.0701
20204W        W37051   3.191   5.548  12.207  0.3678 -0.1555 -0.0578
20205W        W37052   7.677   1.570   0.261  0.0968 -0.3814 -0.1357
20206W        W37053   8.290   1.003   8.692  0.0770 -0.3458 -0.1977
20207W        W37054   5.289   7.078   3.299  0.0207  0.0278 -0.2983
20208W        W37055   1.890   5.718   1.246  0.0535 -0.2100 -0.0187
20209W        W37056   0.229  13.515   2.601  0.0672 -0.3833  0.1307
20210W        W37057   2.686  15.020   1.992 -0.3284  0.0467  0.0849
20211W        W37058  16.227   3.016  13.061 -0.2353 -0.1303  0.1232
20212W        W37059  10.160   2.267   4.161  0.0869  0.0673 -0.1113
20213W        W37060   7.466   8.119   0.942 -0.0309  0.2466  0.0603
20214W        W37061   7.766   0.569   1.891  0.2202  0.0155  0.0265
20215W        W37062   3.238   7.610   3.649 -0.0723  0.2511  0.1265
20216W        W37063   9.759   4.402   1.022 -0.2337  0.1845 -0.1525
20217W        W37064  17.035  19.485   0.700  0.2875 -0.0860  0.0121
20218W        W37065   6.540  16.927   2.171  0.2365 -0.0248 -0.1578
20219W        W37066  17.072  16.166   1.857  0.1307  0.0568 -0.0066
20220W        W37067   7.172   2.365   0.450  0.1365 -0.0606  0.0418
20221W        W37068   4.935   2.558   2.753  0.0365  0.1834  0.0782
20222W        W37069  10.755  13.320  11.259  0.1107 -0.2961  0.1016
20223W        W37070  15.411  10.146   0.882 -0.2439  0.0490 -0.2167
20224W        W37071  10.841   3.170  13.638 -0.0357 -0.0709  0.0643
20225W        W37072   2.856  18.274  13.849 -0.0419  0.0350 -0.0053
20226W        W37073  12.786   0.211   2.140 -0.2051  0.0342  0.0089
20227W        W37074   6.304  16.494  12.303  0.3662  0.5424  0.0232
20228W        W37075  10.347  13.883  14.151  0.1207  0.2397 -0.0608
20229W        W37076  11.371  15.310   1.753  0.0577 -0.2493 -0.4977
20230W        W37077  15.357   7.248   1.557 -0.0352  0.0792 -0.2188
20231W        W37078  17.366  12.332  14.164 -0.1854  0.0019  0.0203
20232W        W37079  17.960  14.766   2.903 -0.2728  0.5170 -0.0176
20233W        W37080   3.413  18.830   2.497 -0.2607 -0.2055  0.2967
20234W        W37081   1.924   5.936   2.913 -0.0417  0.0777 -0.0515
20235W        W37082  14.230   6.630   4.028 -0.1853 -0.0394 -0.1026
20236W        W37083  12.588   6.564   3.018  0.1730  0.1343  0.1559
20237W        W37084  18.536   7.845  14.179  0.1973  0.0834 -0.1642
20238W        W37085   2.979  15.872  10.518 -0.5456  0.1459 -0.2955
20239W        W37086   5.101  14.176  10.060  0.1057 -0.0766 -0.3489
20240W        W37087   0.065  15.747  13.653  0.3324 -0.0071 -0.0206
20241W        W37088  13.329  19.804  12.816 -0.0218 -0.1539 -0.1417
20242W        W37089   0.886  18.875   3.582  0.1026  0.2225  0.0130
20243W        W37090   1.406  10.803   2.463 -0.0194 -0.0766 -0.1066
20244W        W37091  16.652  19.199  12.061 -0.2367  0.0510  0.3778
20245W        W37092   9.939  17.324   4.157  0.1019  0.0506  0.1172
20246W        W37093   8.435  10.608  13.189  0.1748 -0.3628 -0.0412
20247W        W37094   4.871  16.680   0.669  0.1810  0.5437 -0.3077
20248W        W37095  14.574   6.094   1.652 -0.0239 -0.1330 -0.1143
20249W        W37096   4.808  16.488   3.620  0.1415 -0.2991  0.0762
20250W        W37097  17.970   3.960   1.069  0.0255  0.0844  0.2510
20251W        W37098   3.081  12.897  10.017 -0.3155  0.1699 -0.1254
20252W        W37099  14.269   4.635  10.554 -0.0607  0.3101 -0.1439
20253W        W37100  11.501   1.396   4.766  0.0701 -0.1251  0.1361
20254W        W37101  17.367   2.149   2.715  0.0177  0.4243  0.0477
20255W        W37102  15.141   2.286  12.160  0.3279 -0.3635 -0.0691
20256W        W37103   1.831   7.777  13.650  0.0402 -0.1815  0.1944
20257W        W37104   5.476   5.443  13.501  0.2796  0.1704 -0.3205
20258W        W37105  12.413  19.145  11.388 -0.0592  0.2016  0.0094
20259W        W37106   1.986   3.745  14.149 -0.0272  0.1734 -0.1816
20260W        W37107  15.352   7.164   0.712  0.0509  0.1343  0.1127
20261W        W37108   5.631  16.113   2.252 -0.1048 -0.4067 -0.3128
20262W        W37109  14.579  19.527   1.434 -0.0482 -0.0590 -0.2381
20263W        W37110   0.457   8.882   2.986  0.2208  0.0530 -0.0075
20264W        W37111   6.780  19.814   0.595  0.2647 -0.2472  0.0875
20265W        W37112  13.907  10.753   1.175 -0.0754  0.0829 -0.0478
20266W        W37113  17.229  10.889   4.230  0.1810 -0.5242  0.0926
20267W        W37114  16.773  17.642   4.206  0.1761 -0.0646  0.0528
20268W        W37115  10.080  10.479  10.215 -0.0467  0.1691 -0.3216
20269W        W37116  11.206   3.296   2.209  0.0160  0.2171  0.0110
20270W        W37117   0.979  16.145   1.270 -0.1561 -0.1358  0.4514
20271W        W37118   0.725   3.834  11.163  0.0161  0.1066 -0.0893
20272W        W37119   9.120   1.947   1.137  0.0452  0.0348  0.3213
20273W        W37120  11.407   0.972   0.581  0.1832 -0.0031 -0.2571
20274W        W37121   2.729  12.629   5.164  0.0779  0.4545 -0.1359
20275W        W37122  13.337   8.172   3.955  0.1685 -0.1000  0.1979
20276W        W37123  14.618   4.600   0.418 -0.1054 -0.0497  0.0550
20277W        W37124   5.296   4.332  10.915 -0.1546 -0.1953 -0.0324
20278W        W37125   0.148   6.567   4.706  0.0776  0.0294  0.0351
20279W        W37126   6.626  13.539   1.904  0.1484  0.0482  0.1487
20280W        W37127   1.893   7.166   3.698 -0.0780 -0.1097 -0.1897
20281W        W37128   2.939   9.130   4.354 -0.1147 -0.1072  0.1446
20282W        W37129  17.801  18.554   1.756 -0.0087  0.3951 -0.5043
20283W        W37130   4.804   5.684   9.804  0.2009 -0.1429 -0.1456
20284W        W37131   5.638   8.181   0.761 -0.0365 -0.0156  0.1148
20285W        W37132   9.213   8.055  13.248 -0.0855  0.0425  0.3781
20286W        W37133   0.161   1.484   0.093 -0.2445 -0.1335 -0.3274
20287W        W37134   2.019   1.612   4.344  0.2106  0.0621  0.1952
20288W        W37135  16.948   7.311  10.253  0.1481  0.0043 -0.0019
20289W        W37136  10.532  13.493   5.022  0.0615 -0.1071  0.0943
20290W        W37137   5.968  11.631   1.565  0.0278 -0.0673  0.1398
20291W        W37138  12.470  15.697   2.023  0.0941  0.1347  0.0979
20292W        W37139   0.533   9.274   3.396 -0.5785  0.1449  0.1173
20293W        W37140  14.719   9.248   3.195 -0.0014  0.1612  0.0249
20294W        W37141   0.552   7.850   4.152 -0.2459 -0.0013 -0.1413
20295W        W37142  16.944  18.520   1.759  0.0599 -0.1049  0.0721
20296W        W37143  11.790   9.281  11.106  0.0738 -0.1676  0.0201
20297W        W37144   7.148  12.140   9.289 -0.0314 -0.3407  0.1115
20298W        W37145  10.726   9.887  11.836  0.1660 -0.3731 -0.1421
20299W        W37146  16.273  12.113  13.014  0.0038  0.2449  0.1977
20300W        W37147   7.618  12.762  11.902  0.3892 -0.2851  0.0848
20301W        W37148   9.246  17.358  12.518 -0.2807  0.0112  0.2404
20302W        W37149   5.673  10.450  13.533  0.2186  0.0464 -0.3547
20303W        W37150   9.004   3.594   0.243  0.0530  0.2018  0.0625
20304W        W37151  17.019   1.380  11.003 -0.0004 -0.2507  0.0288
20305W        W37152  17.507   8.988   2.382  0.0142 -0.5750  0.0398
20306W        W37153  15.139  12.755   1.306 -0.2372  0.2759 -0.0041
20307W        W37154   7.336  19.457  13.223 -0.2995 -0.1129  0.0375
20308W        W37155   4.571  12.392   4.870 -0.0010 -0.1512  0.0959
20309W        W37156   9.687  17.770   9.688 -0.0229 -0.3602 -0.1007
20310W        W37157  18.428  10.611  12.167  0.3472  0.1077 -0.2432
20311W        W37158   2.391   9.123  11.069 -0.1998 -0.0999  0.4703
20312W        W37159  11.376  10.913   9.924  0.1618  0.2851 -0.0659
20313W        W37160  12.095   4.703  10.789  0.0761  0.2610 -0.2299
20314W        W37161   7.611  13.253  11.144  0.0464  0.0845  0.0819
20315W        W37162   0.398   6.674   9.852  0.0997  0.1231  0.3056
20316W        W37163  15.645  16.405  11.405  0.1623  0.1888 -0.0902
20317W        W37164  19.654   1.990  13.868 -0.1464  0.0756 -0.1175
20318W        W37165  11.310   3.045  10.450 -0.2270 -0.2659  0.0975
20319W        W37166  19.876   1.219   2.877  0.0746 -0.0238  0.0273
20320W        W37167   8.523   5.692  11.699 -0.3733 -0.0546  0.1116
20321W        W37168  10.257   6.812   0.675 -0.1504 -0.2107 -0.2672
20322W        W37169   8.730   9.372  10.304  0.1938 -0.1313  0.0176
20323W        W37170   4.236  19.152   4.793 -0.1554 -0.1013 -0.6125
20324W        W37171  15.159   7.227  10.666 -0.1582 -0.0605  0.0369
20325W        W37172   7.294  14.185   3.525  0.0441 -0.0928 -0.1295
20326W        W37173  12.982   4.730  10.743  0.0243  0.7400 -0.0977
20327W        W37174  17.173   9.478   3.348  0.1367 -0.0053  0.1140
20328W        W37175  13.485  13.596   3.385 -0.1746  0.2725  0.0023
20329W        W37176   7.943   6.721  13.209  0.0531 -0.1142 -0.0156
20330W        W37177   8.618   0.470   4.364  0.1092  0.1414  0.2996
20331W        W37178  14.215   1.105  11.626  0.4382 -0.1827 -0.0519
20332W        W37179  12.027   7.965   2.044 -0.0896  0.1957  0.1459
20333W        W37180   7.818   7.150   1.425  0.3566 -0.4297  0.1034
20334W        W37181  15.272  10.742  13.698 -0.0370 -0.2062  0.3228
20335W        W37182  11.307   0.411   2.506  0.1221  0.1837  0.0059
20336W        W37183  19.220   5.885   1.214  0.0682  0.0873  0.1170
20337W        W37184   5.007  12.405   4.521 -0.0551 -0.3122 -0.1395
20338W        W37185   4.687  14.281  11.807 -0.1242  0.2182  0.0163
20339W        W37186  13.928  16.243  12.092 -0.3183  0.1658 -0.2740
20340W        W37187  12.623   3.967   3.281 -0.2444  0.4403 -0.2520
20341W        W37188   8.226  16.038   4.452  0.1975 -0.0150 -0.3118
20342W        W37189  15.919   6.860   2.007 -0.0674  0.0660  0.1372
20343W        W37190   3.116   5.911  13.656 -0.0369  0.1066  0.4139
20344W        W37191  19.776   5.827   1.057  0.0503  0.2075 -0.0092
20345W        W37192  17.433  15.231   1.925  0.1493 -0.0876  0.1133
20346W        W37193  11.649  19.907  12.116  0.0567  0.2697 -0.2832
20347W        W37194  19.472  10.581   4.148 -0.2202 -0.0883 -0.0520
20348W        W37195  18.481   0.299   4.172  0.1005 -0.1796  0.0971
20349W        W37196  15.426  14.945   1.693  0.1930 -0.0154  0.2823
20350W        W37197  10.251  10.969  11.052 -0.1350  0.4265 -0.0870
20351W        W37198   3.652   1.901  11.568  0.0733  0.1200  0.0178
20352W        W37199   6.056   7.946  10.044 -0.5443 -0.0724  0.0196
20353W        W37200  17.137   4.510   2.097  0.1979 -0.0268 -0.1222
20354W        W37201  13.326  13.134  10.921  0.0552  0.0914 -0.1130
20355W        W37202   3.925   3.374   0.189  0.2821 -0.1232 -0.0146
20356W        W37203   7.476  14.526  12.021  0.0262  0.0808 -0.0848
20357W        W37204  18.724  14.521  10.217  0.1493  0.0519 -0.1711
20358W        W37205  12.536   9.694  12.649 -0.1982  0.4239 -0.3343
20359W        W37206   3.386   5.422   4.152  0.3243  0.2011 -0.0837
20360W        W37207  10.296   2.691   2.906  0.0067 -0.0289  0.0268
20361W        W37208  19.793  19.062  10.837 -0.0298  0.1134  0.2910
20362W        W37209  11.358   1.532   2.445 -0.0479 -0.0276 -0.3942
20363W        W37210   3.448   8.051   1.768 -0.1917  0.3124  0.0845
20364W        W37211   7.316   0.686   4.528 -0.1334  0.2001  0.4574
20365W        W37212  16.980   7.332   3.025  0.1641 -0.0545 -0.1161
20366W        W37213  13.300  12.275  11.552  0.2147  0.1282 -0.0898
20367W        W37214   5.346  10.535   0.090  0.1695 -0.3636  0.1448
20368W        W37215  11.482   4.911  12.986  0.4914  0.0591  0.1068
20369W        W37216   8.402   3.017  12.878 -0.1513  0.0170 -0.2473
20370W        W37217   1.069  12.881   3.101  0.1089  0.3450 -0.2050
20371W        W37218  10.262   9.922  13.635 -0.0141  0.4206 -0.1518
20372W        W37219   8.925   8.489  11.687  0.1988 -0.1790 -0.1485
20373W        W37220   9.905  19.216   2.501  0.2236 -0.0665 -0.4839
20374W        W37221  18.198   4.684   2.345  0.2467 -0.1212 -0.1515
20375W        W37222  19.231  16.218   2.698 -0.1261 -0.2077 -0.0706
20376W        W37223  13.195   9.563   0.509 -0.3777  0.0933  0.2348
20377W        W37224   2.100   6.963  12.025  0.0633 -0.3541 -0.3039
20378W        W37225  16.437   6.046   4.279 -0.0477 -0.0989 -0.1891
20379W        W37226  10.253  16.346   2.757  0.0850 -0.0233  0.2418
20380W        W37227   3.229   1.347   3.662 -0.1564 -0.3453 -0.3687
20381W        W37228   6.753  15.280   1.323 -0.3047 -0.3573  0.0869
20382W        W37229  12.390   8.954   4.423  0.0162  0.0504  0.0657
20383W        W37230   7.600   7.532  10.693 -0.1908 -0.0279 -0.0011
20384W        W37231  14.392   4.437  12.395 -0.2075  0.0856  0.2265
20385W        W37232   7.121   8.970   3.705 -0.1038  0.2179 -0.0251
20386W        W37233   1.984   2.405  12.080  0.0638  0.1450  0.0255
20387W        W37234  13.219  16.468  11.901  0.1892  0.1886 -0.1151
20388W        W37235  19.213   2.387  13.747 -0.3179  0.0237 -0.0131
20389W        W37236   4.662  16.957  12.731  0.2084 -0.0968  0.4767
20390W        W37237   4.021  15.465   4.011 -0.1056  0.0957 -0.0710
20391W        W37238  19.387  18.991  13.405  0.0391  0.0133  0.1339
20392W        W37239  14.645  14.355  12.915 -0.1267  0.0624 -0.1227
20393W        W37240  14.995  15.517   1.859 -0.2274 -0.3192  0.1569
20394W        W37241  16.456   1.551   9.934  0.4722  0.2010 -0.2912
20395W        W37242   3.790  13.446  13.712 -0.1686 -0.2886  0.1636
20396W        W37243  18.201   3.963  14.005  0.0005  0.1081 -0.1377
20397W        W37244  17.599  17.696  13.330 -0.1610  0.1589 -0.3326
20398W        W37245   7.689   3.783   0.577  0.2690 -0.2953 -0.0451
20399W        W37246  16.055  19.905  14.194 -0.0703 -0.3687  0.0618
20400W        W37247   7.836  18.186  11.625 -0.0774  0.3946  0.1042
20401W        W37248  17.183  12.584   2.003  0.4387 -0.1509  0.0127
20402W        W37249  12.036   3.425   3.075 -0.2107 -0.1483  0.2315
20403W        W37250   2.503  12.848  11.331  0.0759  0.4197  0.0504
20404W        W37251  17.798  19.587  11.616  0.1204  0.0572  0.3046
20405W        W37252   4.841   5.176  10.542  0.0031  0.2507  0.0828
20406W        W37253   4.284   3.426  10.763  0.1085  0.0892 -0.0136
20407W        W37254   8.982  18.720   1.959 -0.1966 -0.0510  0.2686
20408W        W37255   1.118   1.103   3.391 -0.1827  0.1485  0.2134
20409W        W37256   9.269   4.581  11.902  0.0238  0.0258  0.2050
20410W        W37257   9.258   4.999   2.098 -0.0556  0.1905  0.0636
20411W        W37258  11.716  19.458   1.941 -0.1783  0.1894 -0.0382
20412W        W37259   4.997  16.895  13.381  0.1393 -0.2718 -0.0077
20413W        W37260   6.603   2.486   2.767 -0.0169 -0.3217  0.0624
20414W        W37261   9.944  13.208   3.649  0.2352  0.1626 -0.1131
20415W        W37262   3.982  19.115   1.632 -0.2046 -0.1291  0.1623
20416W        W37263  11.271  19.849  11.703 -0.0945 -0.1200  0.0735
20417W        W37264  15.883  12.038  10.783 -0.2928  0.1957  0.0536
20418W        W37265   9.260  14.368  11.237  0.0129 -0.0668  0.0931
20419W        W37266  14.172  13.074   2.088 -0.0841 -0.0722  0.1825
20420W        W37267   1.766   8.176   2.433 -0.2195 -0.1144 -0.0746
20421W        W37268  13.403  17.047  10.478 -0.1795  0.2835 -0.1364
20422W        W37269  13.676   2.274   0.849  0.0002 -0.0310 -0.2360
20423W        W37270   5.605  19.444   9.895 -0.2116 -0.0437  0.2458
20424W        W37271   2.752   2.895  13.569  0.2005  0.1059 -0.0342
20425W        W37272  19.593   3.532  13.476 -0.0783 -0.0341  0.3375
20426W        W37273  18.618   4.352   0.858  0.2524  0.0171  0.2124
20427W        W37274   5.163   5.446   0.111  0.0165 -0.1760 -0.1967
20428W        W37275   3.772   7.832   0.063  0.2884  0.2470  0.1875
20429W        W37276   4.536   5.204   1.906 -0.2268  0.1060  0.0501
20430W        W37277   2.500   2.554  11.427 -0.0163 -0.0874  0.2969
20431W        W37278  14.463  15.903   4.786 -0.3377  0.1473 -0.0228
20432W        W37279  17.206  11.744  11.636  0.1672  0.0383  0.2548
20433W        W37280   1.215  18.696   1.582 -0.0684 -0.0767 -0.1114
20434W        W37281   2.824  13.082   1.782 -0.3274 -0.1245  0.0668
20435W        W37282  18.580   9.496  13.118  0.0216  0.3796 -0.0345
20436W        W37283   3.213  14.987   1.351 -0.0740 -0.2503 -0.1043
20437W        W37284   6.035  17.275   3.206  0.2421  0.0187  0.0458
20438W        W37285   6.500   2.789   4.097 -0.0401 -0.2851 -0.0474
20439W        W37286  17.092  13.414  12.093  0.0101 -0.0967 -0.1987
20440W        W37287  19.392  13.892  10.452  0.1012 -0.2861 -0.3191
20441W        W37288  13.160  12.300   1.591  0.4412 -0.0694 -0.0050
20442W        W37289   3.142   2.210  13.126 -0.2708  0.2419  0.3387
20443W        W37290  14.994  12.387   4.832 -0.0533  0.1183  0.1992
20444W        W37291  12.101  16.083   3.145 -0.0524 -0.0434  0.0227
20445W        W37292   7.170  17.661  13.611  0.1853 -0.0359  0.0708
20446W        W37293  18.480   7.583  13.258 -0.2717  0.2767 -0.0860
20447W        W37294  10.172   5.389  11.147 -0.0774 -0.2318  0.0879
20448W        W37295  14.076  15.199   1.218  0.0498  0.4828  0.0407
20449W        W37296  11.423   8.996   3.474  0.1254 -0.3387 -0.1100
20450W        W37297   0.746  13.445   0.877 -0.1347  0.3937 -0.0790
20451W        W37298  13.252   5.602  13.337  0.1768 -0.1722  0.1124
20452W        W37299   4.174   2.982   2.319  0.1389 -0.0169 -0.1417
20453W        W37300   9.189   7.100   1.614  0.1788  0.0365 -0.1327
20454W        W37301   8.582  11.202   2.609  0.1738  0.2080  0.0844
20455W        W37302  19.803  13.286   2.247  0.1518 -0.0124 -0.0896
20456W        W37303   0.656   2.329  11.907  0.2672 -0.0547 -0.0200
20457W        W37304  18.431  14.975  12.861 -0.0189  0.0338 -0.1723
20458W        W37305   1.351  11.975   3.208  0.0502 -0.2628  0.0907
20459W        W37306  12.422   2.391   1.881  0.0602 -0.0583  0.1694
20460W        W37307  11.509  19.109  13.656 -0.1687  0.1961  0.3901
20461W        W37308   6.748  11.106   0.283 -0.0504 -0.0907 -0.2020
20462W        W37309  19.463  19.079   1.588 -0.0721 -0.1963  0.0890
20463W        W37310   1.468   1.797  13.955 -0.0778 -0.2016 -0.1950
20464W        W37311   4.924   6.041  11.376  0.0696 -0.0852 -0.0471
20465W        W37312  14.971  12.062  14.006 -0.0163  0.0645  0.2203
20466W        W37313   3.866   8.452   4.297  0.1566 -0.0968 -0.0932
20467W        W37314  12.318  19.085   4.233 -0.1335 -0.2045  0.4473
20468W        W37315  16.995   7.628  10.916 -0.0080 -0.0209 -0.1884
20469W        W37316  11.280   0.186   1.621 -0.1271  0.4122 -0.1261
20470W        W37317   7.889  17.529   2.514  0.3160 -0.0803  0.1733
20471W        W37318   7.510  19.237  13.981 -0.0242  0.0449  0.0516
20472W        W37319   7.672  11.118   0.063 -0.2798  0.1942  0.1057
20473W        W37320  15.756  15.670  10.842 -0.1231 -0.1193  0.3057
20474W        W37321   7.965   6.072  10.467 -0.2232  0.0377  0.2469
20475W        W37322  19.259   0.997   4.975  0.1522 -0.1196  0.1667
20476W        W37323  14.042  17.035   4.385 -0.1319 -0.2052 -0.4490
20477W        W37324   6.065  15.732   8.956 -0.3139 -0.1914 -0.1068
20478W        W37325  14.459   3.454  10.744 -0.4878 -0.2513  0.0614
20479W        W37326   6.328   0.200  10.144  0.0221  0.0397 -0.1205
20480W        W37327   0.076   6.560   1.637  0.1168 -0.2119  0.1024
20481W        W37328  14.331   0.307   1.850  0.0770 -0.1358 -0.2093
20482W        W37329   9.905  17.853   9.074  0.1962 -0.2747 -0.0518
20483W        W37330   4.011  19.679   3.133  0.3673 -0.2562 -0.1740
20484W        W37331   8.180  14.184   2.099  0.1231  0.1194 -0.2541
20485W        W37332  13.929   3.659   1.908 -0.0977  0.2983 -0.1244
20486W        W37333   6.584   1.899   0.313 -0.1265  0.0087  0.1160
20487W        W37334  15.860   6.030   0.203  0.0503 -0.2476 -0.0251
20488W        W37335   1.432   3.156   2.484  0.3096  0.3961  0.4762
20489W        W37336  13.957  14.110  12.436 -0.1111  0.3159 -0.0012
20490W        W37337  12.376   7.608  10.841  0.2827  0.3425  0.1495
20491W        W37338   0.613  12.565   4.825  0.3002  0.0147 -0.1240
20492W        W37339   5.081   3.880   3.530 -0.0294  0.0365 -0.1087
20493W        W37340  13.389   8.685   3.842 -0.0281  0.0118 -0.2714
20494W        W37341  12.697   8.560  12.655 -0.2446 -0.1812 -0.2815
20495W        W37342   7.589   7.559   2.236  0.0479 -0.2758 -0.0627
20496W        W37343  11.362   2.353  10.358  0.0353 -0.2160  0.1013
20497W        W37344   4.978   6.301   5.256  0.0515  0.1705 -0.1196
20498W        W37345   1.244   4.663  12.291 -0.0087 -0.1210 -0.1195
20499W        W37346   6.827  14.814   2.215  0.0933 -0.4256  0.3078
20500W        W37347   6.125   5.957   9.741  0.0917 -0.2808 -0.0917
20501W        W37348  11.975   7.102  10.238  0.0603 -0.2737 -0.2838
20502W        W37349  12.379   8.026   4.417 -0.2863 -0.0732  0.1404
20503W        W37350   1.542   5.612   2.641 -0.4475 -0.2344 -0.0467
20504W        W37351   5.813   2.488  11.102 -0.2425  0.3140  0.3100
20505W        W37352  18.636  14.028  12.881  0.1256  0.3229  0.1233
20506W        W37353  12.940   2.450   4.549 -0.0957 -0.0673 -0.0805
20507W        W37354  19.168   9.582   0.664 -0.0908  0.2144  0.2192
20508W        W37355  15.071  18.081   3.664  0.4830 -0.1343 -0.3607
20509W        W37356   8.610  14.519   2.084  0.0423 -0.2329  0.1323
20510W        W37357   2.117   8.367   2.745  0.2779  0.0285  0.1746
20511W        W37358  11.638  13.886  14.241  0.0788  0.0050 -0.0300
20512W        W37359   4.117   3.402   3.313 -0.2308 -0.1529 -0.3265
20513W        W37360  16.575   5.551  11.931  0.2871 -0.1707 -0.0703
20514W        W37361   0.759  12.634   2.639  0.1557 -0.0512  0.0909
20515W        W37362  17.696  11.942   1.815  0.1200 -0.1759 -0.0790
20516W        W37363  11.340  12.063  10.627  0.2776  0.0434  0.3150
20517W        W37364  12.721  14.456   3.739  0.1520  0.1170  0.0016
20518W        W37365  11.415   0.262   4.978 -0.3338  0.0368  0.1873
20519W        W37366   4.888   9.358  10.247  0.2969 -0.2002  0.0139
20520W        W37367   4.731   3.282  12.819  0.1171 -0.0701 -0.1747
20521W        W37368  19.562  17.930  14.236 -0.1448 -0.0051  0.2658
20522W        W37369   8.004  11.847   3.879 -0.1335 -0.1673  0.0171
20523W        W37370   7.190   0.201  11.488  0.2524 -0.0987 -0.6290
20524W        W37371  14.930   1.737  13.376  0.0015 -0.0445  0.2175
20525W        W37372  12.000  17.372  10.936  0.0572 -0.3208 -0.2798
20526W        W37373   4.592   3.465  11.258 -0.1153  0.5171  0.0021
20527W        W37374   9.450  12.604  12.257 -0.1181 -0.1509  0.2315
20528W        W37375  11.095   8.602   9.606 -0.0448 -0.0211  0.1390
20529W        W37376  13.521  18.253   2.131  0.3804  0.0665  0.0267
20530W        W37377   2.877  19.144  10.959 -0.0718  0.0110 -0.1135
20531W        W37378   7.777   8.576  10.733 -0.1091  0.2393 -0.1125
20532W        W37379   5.586   4.791   9.921  0.0464  0.0856  0.0537
20533W        W37380  16.662   8.333   2.709  0.0051  0.0841 -0.0607
20534W        W37381   2.158  19.710   0.599 -0.2179 -0.0929  0.3105
20535W        W37382   3.451   8.657   9.499  0.0495  0.0165  0.0847
20536W        W37383  17.295   5.913  13.880  0.1602  0.0292  0.0711
20537W        W37384  18.061   9.503   0.723  0.1058 -0.3546  0.1365
20538W        W37385   4.441  13.671  10.202 -0.1050  0.2254  0.1550
20539W        W37386  13.282  19.462   2.266  0.2509 -0.4327  0.2096
20540W        W37387   2.737   0.391  10.092 -0.3607  0.0318  0.2144
20541W        W37388  17.061  12.008   9.110  0.0040  0.1920  0.1166
20542W        W37389   3.395  11.104  11.425  0.0141 -0.0906 -0.3830
20543W        W37390   4.341   4.314   9.907 -0.1212 -0.0511 -0.0250
20544W        W37391  16.598   4.631   2.747  0.2561  0.3001 -0.0269
20545W        W37392  13.058  10.089   5.351  0.1502  0.0107 -0.0760
20546W        W37393  15.792  11.904   2.811 -0.2622 -0.0289 -0.2620
20547W        W37394   7.918  18.144  10.319  0.2321  0.2817 -0.0125
20548W        W37395   4.591   3.654   1.958  0.0641 -0.2846 -0.1999
20549W        W37396  11.163   6.795   1.218 -0.1115 -0.0784  0.3450
20550W        W37397   1.603  19.852   1.459  0.0651  0.0021  0.2482
20551W        W37398   2.870  12.462   1.839  0.0658  0.0499  0.1221
20552W        W37399  18.496  10.739   0.400  0.4000  0.1113  0.3026
20553W        W37400  11.955  12.235   1.298 -0.0685  0.1409 -0.3201
20554W        W37401  17.944   2.630  13.562 -0.2014 -0.1666 -0.1785
20555W        W37402  14.285   2.905   1.552  0.0598  0.0787  0.3378
20556W        W37403  16.108   3.818   0.712  0.0867  0.3105 -0.1674
20557W        W37404  16.104  10.679  13.694  0.0068  0.1808  0.1186
20558W        W37405   7.268   0.456  12.945  0.2097  0.0670 -0.0237
20559W        W37406  16.299  19.928   5.419 -0.3202  0.0054 -0.0912
20560W        W37407   4.200  18.674   1.167 -0.0676 -0.0197 -0.0018
20561W        W37408   2.320   4.090  11.238  0.2500  0.1163 -0.0418
20562W        W37409   2.604   8.003  13.607  0.1038 -0.0677  0.1089
20563W        W37410   4.834  17.257  11.631  0.0998  0.2253  0.0887
20564W        W37411   9.253   7.798  12.768  0.2720 -0.2845  0.0367
20565W        W37412  13.443   1.950   5.290  0.1224  0.1498  0.3805
20566W        W37413  15.160  18.564   3.829 -0.2443  0.1368  0.1705
20567W        W37414   6.230   8.311  13.335 -0.2243  0.1681  0.3349
20568W        W37415   9.492   9.331  13.767 -0.4318 -0.0129 -0.1408
20569W        W37416  18.733   5.129   4.301  0.0302 -0.0148 -0.2718
20570W        W37417  16.562  10.877  13.105  0.2273  0.3523  0.1083
20571W        W37418  11.574  17.922   2.094  0.1185  0.1117  0.0315
20572W        W37419   1.179  11.107   1.215 -0.1023 -0.1612  0.1231
20573W        W37420  18.425   8.036  11.085  0.1728 -0.1478  0.0297
20574W        W37421   3.426  16.299  13.858  0.1205  0.1924 -0.4889
20575W        W37422  18.243   9.603  12.710 -0.3180  0.0985  0.1444
20576W        W37423  15.429  15.292   3.830  0.0892  0.2131  0.0045
20577W        W37424  14.540  10.527  10.433 -0.0201  0.0868  0.0980
20578W        W37425   7.300  16.922   1.569  0.5387  0.3182 -0.0938
20579W        W37426   6.322   5.504   9.849 -0.0543 -0.2459  0.2094
20580W        W37427   1.766  14.306   0.080 -0.2974  0.2787 -0.3407
20581W        W37428  10.260  16.535  10.380  0.1877 -0.2854  0.0758
20582W        W37429  16.983  15.816  12.609 -0.1878 -0.0187 -0.0729
20583W        W37430  16.391   6.065   3.413 -0.4048  0.2999 -0.1865
20584W        W37431  17.036   4.284  10.937 -0.1721  0.1742 -0.0376
20585W        W37432   1.344  12.843   1.334 -0.1861 -0.0834 -0.0197
20586W        W37433  13.157   6.700   1.860 -0.1024 -0.0426  0.1526
20587W        W37434  15.676   1.945   0.196  0.2778 -0.0607 -0.0911
20588W        W37435  12.378   3.036  14.152 -0.1808 -0.1247 -0.3809
20589W        W37436   6.270  12.239   3.277  0.0506 -0.1711  0.2907
20590W        W37437   6.328  19.605   0.548 -0.0509 -0.0059  0.3099
20591W        W37438   2.354   8.651   0.831 -0.1031  0.3956  0.1096
20592W        W37439  18.556   4.276   2.645 -0.1965  0.0441 -0.0330
20593W        W37440  11.098   0.506  11.338 -0.0264 -0.3908 -0.3802
20594W        W37441  18.482   7.923  13.605 -0.1046  0.1481 -0.1578
20595W        W37442   7.945   8.222  10.395 -0.0313 -0.1410 -0.4203
20596W        W37443   1.334   0.121   5.302 -0.2574  0.0546  0.0256
20597W        W37444   5.244  11.954  10.656  0.3081  0.1661  0.0047
20598W        W37445   1.608  15.227   0.091 -0.0937  0.1370 -0.0106
20599W        W37446   7.544  18.122   3.562  0.1157 -0.0344 -0.1579
20600W        W37447   0.219  16.976  12.225  0.0655  0.0214 -0.2014
20601W        W37448  17.708   2.425   4.421  0.2185  0.3913 -0.2351
20602W        W37449   7.730   3.897  10.293 -0.3287 -0.3195  0.0558
20603W        W37450  11.442   3.212   3.584  0.0311 -0.1264  0.0605
20604W        W37451   5.212  16.466   1.719  0.0336 -0.2427  0.2565
20605W        W37452  12.749   3.519  11.202  0.0477 -0.3426  0.3169
20606W        W37453  19.720  12.073  11.580 -0.4008 -0.0174  0.2955
20607W        W37454   9.450   2.704  12.994 -0.3901 -0.1002 -0.1279
20608W        W37455  18.973  17.450  11.498  0.4128 -0.0361  0.2895
20609W        W37456   9.353   7.237   0.769  0.0634 -0.1511 -0.0952
20610W        W37457  15.960   5.200   3.873 -0.0523  0.0489 -0.1423
20611W        W37458   2.815   7.799   0.066  0.2236 -0.0115  0.1299
20612W        W37459   4.796   9.666  10.629 -0.1086  0.0164  0.2153
20613W        W37460  19.021   0.535  12.024  0.3662 -0.1540  0.1208
20614W        W37461  13.691  12.195   2.645  0.5029 -0.1536  0.1379
20615W        W37462   7.742  17.041   0.682 -0.2413 -0.0824  0.1854
20616W        W37463   4.650  15.258   2.388 -0.0743 -0.0272 -0.0873
20617W        W37464   2.110  13.211   0.388  0.0089  0.1467 -0.1513
20618W        W37465   4.900  14.073   1.846  0.1324 -0.0463 -0.1713
20619W        W37466  11.016  16.122   9.908  0.0923 -0.0988  0.0734
20620W        W37467   7.899  19.634  12.389 -0.0619  0.1560  0.1681
20621W        W37468   0.863  19.878  12.897 -0.1632  0.1920 -0.0642
20622W        W37469  12.629  15.036  11.885 -0.0546 -0.1176 -0.2585
20623W        W37470  18.432  13.534   1.318 -0.1779 -0.3469 -0.3104
20624W        W37471  17.659  10.598   3.944  0.0547 -0.1657 -0.1264
20625W        W37472   1.649  17.444   2.497 -0.1346  0.2027  0.1270
20626W        W37473  13.885  10.195  13.310 -0.0506  0.0507  0.4684
20627W        W37474   7.200  17.839  11.208 -0.2382  0.0505 -0.0688
20628W        W37475   1.640  11.843   2.412  0.0807 -0.0280  0.2109
20629W        W37476  14.240  13.309  13.436 -0.4376 -0.0856 -0.1122
20630W        W37477   0.812   6.169  10.394  0.1368  0.0173 -0.1026
20631W        W37478   6.874  19.913  11.233 -0.1354 -0.0663  0.0996
20632W        W37479  18.803  17.212   3.358  0.0528  0.0767 -0.1588
20633W        W37480   2.569  19.429   0.558 -0.0818  0.0034 -0.1075
20634W        W37481  13.993   7.280  12.421  0.1023 -0.2296 -0.0497
20635W        W37482  19.310   8.411  12.647  0.0340 -0.2597 -0.3430
20636W        W37483  14.634   7.967   1.222  0.2756  0.1602 -0.0561
20637W        W37484  18.437  10.942  13.153 -0.0525  0.2519 -0.1775
20638W        W37485   7.436  17.855   3.052 -0.1118  0.1425  0.0323
20639W        W37486   2.811  10.407   2.500  0.0126 -0.2190 -0.3499
20640W        W37487  10.199   9.022   3.116 -0.1173 -0.1307  0.1513
20641W        W37488   9.952  17.810   2.081  0.2050 -0.2260 -0.0645
20642W        W37489  18.137  16.615  11.530 -0.2176  0.0472 -0.0037
20643W        W37490   1.674  12.650  13.332 -0.4038  0.0045  0.3438
20644W        W37491  15.683   4.659   2.486 -0.1364  0.1022 -0.3220
20645W        W37492  18.389   1.376  12.437 -0.0327  0.0716 -0.3437
20646W        W37493   7.923  16.324  12.984  0.0095  0.1177  0.0242
20647W        W37494   3.778  15.281  11.574 -0.1225 -0.2240 -0.0102
20648W        W37495  14.369   2.405  12.898 -0.2634 -0.0936 -0.0184
20649W        W37496   0.347  17.141   0.927 -0.0933  0.1623  0.1427
20650W        W37497  16.876  14.949   4.252  0.0834 -0.0027 -0.0895
20651W        W37498   0.873   8.086  10.416  0.2696  0.0789  0.0389
20652W        W37499  10.644   0.625   4.693  0.0178  0.2268  0.1175
20653W        W37500   4.961  17.850   2.234 -0.3112 -0.1982 -0.0593
20654W        W37501  13.363   9.128   0.740 -0.1232 -0.2496  0.1335
20655W        W37502   8.692  10.249  10.613  0.2196 -0.4077  0.1586
20656W        W37503  17.102  18.687  10.897 -0.1042  0.0448 -0.4192
20657W        W37504  11.816  10.120   9.975  0.0423 -0.1380 -0.1472
20658W        W37505   7.104  14.363  12.625 -0.3349 -0.2581  0.1476
20659W        W37506  17.409   2.575  12.503  0.1729 -0.3043  0.3548
20660W        W37507   4.008   5.072  14.073 -0.2723 -0.3363 -0.1584
20661W        W37508   5.498  18.784  11.845  0.3894 -0.1575  0.0590
20662W        W37509   8.453   8.484   3.934 -0.1008  0.0957 -0.1792
20663W        W37510   6.464  16.283  13.837 -0.1089 -0.3013 -0.1363
20664W        W37511   6.528   5.152  13.722  0.3159  0.1166  0.2180
20665W        W37512  15.899   9.407  13.903 -0.0070  0.0321  0.0376
20666W        W37513  15.525   1.599  13.165 -0.0428 -0.1974 -0.2015
20667W        W37514   9.015  17.683  12.053 -0.1035 -0.0040  0.1263
20668W        W37515  13.294  19.668   2.682  0.4979 -0.0426 -0.3241
20669W        W37516  15.220  17.424  10.329 -0.1558 -0.4072 -0.1985
20670W        W37517  17.871  16.041   3.997  0.0129 -0.0116 -0.0230
20671W        W37518   6.927   8.027   1.050 -0.0578  0.2441 -0.4534
20672W        W37519  12.916  15.730   2.877  0.2867  0.3592  0.0705
20673W        W37520   3.370   1.229  11.727  0.2315 -0.3455  0.0981
20674W        W37521  10.971  14.857   0.368  0.1274  0.2440  0.0576
20675W        W37522  12.726  18.514   3.458 -0.0355 -0.1047  0.0634
20676W        W37523   8.040  15.996   3.255  0.1230 -0.0947  0.2725
20677W        W37524  15.213   3.776   2.791  0.0799 -0.0634 -0.0904
20678W        W37525  18.796   1.959  11.334 -0.0477 -0.3842 -0.1293
20679W        W37526  12.770   6.997  14.276  0.1480  0.0785 -0.4266
20680W        W37527  11.635  18.595  13.355  0.4791 -0.0317  0.1397
20681W        W37528   1.826  14.130   4.289 -0.0531  0.0988  0.0306
20682W        W37529   0.533   0.884  13.362  0.1086 -0.2603  0.1157
20683W        W37530   7.766   5.881  10.024  0.1513 -0.2770 -0.1719
20684W        W37531  18.752   2.690   1.930 -0.4397  0.0487 -0.0399
20685W        W37532   3.455   6.175  11.200 -0.1216 -0.0093  0.2152
20686W        W37533  12.785   1.491  10.816 -0.1824 -0.1670  0.1849
20687W        W37534   4.407  13.128  10.078 -0.3693 -0.4556  0.1503
20688W        W37535   0.975   0.523  13.414 -0.0219 -0.3011 -0.0616
20689W        W37536  18.882   9.177   0.509 -0.2998 -0.0466  0.0270
20690W        W37537   4.097   8.737   3.422  0.0685 -0.0587  0.0154
20691W        W37538  16.766   7.133   0.127 -0.4139 -0.1315 -0.0588
20692W        W37539  14.011   9.097  12.465 -0.6158 -0.3428 -0.2358
20693W        W37540   0.637  16.240   2.790  0.0636 -0.4798  0.2817
20694W        W37541   7.057   0.269   3.468  0.1310  0.3972 -0.1135
20695W        W37542  13.524   3.798   2.185 -0.2714 -0.0021  0.1544
20696W        W37543  18.009  16.742  12.501 -0.2327 -0.1567  0.1151
20697W        W37544  12.444   0.930   0.287 -0.0450  0.1461 -0.1203
20698W        W37545  12.092  17.605   2.099 -0.0224 -0.0449 -0.1284
20699W        W37546  10.824  11.918  12.361 -0.2373  0.0677 -0.0668
20700W        W37547  13.168   7.196   2.002 -0.0072  0.0523 -0.0778
20701W        W37548   4.102  14.383  13.758  0.1561  0.1087 -0.0557
20702W        W37549   3.613  12.316  10.483  0.0389 -0.0907 -0.2940
20703W        W37550   0.166   8.874  14.091  0.1174 -0.1934  0.3259
20704W        W37551  19.067   7.690   0.720 -0.0569  0.1457  0.0013
20705W        W37552   9.141   8.969  11.735  0.2810  0.0032  0.2019
20706W        W37553   9.063  11.566   2.864 -0.2814  0.1254  0.3123
20707W        W37554   7.176   9.413   4.014  0.2211  0.0003 -0.0133
20708W        W37555  11.960   9.784  11.165  0.1810  0.1014  0.2018
20709W        W37556   4.307   2.537   1.366 -0.2058  0.1953  0.1208
20710W        W37557   8.454  15.758   2.347 -0.1849 -0.0105  0.0971
20711W        W37558  18.432   8.650  10.570  0.0569 -0.3334  0.0140
20712W        W37559  13.653  14.905  13.182  0.1762 -0.1478 -0.2147
20713W        W37560   5.995  13.890   4.256  0.0536 -0.0068 -0.1836
20714W        W37561   4.004  10.261  10.340  0.2284  0.0881  0.2655
20715W        W37562  17.547   8.970   5.135 -0.1948  0.1360 -0.3660
20716W        W37563  19.786  10.165   3.329 -0.0470  0.2640  0.3103
20717W        W37564  13.684  15.397  13.410 -0.1162 -0.0118 -0.2980
20718W        W37565  19.520   7.188   1.348 -0.0199  0.1909  0.1043
20719W        W37566  18.831   4.560   9.675  0.1131 -0.3589  0.0437
20720W        W37567   7.407  13.478   4.086 -0.0128 -0.0121  0.1726
20721W        W37568   7.746  14.047   4.877  0.2869  0.3103 -0.0555
20722W        W37569   1.545  16.126   1.083 -0.2384 -0.0602  0.2252
20723W        W37570  19.805  15.091   2.230 -0.0513  0.1691  0.2613
20724W        W37571   5.251  15.357  11.372  0.2870 -0.1368  0.0097
20725W        W37572  16.416   6.892  14.099 -0.1463  0.0924  0.2870
20726W        W37573  12.676  16.934   2.989  0.0662 -0.1101 -0.0699
20727W        W37574  16.277  11.009   0.258 -0.2542  0.0066  0.3129
20728W        W37575   6.091   5.468  14.306 -0.4692  0.4295 -0.0632
20729W        W37576  13.948   6.868   1.491  0.3088  0.2827  0.1774
20730W        W37577  11.405   4.567  14.077 -0.3023  0.2434  0.2772
20731W        W37578  15.991   5.878  11.164  0.3866  0.0477 -0.1800
20732W        W37579   9.549  15.826  11.992 -0.1891  0.1093 -0.2695
20733W        W37580  15.080   1.851   2.691 -0.0226 -0.0519 -0.1360
20734W        W37581  18.799  17.330  11.926 -0.0648 -0.1028 -0.2036
20735W        W37582   4.698   4.850  10.900 -0.0182  0.2343  0.0459
20736W        W37583   3.645   9.626  11.169  0.0207 -0.0778 -0.2768
20737W        W37584   8.655   7.529  13.906  0.1923  0.2963  0.1990
20738W        W37585   7.208   8.809   4.569  0.2074 -0.0530 -0.0785
20739W        W37586  15.757  12.974  10.355 -0.1922  0.2366  0.0737
20740W        W37587  10.679   8.064  12.270  0.0596 -0.0556  0.1562
20741W        W37588  19.709   7.414   3.888 -0.3207 -0.1945 -0.0522
20742W        W37589  19.334  11.531  11.475  0.1637 -0.0116  0.1779
20743W        W37590  16.165  17.721  12.267 -0.1192  0.0175 -0.2251
20744W        W37591  14.414   1.289   3.225  0.0681  0.1668 -0.2151
20745W        W37592   5.280  17.714  13.354  0.2651 -0.1112 -0.1793
20746W        W37593  12.894   6.495  10.239 -0.0739  0.0765 -0.2171
20747W        W37594   6.616  13.124   4.707 -0.3958  0.0622  0.3527
20748W        W37595   3.770  14.376   9.616 -0.0008  0.0408  0.2123
20749W        W37596  10.491   6.677   1.986 -0.0377 -0.0711  0.1187
20750W        W37597   5.299  14.465   2.591 -0.2088  0.1898  0.0222
20751W        W37598  18.250   6.939  13.758  0.0169 -0.0024 -0.1609
20752W        W37599   2.593   7.374  10.849 -0.0634 -0.0191 -0.0998
20753W        W37600   5.616  18.936   0.199 -0.3936  0.1196 -0.0369
20754W        W37601  10.486  13.398   3.432 -0.1221  0.2195 -0.0095
20755W        W37602  17.575  15.525   2.356 -0.1821  0.0878  0.2012
20756W        W37603  11.869  10.139   4.928 -0.2858 -0.1338  0.0451
20757W        W37604  15.081   5.536   2.919  0.0855 -0.0306 -0.1122
20758W        W37605  14.348   5.749  12.377 -0.4798 -0.2181 -0.0775
20759W        W37606   0.631   0.853  12.233  0.0031 -0.0129  0.1416
20760W        W37607   3.100  15.487   1.301  0.0973 -0.2302  0.2747
20761W        W37608  12.894  14.085   1.961  0.0163  0.1053  0.3302
20762W        W37609  10.150   1.554  12.445  0.1262  0.2714 -0.0968
20763W        W37610  14.327   5.104  12.208  0.0922  0.0127  0.1199
20764W        W37611   8.783   3.743   2.705  0.1320 -0.2570 -0.2154
20765W        W37612  12.485   3.622   4.251  0.2066 -0.1202  0.1057
20766W        W37613  11.822  10.777   2.913  0.3629  0.1710  0.3374
20767W        W37614  16.455  18.720   5.250  0.1924 -0.2126  0.1793
20768W        W37615  14.622   5.209   3.837 -0.1154 -0.1877 -0.0919
20769W        W37616  17.775   8.709  12.908  0.1946 -0.3543 -0.1078
20770W        W37617   4.724  13.808   2.737  0.1681  0.2684 -0.1936
20771W        W37618   3.392   5.491   0.432  0.2307  0.0637 -0.0611
20772W        W37619   1.930  15.449   0.889  0.1968 -0.1191  0.1629
20773W        W37620  18.028   1.105  11.053  0.0635  0.1357 -0.0717
20774W        W37621   4.392  14.369   3.551 -0.0194  0.1498  0.0205
20775W        W37622  17.303   5.398  11.768 -0.1140  0.3256  0.3528
20776W        W37623   3.805   0.622   0.636 -0.3127  0.1932  0.2576
20777W        W37624   8.660   8.711   0.458 -0.1842 -0.0752 -0.2599
20778W        W37625  15.049   7.166   1.097  0.1115  0.0528 -0.3144
20779W        W37626   2.690   3.731   0.429  0.3898  0.0556 -0.0533
20780W        W37627  18.496  18.697   0.643 -0.2923 -0.1697 -0.0403
20781W        W37628   9.524  10.287  14.041 -0.1130 -0.3577 -0.2092
20782W        W37629   0.426   5.500  10.040 -0.2369 -0.2345  0.1676
20783W        W37630   4.864   3.637  11.677 -0.2687  0.0705  0.1409
20784W        W37631  11.088   2.889  11.139  0.1371  0.0405 -0.1877
20785W        W37632   0.799  13.074   1.353  0.0797 -0.0894 -0.0711
20786W        W37633   3.660  15.340  13.775  0.3369 -0.0721 -0.0846
20787W        W37634  10.484  18.711   9.808 -0.1208  0.1091  0.3321
20788W        W37635   9.519  15.671   0.912 -0.4702  0.0487  0.0759
20789W        W37636   5.213   9.183  11.633  0.0305 -0.1531  0.1667
20790W        W37637   6.164  11.373  12.402  0.0651 -0.2036  0.4363
20791W        W37638  19.388   3.155  12.604  0.1389  0.3534  0.0796
20792W        W37639   7.703  10.976  12.258 -0.1790  0.0075  0.0783
20793W        W37640   8.918  15.988   2.337  0.3036 -0.1075  0.3575
20794W        W37641   6.835   9.772  14.029 -0.0848  0.3430  0.0420
20795W        W37642  17.348   4.987   4.722 -0.0707  0.2274  0.0456
20796W        W37643  11.599  10.124   2.398  0.1091 -0.0258 -0.2507
20797W        W37644   0.327   6.526  13.817  0.2288 -0.0055  0.1041
20798W        W37645   5.346   3.411   2.247  0.2524 -0.2143 -0.1868
20799W        W37646  16.281   9.568   0.387  0.1334 -0.1493 -0.0239
20800W        W37647  13.008   7.012  13.767  0.3752 -0.2275  0.1840
20801W        W37648   8.196  16.912  13.689  0.0338 -0.0276 -0.2201
20802W        W37649  18.550   5.155  10.422  0.3101  0.4169  0.3502
20803W        W37650  15.447   3.851  12.705  0.1454 -0.3604 -0.0543
20804W        W37651   0.668   5.503  12.293  0.0195  0.2046 -0.0315
20805W        W37652  10.853  17.971   2.872  0.2090  0.0626  0.1409
20806W        W37653  16.992  19.856   1.762 -0.2372  0.3354  0.1215
20807W        W37654  15.607   1.825  12.703  0.0860 -0.1407 -0.2433
20808W        W37655  17.579   7.381  10.192 -0.0413  0.2362  0.2864
20809W        W37656  15.702   0.405   2.434  0.0283 -0.0513 -0.0652
20810W        W37657  16.702  19.142  13.035  0.0466  0.2643  0.0322
20811W        W37658  13.630   0.332  11.283  0.3072 -0.3397 -0.3298
20812W        W37659  13.920   3.993  12.993 -0.4039  0.0992  0.1504
20813W        W37660   8.927  12.181  13.525  0.0805 -0.3199 -0.1984
20814W        W37661   7.374   2.755   3.821 -0.2792 -0.0161 -0.0563
20815W        W37662  18.613   4.005  11.415 -0.0911  0.1353 -0.0360
20816W        W37663  13.312  17.665  13.979 -0.1403  0.1072 -0.2669
20817W        W37664   1.839  14.614  12.270  0.0701 -0.2255  0.0838
20818W        W37665  12.711   3.254  12.647  0.0916  0.1601 -0.0000
20819W        W37666   7.682  19.858  13.299 -0.1958 -0.3181  0.1535
20820W        W37667  12.777  13.388  14.261 -0.3449 -0.3237 -0.1660
20821W        W37668   8.231  11.496   0.756  0.2120  0.2866  0.5642
20822W        W37669  12.113   7.206  13.237 -0.1220  0.2823 -0.0146
20823W        W37670  16.574   0.042  12.930 -0.0906 -0.0387 -0.1274
20824W        W37671   7.869  11.359   3.778 -0.1307 -0.1685 -0.1175
20825W        W37672  19.557  14.484  13.614  0.1731 -0.0065 -0.1176
20826W        W37673   4.115   7.537  10.602 -0.1593  0.0344  0.1237
20827W        W37674  16.618   4.905   5.559  0.2450 -0.0762 -0.2768
20828W        W37675  11.461  14.749  11.806  0.1242 -0.1898  0.0794
20829W        W37676   4.850   1.273  13.664 -0.3911  0.0839  0.0734
20830W        W37677  13.340  15.534   4.706  0.1470  0.1805  0.1443
20831W        W37678   6.744  15.833  11.708 -0.1189 -0.1717 -0.2082
20832W        W37679   8.877   0.059   0.459 -0.2827  0.1940 -0.1968
20833W        W37680   4.554   7.950  11.976  0.0267 -0.1523 -0.1279
20834W        W37681   4.862   4.588   2.934 -0.1467 -0.2267  0.2639
20835W        W37682   4.684  11.318   1.787 -0.1218  0.3028  0.1578
20836W        W37683  13.510  10.546   0.129  0.1253  0.0150 -0.1257
20837W        W37684   9.756   7.601   2.294  0.1270  0.2440  0.1950
20838W        W37685   0.356   0.823   0.648  0.0459  0.0734  0.1190
20839W        W37686   4.990  10.201  12.499 -0.1104 -0.1858  0.0373
20840W        W37687  15.934  18.108   0.819  0.0779 -0.1934 -0.0875
20841W        W37688  17.396   4.166   2.258  0.0157 -0.0148 -0.3931
20842W        W37689   9.410   7.601   3.706  0.1324  0.0480 -0.2348
20843W        W37690  16.282   3.802  12.036 -0.1223 -0.1717  0.0077
20844W        W37691   1.110  18.746   5.119 -0.1374 -0.0232  0.3858
20845W        W37692  10.540  11.991   2.921  0.1056  0.0856 -0.2275
20846W        W37693   9.547   1.864  14.189 -0.0397 -0.0631  0.3632
20847W        W37694  12.881  13.531   2.195 -0.2330 -0.1180  0.0514
20848W        W37695   8.768   8.308  12.847  0.3927 -0.1384 -0.0367
20849W        W37696  13.028  18.201   0.996 -0.0050  0.0913  0.4611
20850W        W37697   6.391   2.744   1.314 -0.2747 -0.0953  0.3147
20851W        W37698   5.909   1.908  11.905 -0.1753  0.1013  0.1086
20852W        W37699   1.899  19.104   0.983 -0.3563  0.0982 -0.1018
20853W        W37700   2.797  12.123   4.391 -0.1874 -0.2173  0.2181
20854W        W37701  10.454  16.802  11.591  0.3071  0.0727 -0.3259
20855W        W37702  11.138   1.515  13.955 -0.0013 -0.0043 -0.1535
20856W        W37703   5.914   1.199   9.916  0.1762  0.1271  0.2370
20857W        W37704  13.646  11.865   1.372 -0.1622  0.2229 -0.3395
20858W        W37705  10.955   4.872  11.176 -0.1464 -0.2403  0.1960
20859W        W37706   9.524   9.226  10.561 -0.2679 -0.1271 -0.3973
20860W        W37707  16.931   0.083  13.792  0.0073  0.1774 -0.0623
20861W        W37708   8.800  11.877  14.003 -0.1436  0.1545 -0.0165
20862W        W37709   0.242  17.482  10.437  0.4045  0.1853 -0.0472
20863W        W37710   2.428   6.829  10.695 -0.1411 -0.0578  0.1786
20864W        W37711   2.047   9.874   4.378  0.1700 -0.1660 -0.1137
20865W        W37712  11.892  19.277   0.088  0.0617  0.1617 -0.1693
20866W        W37713   0.945  14.197  12.667  0.2111 -0.3775  0.0654
20867W        W37714   3.619  16.698  12.042  0.2062  0.2540  0.0443
20868W        W37715  11.431   8.264   5.011 -0.1199 -0.1851  0.4050
20869W        W37716   2.958  17.447   9.599  0.1439  0.3180  0.1347
20870W        W37717   6.728  15.942   1.360  0.3326 -0.1254 -0.0489
20871W        W37718   6.163  11.704  13.639  0.0767 -0.3732  0.0514
20872W        W37719   8.543  15.865  10.475  0.1375 -0.0964  0.3293
20873W        W37720   9.193  10.397   0.107  0.1887  0.1031  0.0547
20874W        W37721   6.777   4.532   3.864  0.3855 -0.0917  0.0797
20875W        W37722  12.937   6.639   3.445 -0.0185 -0.2217  0.1673
20876W        W37723  13.165   7.766  10.530  0.2865 -0.1491  0.2502
20877W        W37724  19.693  12.818  13.110  0.0270 -0.4186  0.0340
20878W        W37725  13.185   6.654   1.351  0.1290  0.3162  0.3308
20879W        W37726   6.590   3.156  10.155  0.0175 -0.0091  0.0596
20880W        W37727  11.073   8.880  10.648  0.3172 -0.0596 -0.0502
20881W        W37728   4.014   1.980   1.783  0.2916  0.1279  0.0377
20882W        W37729  12.635   0.495   4.599  0.2595  0.1826 -0.0486
20883W        W37730   4.988  19.505   4.135 -0.0654 -0.0744  0.2795
20884W        W37731   0.862  14.762   2.880 -0.2494  0.1904 -0.0322
20885W        W37732  14.593  11.599   3.289 -0.1386 -0.0193  0.1277
20886W        W37733  17.997   7.508   3.701 -0.2575 -0.1583 -0.0468
20887W        W37734   0.565   5.629  11.149  0.0019 -0.0440  0.1071
20888W        W37735  18.447  10.840  11.471  0.1484 -0.0108  0.0681
20889W        W37736   2.940   1.378  10.202  0.1232 -0.3102  0.2769
20890W        W37737  15.762   4.615  12.369  0.2882 -0.3600  0.1921
20891W        W37738  14.556  11.254   4.434 -0.4465 -0.3665 -0.1071
20892W        W37739   3.691   8.988   0.281  0.0118 -0.1439  0.2485
20893W        W37740  10.144   4.297   3.880  0.0843 -0.4019  0.0674
20894W        W37741  16.710  15.978  10.645  0.1778 -0.0991 -0.1945
20895W        W37742  13.431  19.153   0.810  0.1936 -0.1766 -0.3326
20896W        W37743  16.677   2.691   4.712  0.1770 -0.0248 -0.0236
20897W        W37744   0.369  12.088  11.771  0.0790  0.3877 -0.2536
20898W        W37745   2.547  10.292   1.596  0.1725  0.0525 -0.0390
20899W        W37746  18.568  14.982  11.961  0.2233  0.3920 -0.2546
20900W        W37747   1.734   2.052  12.594 -0.0796 -0.0937  0.2660
20901W        W37748   1.623  14.414   9.801  0.1308  0.1223  0.0558
20902W        W37749   5.010  10.669   1.005  0.2584 -0.0905  0.2708
20903W        W37750   6.959  12.285  10.725 -0.1067  0.0691 -0.2780
20904W        W37751  14.614   1.413  11.790  0.1956  0.0543  0.3257
20905W        W37752  18.908   5.732  10.011  0.1059  0.1779 -0.1760
20906W        W37753  12.660  16.961  12.104  0.2756 -0.0489  0.1561
20907W        W37754  18.709  15.452  14.286  0.2167 -0.1297  0.0574
20908W        W37755  17.502  13.343   3.891 -0.1284  0.4043  0.1578
20909W        W37756  16.567  16.547   0.496  0.0892  0.0068 -0.1481
20910W        W37757  13.753  15.315   0.691 -0.1538 -0.2865  0.1226
20911W        W37758  14.916   9.458   3.588  0.0833 -0.1242  0.2679
20912W        W37759   9.525  18.650  10.957  0.3961 -0.0752 -0.2219
20913W        W37760   9.686  19.458   0.393  0.1077 -0.1612  0.1049
20914W        W37761   3.534  10.931   0.466 -0.2894 -0.1603  0.2065
20915W        W37762   2.897   4.846  13.504 -0.3325 -0.3318  0.1330
20916W        W37763   6.840  11.018  12.325 -0.0182  0.3149 -0.0702
20917W        W37764  17.224   2.577  10.529 -0.1866  0.3423  0.4590
20918W        W37765  11.112  18.516   2.681  0.2494  0.1490  0.0161
20919W        W37766   9.599  13.840  10.675 -0.2959 -0.3801 -0.0373
20920W        W37767  19.780  11.169   4.958  0.0731 -0.0525 -0.2981
20921W        W37768  10.741   5.411   4.883  0.3968 -0.0911 -0.0666
20922W        W37769  12.531  16.981  10.840  0.1292 -0.0320 -0.1541
20923W        W37770  17.846  13.137   1.152  0.1440  0.0986 -0.1623
20924W        W37771  13.078   3.841  11.072  0.2269 -0.1043 -0.2310
20925W        W37772   7.747   7.478   3.733 -0.0626 -0.1435 -0.3831
20926W        W37773   7.034   4.945  11.736  0.0070 -0.1360  0.1633
20927W        W37774   3.400  10.461   0.461 -0.1116  0.4146 -0.2438
20928W        W37775  13.963  11.064   0.803 -0.0483 -0.0276 -0.2052
20929W        W37776   0.932   5.324  13.472  0.0022  0.0176  0.1546
20930W        W37777  15.385  19.473   4.171  0.0077 -0.0372 -0.4781
20931W        W37778  11.348   5.200   0.689  0.0546 -0.5067 -0.0165
20932W        W37779   7.219   5.496   1.297 -0.1404 -0.1740  0.1258
20933W        W37780   7.656  14.645  12.872  0.1763 -0.2835 -0.1471
20934W        W37781   5.477   5.339  10.705  0.2517 -0.0547  0.1651
20935W        W37782  17.185  19.000  12.204 -0.1338 -0.1247 -0.1634
20936W        W37783  16.499  18.561   2.574  0.3318  0.1509  0.2487
20937W        W37784   1.599   1.626   2.111  0.0645  0.4311  0.0816
20938W        W37785  14.822   5.675  13.690 -0.3670  0.0340  0.0354
20939W        W37786   9.487  14.514  14.241  0.0617  0.2209  0.1908
20940W        W37787   0.124  10.072   2.283 -0.0800 -0.2884  0.1053
20941W        W37788   0.192  18.605   0.986 -0.0168 -0.3238  0.1615
20942W        W37789   9.477  11.980  13.089 -0.2316 -0.1660 -0.1434
20943W        W37790  18.945   8.744   3.401  0.0882  0.5013  0.0239
20944W        W37791   8.985  11.878   2.295  0.0878 -0.0992  0.0933
20945W        W37792  13.003   4.490  12.614 -0.2077  0.0351  0.2418
20946W        W37793   2.624   0.681  10.733 -0.1298  0.0796 -0.0759
20947W        W37794   2.541  18.120   4.479 -0.2460  0.3664 -0.3061
20948W        W37795  12.926   8.056   4.231  0.1970 -0.1804  0.0766
20949W        W37796  13.940   7.163   4.134  0.3302  0.0334 -0.1788
20950W        W37797   5.685   4.019  10.096 -0.0415 -0.2575 -0.2530
20951W        W37798   6.187  10.444   0.654  0.1522 -0.1728  0.4349
20952W        W37799   0.828   0.136   1.759  0.0121 -0.2194 -0.0028
20953W        W37800   8.072   6.209   9.688 -0.2665  0.1278  0.0201
20954W        W37801   3.322   2.976  10.546 -0.1752  0.1386  0.2140
20955W        W37802  15.774   8.608   4.406 -0.0129  0.0476 -0.5119
20956W        W37803   7.344   7.625   9.827 -0.1042  0.2518  0.0312
20957W        W37804   1.295   1.996  12.863  0.0227  0.2019 -0.0251
20958W        W37805  10.254   9.617  10.359  0.2674 -0.3723 -0.1720
20959W        W37806  14.816  12.050   3.198  0.0088  0.1767  0.0712
20960W        W37807   6.203   0.573  12.840  0.0087  0.3290  0.0028
20961W        W37808  18.751  11.938   1.153  0.3475 -0.5157  0.3633
20962W        W37809   0.809   2.516  12.688  0.1036  0.1182 -0.3306
20963W        W37810   0.051  10.859  11.042 -0.2092 -0.3801  0.0962
20964W        W37811  17.024   6.487  12.456 -0.0946 -0.0021  0.2042
20965W        W37812   6.819  15.796   4.491 -0.2058  0.3124  0.1201
20966W        W37813  13.832  12.208  13.274  0.1069  0.1834 -0.0289
20967W        W37814   7.669  15.370  10.604  0.0661 -0.1477  0.0160
20968W        W37815   9.093  18.168   0.273 -0.1368  0.0951 -0.1812
20969W        W37816  12.325  16.561  12.013  0.4308  0.0453 -0.1770
20970W        W37817  18.198   6.694   1.266  0.0625  0.2710 -0.1975
20971W        W37818   5.687  12.827  12.847  0.1659  0.2416  0.0883
20972W        W37819  10.777   7.652   5.291 -0.1057  0.2302  0.2835
20973W        W37820  14.700  11.820   0.610  0.3103  0.1640 -0.0613
20974W        W37821  10.134  19.701   2.218  0.0138  0.1661 -0.2538
20975W        W37822   5.424  15.774  12.051  0.0922  0.0836  0.1469
20976W        W37823  18.615   9.093   3.047 -0.1853 -0.1218 -0.1222
20977W        W37824  11.417  19.761  10.836 -0.1289 -0.0069  0.3609
20978W        W37825  13.843  16.864  10.126  0.0086 -0.0275  0.1139
20979W        W37826  12.415   2.839   1.055 -0.0721  0.0369  0.1104
20980W        W37827  18.247  11.325  11.767  0.3167  0.0762 -0.2101
20981W        W37828  15.556  11.590   0.360 -0.1262 -0.1525  0.0097
20982W        W37829   8.952   3.466   4.057  0.0573 -0.2972  0.2521
20983W        W37830   7.899   6.710   2.709  0.3397  0.1339  0.3972
20984W        W37831   1.272  10.116  14.159 -0.1204 -0.2553  0.3905
20985W        W37832   7.213  17.822   1.186  0.2250 -0.1100  0.1299
20986W        W37833  11.061   2.886   1.516 -0.1513 -0.0067 -0.0296
20987W        W37834  19.045   8.104  13.441 -0.1180 -0.2726 -0.0947
20988W        W37835   6.792  16.126   0.051  0.2586 -0.0714 -0.1200
20989W        W37836  12.357   1.694  10.973 -0.0817 -0.1857 -0.1836
20990W        W37837   1.286   0.932  11.096 -0.1010 -0.1601  0.0054
20991W        W37838  11.947  17.301  11.509  0.0039 -0.0550 -0.1604
20992W        W37839   0.067   0.367   0.092 -0.1396 -0.4031  0.1322
20993W        W37840  16.513  13.262   2.871  0.2364 -0.0917 -0.1979
20994W        W37841  13.429   6.355   2.147  0.1196  0.5243 -0.2087
20995W        W37842   5.223   4.925  10.841 -0.1065  0.0081 -0.2359
20996W        W37843   7.711   6.279  13.987 -0.0601 -0.0137  0.0568
20997W        W37844   8.147   6.993   0.497  0.4648 -0.0384 -0.1574
20998W        W37845   9.089  14.831  11.191 -0.0548  0.0270 -0.0913
20999W        W37846   3.255   4.964   4.532 -0.4606 -0.0490 -0.2067
21000W        W37847  14.480   4.359  13.790 -0.0750 -0.1382 -0.3126
21001W        W37848   4.331  13.692   0.699 -0.0195  0.5406 -0.0875
21002W        W37849   5.139  13.564  11.373 -0.2594 -0.1423 -0.1158
21003W        W37850   5.341   7.405   4.556  0.0947 -0.3608  0.1472
21004W        W37851  18.583  19.511   3.625 -0.0161  0.3355 -0.1019
21005W        W37852   9.604  19.250   3.380  0.0373 -0.3703 -0.4855
21006W        W37853   5.395  15.347  12.279 -0.0874 -0.2394  0.2008
21007W        W37854  19.510  13.684  10.887  0.0486  0.1359  0.1632
21008W        W37855  11.040   7.070  11.114 -0.1288 -0.3410  0.1315
21009W        W37856   3.888   6.237   3.002 -0.0116 -0.0589 -0.1650
21010W        W37857   0.132   5.457  11.302  0.0643  0.3107 -0.0787
21011W        W37858  18.710  15.515  11.185  0.0488  0.0441  0.2351
21012W        W37859   0.655   0.731   9.550 -0.1297  0.1576  0.4605
21013W        W37860  15.986  14.084   0.576  0.2038  0.1006 -0.0043
21014W        W37861  19.319   6.873   4.326 -0.1444  0.4412 -0.0996
21015W        W37862  17.707   7.035  13.247  0.1260  0.0675  0.0623
21016W        W37863   5.643  18.314  14.005 -0.1173  0.0824 -0.0945
21017W        W37864   3.139   4.895   1.614 -0.0933 -0.2343 -0.0612
21018W        W37865  10.298  14.929  13.706 -0.1651  0.1430 -0.1957
21019W        W37866  15.457   9.743  14.134 -0.2451 -0.2288  0.1415
21020W        W37867  11.806  16.222  12.981 -0.2340  0.2141 -0.0718
21021W        W37868   1.692  18.594  11.745  0.2015 -0.4879  0.3827
21022W        W37869   8.754   1.240  14.231  0.0510  0.0341  0.0715
21023W        W37870  16.258   7.336   0.415 -0.0563 -0.1549  0.1639
21024W        W37871   0.679  14.634  11.041 -0.0913 -0.1459  0.0997
21025W        W37872   4.927   4.672  14.254 -0.3553 -0.0822 -0.1707
21026W        W37873   2.632  19.539   2.073 -0.1110  0.2951 -0.1938
21027W        W37874  11.901   7.777  13.545 -0.0884  0.0901 -0.2401
21028W        W37875   8.268   7.364   1.958  0.5294  0.0652 -0.2235
21029W        W37876   1.648   4.405  12.561  0.1624 -0.0330  0.1531
21030W        W37877   0.892   2.046  10.709 -0.2213 -0.0323 -0.0325
21031W        W37878  13.671   9.764  11.707 -0.0180 -0.0861 -0.2513
21032W        W37879  19.081   1.310   4.156 -0.2713  0.0740  0.0898
21033W        W37880   6.688   0.761  13.071  0.1175  0.0649 -0.0233
21034W        W37881  17.860  11.025  11.583  0.2892 -0.3852  0.2398
21035W        W37882  17.944   3.569  14.166  0.1344 -0.1906 -0.0709
21036W        W37883   3.488   3.398  10.292  0.1633  0.3739  0.0200
21037W        W37884  12.742  16.223  12.744 -0.3017  0.0154 -0.0778
21038W        W37885  15.431   7.130   5.573 -0.0333 -0.0148  0.0194
21039W        W37886   7.136   7.457   2.814  0.0013 -0.0115 -0.0174
21040W        W37887  11.344   4.457   3.903  0.1171 -0.3898  0.2678
21041W        W37888  18.055   1.719   0.994 -0.0627 -0.0698  0.0975
21042W        W37889   3.099   9.989   0.591 -0.0629 -0.1058  0.0570
21043W        W37890   0.884  16.615   1.728  0.0146 -0.2206  0.2026
21044W        W37891   9.433  11.175  11.305 -0.0393 -0.0147 -0.3367
21045W        W37892   2.404  13.758   2.142 -0.1846  0.2225 -0.0465
21046W        W37893  16.478  13.043   1.016  0.2829  0.2477  0.2151
21047W        W37894  18.500  17.062  13.188  0.2872  0.2796  0.1191
21048W        W37895   5.931   7.035  12.614 -0.0119  0.2060 -0.1110
21049W        W37896   3.062  18.686  13.170 -0.0014 -0.0005 -0.1032
21050W        W37897  19.829   0.637  14.070  0.0217 -0.1193  0.0344
21051W        W37898   8.672  17.587  13.458 -0.2211 -0.0355  0.3974
21052W        W37899   2.854  11.182   9.225  0.0076  0.0439 -0.1431
21053W        W37900  18.676   0.220   1.168 -0.0710 -0.2618  0.1475
21054W        W37901  13.273  15.237   0.618 -0.1350  0.1982 -0.0042
21055W        W37902  11.289  13.920   1.672 -0.3484  0.0749 -0.0547
21056W        W37903   7.030   0.706   0.698 -0.3853  0.3909  0.0591
21057W        W37904   4.997  19.317   2.036  0.1128 -0.3237  0.1917
21058W        W37905   0.471  12.406   3.146 -0.0973  0.1236  0.2128
21059W        W37906   3.575   1.820  13.039  0.3899 -0.0907 -0.4047
21060W        W37907  12.359   0.617   5.012  0.1260  0.1914 -0.1890
21061W        W37908   7.009   0.985  11.462  0.1274 -0.1014  0.0479
21062W        W37909  17.610  10.606  10.770 -0.1017  0.1657 -0.3810
21063W        W37910   7.637  12.197   4.740  0.2258 -0.0611 -0.0572
21064W        W37911   2.646  18.607  13.599  0.1643  0.0204  0.2365
21065W        W37912  15.815  15.099   0.307  0.1929 -0.3876  0.0773
21066W        W37913  13.337  17.185  13.414  0.0128 -0.1103 -0.0752
21067W        W37914  13.242  14.741   3.850  0.0446 -0.4439  0.2180
21068W        W37915  12.198   3.465  14.198 -0.0408 -0.0059  0.3537
21069W        W37916   8.687  18.467  13.816 -0.0630  0.0016 -0.2222
21070W        W37917  12.872  17.554   1.978 -0.1373 -0.2537 -0.2116
21071W        W37918   6.249  12.706  12.883  0.2323 -0.1045 -0.2109
21072W        W37919   1.834  18.773   0.403  0.4133  0.1948 -0.1594
21073W        W37920  12.393   0.293  10.346 -0.0277 -0.0619 -0.0194
21074W        W37921   1.049   1.536   4.206  0.0417  0.3761  0.2529
21075W        W37922   3.681   4.281   1.212  0.1650  0.1056 -0.0646
21076W        W37923  16.888  14.072  13.151  0.1814 -0.2222  0.1851
21077W        W37924   1.122  17.820   3.805 -0.2717  0.1144  0.2176
21078W        W37925   4.241  16.543  13.211  0.0372 -0.0368  0.1872
21079W        W37926  18.761  18.374   0.316  0.0867 -0.2773 -0.0275
21080W        W37927  18.803  14.569  12.873 -0.2445  0.1566 -0.0004
21081W        W37928  11.013   6.032  11.935  0.1349  0.0759 -0.0141
21082W        W37929   0.959  18.291   2.243 -0.0125 -0.1714  0.1326
21083W        W37930   7.149  13.658   1.672 -0.2026  0.3334 -0.2614
21084W        W37931  16.198  13.837   0.186 -0.1035 -0.2414  0.0521
21085W        W37932  16.332   4.551  11.786 -0.2067  0.2381  0.0991
21086W        W37933   0.451  16.294  12.843  0.0485  0.0839 -0.0261
21087W        W37934   0.905  16.158   1.852 -0.1004 -0.1141  0.1938
21088W        W37935  15.287   3.257  10.146 -0.0709 -0.1379  0.1043
21089W        W37936  18.467  17.691   1.184 -0.3442  0.0941 -0.2462
21090W        W37937   6.761   9.334   4.676  0.1199  0.4533 -0.1678
21091W        W37938  11.534   6.715  10.509 -0.1898  0.1222 -0.0725
21092W        W37939  14.455   4.480   3.417 -0.0281 -0.1035  0.0494
21093W        W37940   5.224  12.348  12.145 -0.0683  0.0744 -0.1150
21094W        W37941  16.551  17.509   2.445  0.1853  0.1068  0.0112
21095W        W37942  13.039   9.340   3.855  0.2224  0.0339 -0.0628
21096W        W37943   8.606  11.572   2.223  0.0050  0.0693  0.3290
21097W        W37944   0.193  11.900   3.155 -0.1309  0.2500  0.2934
21098W        W37945  11.108  15.446  10.545 -0.0380  0.1833 -0.2859
21099W        W37946   4.146  13.869  11.414 -0.1397 -0.3441 -0.4367
21100W        W37947   2.982   1.779  13.067  0.1601 -0.0616  0.0356
21101W        W37948  11.571   8.049   3.521 -0.1464 -0.5507  0.2452
21102W        W37949  18.895   8.082  10.199  0.0590 -0.1299 -0.0486
21103W        W37950  14.471  15.169   2.145 -0.1460 -0.0045 -0.0493
21104W        W37951   0.523  17.027  13.493 -0.0995 -0.0741 -0.1205
21105W        W37952  19.533   1.385   4.001 -0.2086 -0.2516  0.3861
21106W        W37953   3.914  11.329  11.667 -0.0956  0.1165  0.2405
21107W        W37954   8.179  12.512  14.099 -0.0976 -0.1203  0.1009
21108W        W37955   0.180  19.589  13.909 -0.2847 -0.1622 -0.1030
21109W        W37956  19.694  11.898   1.213  0.3524  0.0305 -0.2055
21110W        W37957   2.738   2.069  11.919  0.4074 -0.2659  0.2576
21111W        W37958   0.643   3.381   2.768 -0.2717  0.1938 -0.0221
21112W        W37959   0.042  18.615  10.591  0.2414  0.3504  0.0882
21113W        W37960   4.727   0.415   4.035 -0.3154  0.0242  0.0913
21114W        W37961   8.282  18.998  13.071 -0.1318 -0.3477  0.2422
21115W        W37962   1.636  10.730  11.873 -0.1220  0.0792  0.1578
21116W        W37963   0.666  12.251  12.211 -0.0669 -0.0468 -0.3286
21117W        W37964   5.818   4.513   2.998 -0.2733 -0.0662 -0.1758
21118W        W37965  19.330  15.275   2.818  0.2484 -0.1367 -0.3672
21119W        W37966   6.782  11.473  12.078 -0.2022 -0.0728 -0.2061
21120W        W37967   0.330   3.918   1.111  0.1296 -0.1786  0.0283
21121W        W37968  12.179   3.476  11.468  0.1750  0.2495  0.3463
21122W        W37969  10.077  17.310   3.671 -0.2455 -0.0134  0.0231
21123W        W37970  17.262   1.896   1.336 -0.3829 -0.0131  0.2244
21124W        W37971   0.666  13.060  10.809  0.1372 -0.1388  0.0351
21125W        W37972  13.444   5.400  14.032 -0.1579 -0.2313  0.2633
21126W        W37973  14.492  12.882   0.981 -0.4102 -0.0136  0.2551
21127W        W37974   6.499   5.446  10.353 -0.1739 -0.0939  0.1037
21128W        W37975  11.568   4.698   4.770 -0.0753  0.1857 -0.0184
21129W        W37976  11.889  17.074   3.273 -0.0252  0.2412 -0.3388
21130W        W37977   4.075  14.043  14.200 -0.0944  0.1254 -0.2575
21131W        W37978  11.064  10.941  11.308 -0.2949 -0.0081  0.0051
21132W        W37979   1.460  17.489   9.404 -0.2289 -0.1355 -0.0355
21133W        W37980  19.600   4.005   2.019 -0.1664  0.1503  0.1630
21134W        W37981   8.846   2.505  13.794  0.0554  0.4290  0.1801
21135W        W37982  14.265   1.050   3.706 -0.1361  0.1623 -0.0927
21136W        W37983  17.570   4.177  10.984 -0.0117 -0.1226 -0.1035
21137W        W37984  17.207  15.761   2.093  0.1934 -0.1278 -0.2146
21138W        W37985   8.188   5.366   1.615  0.1119 -0.1007  0.2055
21139W        W37986   5.927  13.971   3.205 -0.2800  0.1557  0.0892
21140W        W37987   4.775   4.373  12.407 -0.1683  0.1534  0.2445
21141W        W37988   3.230  10.858  12.384  0.2492  0.0048 -0.2325
21142W        W37989  12.948  10.584   3.181 -0.1010 -0.2698  0.1616
21143W        W37990   2.492   0.235   3.644  0.1372 -0.0520  0.2081
21144W        W37991   3.734   2.138   4.792  0.1648 -0.4091 -0.2022
21145W        W37992  18.714  14.341   0.350  0.2266 -0.4173 -0.5270
21146W        W37993  14.994  19.550  10.690 -0.0482 -0.2096  0.0410
21147W        W37994   3.528  19.322  13.997  0.0841 -0.0161  0.1067
21148W        W37995   0.213   8.529  11.984  0.0804  0.1413 -0.0257
21149W        W37996  14.245   4.333   0.626 -0.0354  0.0665  0.1273
21150W        W37997  15.347  15.215  14.116 -0.1574  0.2836  0.1810
21151W        W37998   1.982   3.787  11.816 -0.1045  0.0829 -0.0862
21152W        W37999  11.224  10.143   1.021  0.0685  0.4048 -0.1601
21153W        W38000  10.030   6.766   2.244 -0.0955  0.0844  0.2807
21154W        W38001   7.297   3.664  12.429 -0.1219 -0.0177  0.1757
21155W        W38002   3.887  16.576  11.146  0.0337 -0.0659  0.2097
21156W        W38003   4.336  11.342   3.086  0.1722 -0.1500  0.1095
21157W        W38004  15.066   5.978  13.003 -0.0987  0.0076  0.1363
21158W        W38005  14.914   4.767   0.836 -0.1797  0.0126  0.2439
21159W        W38006  12.123   9.805  13.759  0.1510  0.0358 -0.1373
21160W        W38007  12.840  14.962  12.732  0.0129  0.0553  0.0055
21161W        W38008   9.822  18.744   4.312  0.0495  0.0375 -0.3068
21162W        W38009  16.034   1.945   4.165 -0.1693  0.2660 -0.2677
21163W        W38010  19.853   1.961   2.434 -0.2600  0.0025 -0.0564
21164W        W38011   0.525   1.861  13.483 -0.0885 -0.0456  0.0102
21165W        W38012   4.177   0.329  11.747 -0.2243  0.1156 -0.2176
21166W        W38013   2.401   8.270  10.660 -0.0432 -0.1309 -0.4869
21167W        W38014  14.723  16.172   3.460 -0.3479  0.1466 -0.1662
21168W        W38015   9.455   2.834   3.419 -0.1502 -0.1274  0.2177
21169W        W38016   2.788  16.033  11.389  0.1529  0.1073 -0.2686
21170W        W38017  14.428  14.582   2.478  0.1399  0.0936  0.0085
21171W        W38018   1.139  12.168   0.126  0.1958  0.2664 -0.1387
21172W        W38019  18.257   4.257   1.338  0.0365 -0.1432 -0.2562
21173W        W38020   9.196  14.079  10.543  0.3222 -0.2234  0.0675
21174W        W38021  14.450  13.350  12.143 -0.0435 -0.3300  0.3875
21175W        W38022  13.040   7.563   4.060  0.0662  0.1555  0.1082
21176W        W38023   9.774  19.051  10.285 -0.1292  0.1658 -0.1122
21177W        W38024  13.167  11.089  10.182 -0.3804 -0.1141  0.0759
21178W        W38025  13.769  15.487  14.017 -0.0893 -0.1571  0.0356
21179W        W38026   7.481   8.002  10.640  0.0220  0.1866  0.3642
21180W        W38027   8.919  10.386  13.313  0.2870 -0.1249  0.1442
21181W        W38028   1.979  11.590   3.092 -0.1198 -0.0150  0.3266
21182W        W38029  10.117   2.654  13.554  0.0774  0.1560 -0.0821
21183W        W38030   1.593   0.482  10.324 -0.0431 -0.5802  0.0523
21184W        W38031  16.670  18.489   9.944  0.1217 -0.0489  0.1546
21185W        W38032  16.008   9.865   0.988 -0.2238  0.0746  0.1572
21186W        W38033   2.386   1.052   3.210  0.0607 -0.0834 -0.1929
21187W        W38034   4.466  12.043  10.761 -0.0431  0.0515 -0.2137
21188W        W38035   9.872   1.988   2.237 -0.1557 -0.0569 -0.0948
21189W        W38036  19.017  16.184   0.158 -0.2141  0.1826  0.5639
21190W        W38037   8.415   7.492   4.383  0.1565  0.3965 -0.1631
21191W        W38038  15.270  10.697   4.269 -0.1108  0.2244  0.0303
21192W        W38039   6.905  13.192   0.326  0.0629  0.2076  0.2118
21193W        W38040   5.611  19.219   2.164  0.1982 -0.2094  0.0022
21194W        W38041   2.325  12.310  10.643 -0.1834 -0.1687 -0.2102
21195W        W38042   4.670  15.747   2.921 -0.0593 -0.0268  0.0554
21196W        W38043  13.813   3.216   1.520  0.0918 -0.0873  0.0398
21197W        W38044   5.970   0.224   9.796 -0.0959 -0.1983 -0.2522
21198W        W38045   0.979   3.994   1.399  0.0068 -0.1267 -0.1669
21199W        W38046   0.588  16.259  14.125 -0.2472  0.2415  0.2641
21200W        W38047  11.989   5.775   2.223  0.2764 -0.0871  0.0270
21201W        W38048  17.114  16.947   1.990  0.2933 -0.3526  0.2962
21202W        W38049  13.430   5.037  12.986 -0.0571  0.3914 -0.2121
21203W        W38050   9.404  19.036   0.042  0.0717 -0.2592  0.2471
21204W        W38051  15.405  16.764   3.019  0.4818  0.0644  0.0112
21205W        W38052   4.919   4.210  11.660  0.0847  0.1252 -0.3012
21206W        W38053  10.530  13.445  10.808 -0.0129 -0.0798  0.0855
21207W        W38054   4.662  10.723   9.951  0.0961 -0.1897 -0.2551
21208W        W38055   5.952   2.077  11.405  0.0763  0.1715  0.1997
21209W        W38056   3.646   6.950   1.656 -0.2497 -0.1660 -0.0253
21210W        W38057  11.833  11.163  10.139 -0.0660  0.1767 -0.0394
21211W        W38058   8.607   5.965   3.601  0.0421  0.1573 -0.2526
21212W        W38059   7.340  17.023  11.221  0.3148  0.0426  0.1304
21213W        W38060   3.843  10.396  11.341  0.2204 -0.0976 -0.1727
21214W        W38061  14.609  19.899   0.951 -0.3250 -0.1194  0.1532
21215W        W38062  16.656  18.298  13.420 -0.1404 -0.0944  0.4289
21216W        W38063   4.588   8.637   3.197  0.4734 -0.0540 -0.1252
21217W        W38064   3.818  15.144  11.115  0.0062  0.1353  0.0357
21218W        W38065   2.025  14.731   2.065 -0.2645  0.1650  0.3605
21219W        W38066  10.207  13.762  12.410 -0.1589 -0.0947  0.1515
21220W        W38067  11.531   0.624   0.249 -0.0926  0.0067  0.1817
21221W        W38068  19.272  12.442  11.191 -0.1934 -0.0040  0.0573
21222W        W38069   1.463   7.305   8.888 -0.0579  0.0007  0.3618
21223W        W38070   8.136   0.235   9.833 -0.0111 -0.2911 -0.0645
21224W        W38071  15.287  13.084   4.921  0.0502 -0.2557 -0.1615
21225W        W38072   0.321  13.435  11.592 -0.3956 -0.2018  0.0428
21226W        W38073   5.273   7.380   3.684  0.0932  0.2505  0.1196
21227W        W38074  13.944   1.605   4.290 -0.1964  0.0146  0.2630
21228W        W38075   4.702   6.487   2.325 -0.1816  0.0268  0.1181
21229W        W38076   3.382  14.396  11.135 -0.1530 -0.1084  0.1281
21230W        W38077  16.709   8.027   3.589  0.5088 -0.0129  0.0946
21231W        W38078   2.814   7.614  12.656  0.0319 -0.0949  0.3714
21232W        W38079   2.385   4.267   1.841  0.2054 -0.5135  0.4179
21233W        W38080   0.381  19.286  11.769  0.1656  0.0865 -0.1186
21234W        W38081   2.142   6.479  11.786  0.1346  0.3099 -0.1133
21235W        W38082   7.604  19.158   2.419 -0.3052 -0.1316  0.0183
21236W        W38083   4.500   9.062   3.501  0.3476  0.0115 -0.1096
21237W        W38084  15.845  12.730  11.885 -0.1293 -0.2871  0.0012
21238W        W38085  12.988   7.481  11.167 -0.1030  0.0579  0.1800
21239W        W38086  11.695  17.911  10.794 -0.1192  0.2701  0.0993
21240W        W38087   2.821   2.309   5.143 -0.4465  0.1132 -0.0517
21241W        W38088   7.063   7.081  11.338 -0.2718  0.2503 -0.1734
21242W        W38089  16.739   0.558   0.937  0.0351  0.1547  0.1139
21243W        W38090   5.446  18.222   3.158 -0.4620  0.3143  0.1136
21244W        W38091   8.736   2.860   0.116  0.0683  0.1225  0.2318
21245W        W38092  10.662   9.126   3.325 -0.0088 -0.2272 -0.1066
21246W        W38093   4.355  18.792  13.847  0.0843 -0.0352 -0.3026
21247W        W38094   2.896   8.478  13.712  0.0292 -0.0160 -0.1534
21248W        W38095  10.857   8.124   3.589 -0.1110  0.1673 -0.0001
21249W        W38096  19.610   6.304  12.486 -0.1989 -0.5279 -0.0690
21250W        W38097  11.347   6.815  12.291  0.4641 -0.3528 -0.2684
21251W        W38098  15.745   4.816  13.419  0.0361  0.3619  0.0836
21252W        W38099  17.613   0.542   1.329 -0.1333 -0.0854  0.2382
21253W        W38100   2.360  12.340  10.060  0.1271 -0.3250  0.0411
21254W        W38101   0.194   3.843  11.465  0.2649  0.0401 -0.0416
21255W        W38102  14.935  14.693   4.447 -0.1423 -0.1043  0.2595
21256W        W38103   9.819   2.187   3.867 -0.0522  0.0525 -0.1062
21257W        W38104   4.105   4.502   1.554 -0.0187 -0.1717 -0.2096
21258W        W38105  19.067  13.523  11.598  0.0890  0.0617 -0.3828
21259W        W38106   4.138  16.982   0.606 -0.3324  0.0793  0.0611
21260W        W38107   4.941   3.217   4.976 -0.1384  0.0183 -0.0179
21261W        W38108  12.715   1.101  10.477  0.1858 -0.0257  0.2893
21262W        W38109  12.775   9.348  12.981 -0.1348  0.0348  0.1760
21263W        W38110  19.057   7.650   0.041 -0.0586  0.3361  0.1749
21264W        W38111  18.492  14.084  13.640  0.0912 -0.1176 -0.1989
21265W        W38112   1.997  11.949  13.708  0.1961 -0.1549  0.1006
21266W        W38113  17.780  16.637   2.156  0.0071  0.1145 -0.0429
21267W        W38114   5.939  16.855   2.330 -0.1720  0.3278 -0.1227
21268W        W38115  19.762   1.071  11.609  0.0241 -0.0902  0.3252
21269W        W38116  14.980  10.816   4.658 -0.1143 -0.0321  0.2737
21270W        W38117   9.079  16.804  13.372  0.4109 -0.0428  0.0749
21271W        W38118   9.510  13.029  13.129  0.0983 -0.0805  0.0271
21272W        W38119   6.841   0.304  13.149 -0.1197 -0.3850 -0.0847
21273W        W38120  14.190   8.400   3.372 -0.1562 -0.0487 -0.1573
21274W        W38121  17.086   5.884   1.560 -0.0839  0.0005  0.0862
21275W        W38122   8.935  19.488   2.884  0.1394  0.3464  0.3413
21276W        W38123   1.173  12.453   2.449  0.0457 -0.1000 -0.2026
21277W        W38124  13.880  19.299  11.433  0.1266 -0.1270 -0.0508
21278W        W38125   1.418  15.586  12.650 -0.0660 -0.0497  0.4261
21279W        W38126   1.371   9.501   9.888 -0.0417  0.1204 -0.1128
21280W        W38127  19.263  12.076  13.277  0.1087 -0.0678 -0.3282
21281W        W38128  17.523   7.868   3.109 -0.1507  0.2324  0.1685
21282W        W38129   5.893   0.474  10.260 -0.0044  0.2369 -0.1443
21283W        W38130   8.136   8.234   1.064 -0.0027  0.1435  0.1074
21284W        W38131  14.648   1.908  11.096 -0.1472 -0.1122  0.1650
21285W        W38132   3.858   0.031  12.345 -0.1931 -0.2060 -0.0501
21286W        W38133  18.169   3.789  13.080 -0.1962 -0.3370 -0.4176
21287W        W38134   0.628  10.485  10.040 -0.0064  0.1305  0.0343
21288W        W38135   5.104   5.025  12.767  0.0780 -0.1412  0.1268
21289W        W38136  19.098  18.293   1.322 -0.0911 -0.0842 -0.0762
21290W        W38137   8.062  13.571  13.126 -0.2571 -0.1422  0.2582
21291W        W38138   0.434   7.234   0.996  0.0462 -0.3402  0.0164
21292W        W38139   8.344   4.740  10.576 -0.0780  0.1789 -0.0717
21293W        W38140  16.688   4.921   4.119 -0.0470 -0.1688 -0.0359
21294W        W38141   3.483   4.782  12.122 -0.0731  0.1004 -0.0123
21295W        W38142   3.276   7.882   1.297 -0.0840  0.5405  0.0272
21296W        W38143   4.997   3.958  13.663 -0.1555  0.1837 -0.4316
21297W        W38144  17.021  12.654   0.130  0.0781 -0.2550  0.0399
21298W        W38145  18.114  12.143  12.700 -0.0306  0.1590 -0.0526
21299W        W38146   6.611   8.480   3.586  0.1248  0.4017  0.3205
21300W        W38147  16.376   8.688  10.494  0.1574  0.0709  0.0769
21301W        W38148  13.685  15.092   3.157  0.1726 -0.0158 -0.2133
21302W        W38149  13.286   1.844  14.018  0.2288  0.2728 -0.2107
21303W        W38150  14.697   1.691   3.514  0.2904  0.3702  0.2242
21304W        W38151   0.462   8.586   2.053 -0.1093 -0.5994  0.2116
21305W        W38152  19.312   3.457   3.839 -0.1055  0.0924 -0.1126
21306W        W38153  17.751  13.523   3.472 -0.0627 -0.0933  0.2702
21307W        W38154   5.565   4.307   0.742 -0.0899  0.1611  0.2598
21308W        W38155   6.203  18.077   1.234 -0.2321  0.2799 -0.1506
21309W        W38156   0.069   5.489  12.884  0.1162 -0.1544  0.0878
21310W        W38157  11.686   0.681   1.404  0.3222  0.1322 -0.3268
21311W        W38158   5.825   8.650  11.564 -0.0310  0.1238  0.3938
21312W        W38159  11.958  15.746  14.150 -0.3136 -0.1719 -0.2586
21313W        W38160  13.266   9.140   1.554 -0.0171  0.3884 -0.0390
21314W        W38161   0.889   6.920   9.912  0.2095 -0.0884 -0.1952
21315W        W38162   7.909   8.853  10.319 -0.1382  0.0875  0.2438
21316W        W38163  12.342  16.440   4.685 -0.1297 -0.1488  0.0820
21317W        W38164  16.475  19.492   2.041 -0.5349  0.1798  0.1643
21318W        W38165   0.938   4.240   0.880  0.0215  0.0584  0.0852
21319W        W38166   4.555   9.267  12.463 -0.1483  0.2315  0.2745
21320W        W38167  10.248  19.681  12.795 -0.0112  0.3173  0.1322
21321W        W38168   3.701  18.816   0.779  0.2340  0.1634 -0.0392
21322W        W38169  13.751   9.233   2.210  0.2807 -0.1789  0.0143
21323W        W38170  16.833  14.491   0.057 -0.0383  0.2173 -0.2443
21324W        W38171   0.761  19.333  10.825 -0.2299 -0.2903 -0.0395
21325W        W38172  16.174  19.317  10.062  0.0649  0.2203  0.1637
21326W        W38173   0.769  18.820   2.333  0.2751 -0.0955  0.0374
21327W        W38174  11.170   0.448  14.247 -0.1648 -0.2423  0.1583
21328W        W38175   7.200  13.581  13.642 -0.0044 -0.1728  0.2454
21329W        W38176  13.192   4.504   9.460  0.2081 -0.2617  0.1821
21330W        W38177  10.486   6.771  11.775 -0.0365  0.2343 -0.0257
21331W        W38178   1.576  19.066   4.449 -0.0237  0.0707  0.0912
21332W        W38179  11.584   2.319   2.006 -0.3099  0.2366  0.2898
21333W        W38180  14.067   6.865  13.297  0.1633 -0.1735  0.1511
21334W        W38181   9.842   2.562  11.455  0.3867  0.1374 -0.0187
21335W        W38182  15.619  11.757   1.785 -0.0186  0.0315  0.1173
21336W        W38183   4.002   0.964   3.138 -0.2114 -0.1775  0.1303
21337W        W38184  12.535  15.921   2.513  0.2188  0.1178 -0.1045
21338W        W38185   7.725  12.777  11.354 -0.2106 -0.3423  0.2208
21339W        W38186  12.661  11.451   3.359 -0.1799 -0.2254  0.3886
21340W        W38187  13.879  18.872   2.785  0.0894 -0.1316 -0.0848
21341W        W38188   9.858  12.750   3.932  0.2851 -0.1170 -0.0700
21342W        W38189   0.144  12.262  10.040 -0.3021 -0.4588 -0.0636
21343W        W38190  12.966  12.414  13.187  0.0629  0.0818  0.1635
21344W        W38191  15.769  17.478   2.958  0.0138  0.2846  0.0531
21345W        W38192  18.645  16.045   4.539 -0.0067  0.1189  0.4338
21346W        W38193  11.993   6.418  13.425 -0.3736 -0.0592  0.0772
21347W        W38194   9.164  15.158  10.280 -0.1151 -0.3073 -0.0122
21348W        W38195  10.814   2.264   1.153  0.1617 -0.0501 -0.4673
21349W        W38196   4.511   0.074  12.833  0.0392  0.0688 -0.4750
21350W        W38197   6.363   5.611  11.565  0.1036 -0.1051  0.1969
21351W        W38198   6.466  10.374  12.263 -0.1949 -0.0276  0.2513
21352W        W38199   9.218   5.938  13.403 -0.1831 -0.1689  0.3521
21353W        W38200   4.920   7.932   2.026  0.0013 -0.0010 -0.1562
21354W        W38201   4.465  14.813  13.714 -0.0461  0.0785  0.1228
21355W        W38202   0.065   8.561   3.737  0.0241  0.2836  0.1801
21356W        W38203   8.347   2.010  12.951 -0.1389 -0.0395  0.1058
21357W        W38204   5.911  15.875   1.877 -0.0392  0.2193  0.2237
21358W        W38205   4.093   6.674  10.209 -0.0351  0.1064  0.0956
21359W        W38206   5.251  11.101   2.782  0.1000 -0.0675  0.1160
21360W        W38207  14.328   4.016   4.623  0.2479 -0.0693 -0.1340
21361W        W38208   0.263   2.587  12.722 -0.1453  0.0101  0.0484
21362W        W38209  12.335   0.845  10.361  0.1121 -0.0106 -0.0169
21363W        W38210  16.798   9.418  11.011  0.0978  0.3108 -0.1060
21364W        W38211   5.895  10.911   3.472  0.0365 -0.0213 -0.0348
21365W        W38212   8.372   7.606   2.798  0.1180  0.1166 -0.1976
21366W        W38213  12.159  17.122  12.264  0.0593 -0.1531  0.0729
21367W        W38214   1.073  14.390   2.630 -0.2903  0.2273  0.0137
21368W        W38215   7.312  19.834   2.657  0.0693 -0.0323 -0.1354
21369W        W38216  17.517  15.392  11.342 -0.2078 -0.1932 -0.0614
21370W        W38217  12.382   4.555  10.215 -0.2246 -0.2716  0.1834
21371W        W38218  13.375  15.137  13.880  0.2539  0.4172  0.0093
21372W        W38219   3.444   6.956  12.327  0.1613 -0.0955 -0.0714
21373W        W38220  10.940  19.672   4.421 -0.0884 -0.3357  0.0364
21374W        W38221   7.908   7.170  13.438  0.2335  0.0408  0.2181
21375W        W38222  18.869   8.242  13.889  0.1860 -0.0831 -0.2070
21376W        W38223   3.260   6.206   5.279 -0.0144 -0.0207  0.0487
21377W        W38224  11.006   0.968   3.956 -0.1793 -0.3015  0.0734
21378W        W38225   6.125  14.219  10.393 -0.0177 -0.1203 -0.0922
21379W        W38226  17.505  12.794   4.089 -0.1532 -0.3337  0.2260
21380W        W38227  17.917  16.689   1.472  0.3649  0.0499 -0.0387
21381W        W38228  18.169   0.441   9.676  0.1084 -0.0895  0.1716
21382W        W38229  13.358  13.577  12.916 -0.0765  0.2397 -0.1285
21383W        W38230   0.837  14.749   3.872  0.3682 -0.0093  0.0104
21384W        W38231   1.388  16.385  11.458  0.0380  0.1627 -0.2346
21385W        W38232   1.026  17.786   1.334  0.2762  0.0444 -0.1005
21386W        W38233   3.354  12.663  11.000 -0.2506 -0.4266  0.1269
21387W        W38234  12.004   1.235   1.117  0.0282  0.2544 -0.0645
21388W        W38235  10.507  12.325  13.238  0.0417 -0.2309 -0.1304
21389W        W38236   6.169   3.562   0.702 -0.1277 -0.1678  0.0756
21390W        W38237  19.340   9.754   1.769  0.2185 -0.0472  0.1332
21391W        W38238   0.867  17.449  10.022 -0.2997  0.0627  0.2452
21392W        W38239   2.722   2.822   3.223  0.3135 -0.0777 -0.0473
21393W        W38240  12.905  13.934  14.303  0.2606  0.1641  0.0127
21394W        W38241   0.985   5.153   1.323  0.3446 -0.1900  0.0814
21395W        W38242   9.286   4.209  10.643  0.1848 -0.1729 -0.1570
21396W        W38243  17.080   0.540  14.185  0.1279  0.0758 -0.0939
21397W        W38244   4.922   0.874  11.636  0.2689  0.0912 -0.1925
21398W        W38245  12.258   8.144   9.435 -0.1391  0.1829 -0.0403
21399W        W38246   1.207   0.193   2.181 -0.0534  0.0793 -0.2897
21400W        W38247  11.214   9.750  12.180  0.0666 -0.0636  0.3755
21401W        W38248   0.104   1.008  11.152  0.0096 -0.1366  0.0500
21402W        W38249   2.606   5.753  11.644 -0.2256 -0.2510 -0.1927
21403W        W38250   6.906  11.338  14.132 -0.3401 -0.1084  0.2814
21404W        W38251  11.837   8.266   2.351  0.4098 -0.3021  0.0956
21405W        W38252  11.181  10.763  12.219  0.1278 -0.1211  0.0783
21406W        W38253   1.837  12.732  12.656  0.2079  0.0485 -0.0080
21407W        W38254   1.841   4.405   1.386 -0.2291 -0.1179 -0.2642
21408W        W38255  12.809  16.748   4.382  0.0334 -0.0092 -0.0295
21409W        W38256  17.352   1.671  10.005 -0.1816  0.1530 -0.0910
21410W        W38257   7.628  11.525  11.904  0.0858  0.2055 -0.0433
21411W        W38258   6.185   9.305   3.829 -0.0663 -0.0496  0.2588
21412W        W38259   5.413   7.588  12.826 -0.0125 -0.0610 -0.4351
21413W        W38260   2.347  10.511  11.112  0.1880  0.1153 -0.4470
21414W        W38261  11.464   5.944  11.735  0.2930  0.2843  0.1754
21415W        W38262   2.464  10.554   9.899  0.1251  0.0275  0.2129
21416W        W38263   7.557   7.821   4.638 -0.3177 -0.1778 -0.1174
21417W        W38264   2.524   6.516  11.201 -0.1817 -0.3029  0.1980
21418W        W38265   1.278  17.855  11.182  0.3135  0.4529 -0.3458
21419W        W38266  14.849  16.471   1.700 -0.0206  0.0592 -0.0733
21420W        W38267   0.846  16.033  10.458  0.0743  0.1176  0.1247
21421W        W38268   6.521   3.187   1.529  0.2155 -0.0787  0.0075
21422W        W38269   3.957   3.608   1.609 -0.0360  0.2585  0.0393
21423W        W38270   0.887  18.673  11.699  0.1532 -0.0056  0.0090
21424W        W38271   8.766   7.909   2.508 -0.1922  0.5439  0.0321
21425W        W38272   4.465  14.002   0.409  0.1745 -0.1017  0.3025
21426W        W38273  10.449   3.204  10.548 -0.0947  0.1371  0.0106
21427W        W38274   5.082   1.384  11.679 -0.0379 -0.1015  0.0882
21428W        W38275   6.537  10.212   4.528  0.2503 -0.1218 -0.1872
21429W        W38276  12.489  15.001  10.304 -0.0409 -0.1080  0.1787
21430W        W38277  15.419   8.821  13.871  0.1546  0.0802 -0.3461
21431W        W38278  10.721   2.270   4.039 -0.1544 -0.3010  0.1008
21432W        W38279   7.504   5.361   4.445 -0.1150 -0.2790  0.3559
21433W        W38280   8.746  16.091  11.785  0.0403  0.1124  0.1523
21434W        W38281   0.067   3.271  10.970 -0.0442  0.1441  0.1912
21435W        W38282   7.403   5.834  13.849  0.2864  0.2180  0.1459
21436W        W38283  18.419  17.373  10.866  0.1247 -0.0996 -0.0523
21437W        W38284   3.644   4.306  14.196 -0.0780  0.0564 -0.0769
21438W        W38285  13.148  17.445   0.641  0.1947  0.0945  0.1005
21439W        W38286   9.194  11.608   4.019 -0.0425 -0.3277  0.1031
21440W        W38287  10.226  13.628   0.956 -0.1316 -0.1408 -0.0827
21441W        W38288  12.316   5.594  11.646 -0.3607  0.1354 -0.2312
21442W        W38289  10.271  15.528  13.745 -0.2684 -0.1075  0.1594
21443W        W38290  12.645   9.295   1.150  0.0699 -0.2469  0.2587
21444W        W38291   5.819  19.618   1.904  0.0353 -0.2054 -0.1807
21445W        W38292  13.605  19.262   4.188  0.0204  0.0359 -0.2057
21446W        W38293   3.318   3.864   0.227 -0.1026  0.1259 -0.0206
21447W        W38294  10.184  13.931   1.757  0.0047 -0.0342  0.3352
21448W        W38295   7.931   8.019   4.274 -0.3629  0.1495  0.2316
21449W        W38296  13.637   7.076   3.679 -0.0505  0.3663 -0.0507
21450W        W38297   7.992  10.281   2.281 -0.0945  0.0997  0.0296
21451W        W38298  19.063   1.861  12.689 -0.1523  0.0260 -0.0604
21452W        W38299  10.670   6.521   3.083 -0.2502  0.2004 -0.4684
21453W        W38300  10.559  10.572  10.278 -0.1526  0.0301  0.1268
21454W        W38301  15.276  13.681   3.161  0.0035  0.0816  0.0737
21455W        W38302  15.121  19.054   2.109 -0.1003  0.0439 -0.1148
21456W        W38303  11.159  18.658   1.128  0.0371  0.1211 -0.1423
21457W        W38304   7.212  12.604   1.906 -0.0128 -0.1795 -0.3952
21458W        W38305   2.330   9.882   1.782 -0.0206 -0.2074 -0.0776
21459W        W38306   8.872   0.964   2.627 -0.2381  0.1199 -0.3136
21460W        W38307   0.676   3.006   1.913 -0.1007 -0.2340 -0.2641
21461W        W38308  16.111  15.072   1.976  0.0652 -0.1018 -0.0982
21462W        W38309  17.682  11.190   4.472 -0.2766  0.1652  0.0987
21463W        W38310  17.606  19.903   0.468  0.0984  0.1274 -0.3140
21464W        W38311   7.009   1.671   1.537 -0.1201 -0.1409 -0.2083
21465W        W38312  12.548  13.790   3.050 -0.2109  0.2535 -0.1802
21466W        W38313  10.024   5.079  11.973 -0.1363  0.1040  0.1601
21467W        W38314   8.583  19.389  10.403  0.0283 -0.2401 -0.2978
21468W        W38315  19.850  17.462  12.463 -0.2384 -0.0488 -0.3872
21469W        W38316  14.232   5.414   1.352  0.3088  0.2087  0.1627
21470W        W38317   8.529  13.049   3.334  0.1408 -0.0201  0.0598
21471W        W38318  14.993   2.002   1.414  0.0089 -0.0215 -0.0230
21472W        W38319   2.143  15.250   0.380 -0.0328  0.3599  0.1843
21473W        W38320  18.634   3.523  13.163 -0.1785  0.1171 -0.0010
21474W        W38321   4.262   3.191   0.516 -0.0355  0.0654  0.2297
21475W        W38322   2.235   6.429   9.912  0.3513  0.0098  0.1059
21476W        W38323  17.891  17.056  13.969 -0.3327 -0.1172  0.2496
21477W        W38324   7.679  10.926   5.087  0.1774 -0.2195 -0.2462
21478W        W38325  15.262  12.230  10.505 -0.0474 -0.2248 -0.0295
21479W        W38326   6.848  17.890   3.077  0.0820  0.0162  0.0066
21480W        W38327   8.067   7.988  13.168 -0.1047  0.2324  0.0212
21481W        W38328   3.354  12.035  11.325 -0.1295  0.2530  0.0537
21482W        W38329   7.291   1.176   1.415  0.1514  0.0057 -0.4068
21483W        W38330  12.390  11.767  10.764  0.0017 -0.0389 -0.3545
21484W        W38331  10.642  18.590  14.110  0.0526  0.3771  0.0988
21485W        W38332  17.306   6.514   2.340 -0.0007 -0.1965  0.1314
21486W        W38333   5.614   0.805  11.189 -0.3860 -0.1064  0.2502
21487W        W38334  17.964  16.276  12.581  0.1157  0.1903 -0.3123
21488W        W38335   5.139  19.851   1.506  0.3913 -0.5132 -0.2212
21489W        W38336   2.558   0.269  14.162 -0.0656 -0.1216 -0.4279
21490W        W38337   0.771   0.014  10.128  0.0176  0.1541  0.1666
21491W        W38338  10.348  11.302   0.082 -0.1299 -0.1172 -0.1370
21492W        W38339  13.041   6.271   4.512  0.2448  0.0652 -0.0748
21493W        W38340  16.485   0.588   4.408  0.0444  0.2034  0.1935
21494W        W38341  18.948   2.963  11.464  0.1315  0.2906  0.0926
21495W        W38342  17.557  17.079  12.591  0.0683  0.1623  0.4117
21496W        W38343  16.586   9.167  10.672  0.3716 -0.2884 -0.4280
21497W        W38344  11.516   7.623   3.342 -0.1734 -0.2138 -0.3252
21498W        W38345  18.720  10.265  10.759  0.1426  0.1471 -0.1663
21499W        W38346   8.449  14.501  11.879 -0.0074 -0.0983  0.0494
21500W        W38347  15.799  14.024   4.739 -0.1660 -0.3026  0.0286
21501W        W38348  17.545  10.117  13.930  0.0652 -0.3830 -0.1513
21502W        W38349   8.012   6.420  11.204 -0.0510 -0.1272  0.2259
21503W        W38350  15.579   7.700   1.682  0.0519  0.1025 -0.0037
21504W        W38351  12.948   6.291  10.675 -0.0024  0.3588 -0.2871
21505W        W38352   4.842   2.898  13.901 -0.3290  0.0162  0.1745
21506W        W38353   2.305   3.423   9.245  0.0687 -0.0158  0.0469
21507W        W38354   1.411   7.524  11.685  0.1188  0.0179 -0.4870
21508W        W38355  14.134   5.742  13.698 -0.0608  0.0788 -0.1994
21509W        W38356  12.887   8.900  11.060  0.1990 -0.0496  0.0574
21510W        W38357   9.925   1.528   2.970  0.2106  0.0404 -0.4680
21511W        W38358  13.307   6.323   4.088  0.3434  0.0580  0.4342
21512W        W38359  17.546  15.963  10.650 -0.0053  0.4409 -0.0316
21513W        W38360   0.582  14.806  13.604 -0.0579  0.0234  0.2874
21514W        W38361   6.319  16.980  11.576  0.1874  0.0952  0.1022
21515W        W38362   4.008  10.149  12.682 -0.0982  0.2515 -0.1914
21516W        W38363   1.589   4.247   2.376 -0.1745  0.1358 -0.1948
21517W        W38364  10.208  17.060  10.322 -0.1596  0.0021  0.0719
21518W        W38365   2.261  19.434  13.757  0.1386  0.1806  0.0241
21519W        W38366  17.409  17.391   5.200 -0.0052 -0.0091  0.0924
21520W        W38367   7.047  17.978   0.361 -0.1081  0.0451 -0.1542
21521W        W38368  13.064   2.531  13.613 -0.0225 -0.0443 -0.2323
21522W        W38369   2.335   9.179   0.812 -0.2036  0.0989  0.0099
21523W        W38370   5.027   9.451  12.749 -0.0330  0.0655  0.1602
21524W        W38371  12.895  13.135  10.562 -0.2445 -0.1326  0.3096
21525W        W38372   2.821  11.840   0.521  0.1598  0.4151 -0.0049
21526W        W38373   6.514  15.754   2.685  0.3376 -0.4272 -0.1220
21527W        W38374  10.070  16.193   4.531  0.0640  0.1799 -0.0742
21528W        W38375  19.689  17.961   9.674  0.0056 -0.2694 -0.0343
21529W        W38376   4.292   5.595   1.959 -0.1759  0.2982  0.0244
21530W        W38377  18.562  16.837  10.771 -0.2202  0.2277 -0.1811
21531W        W38378  15.681   2.347  11.774 -0.1961  0.2805 -0.0895
21532W        W38379   3.605  17.004   0.796  0.2372 -0.3579  0.2015
21533W        W38380   5.176  15.924  10.072  0.2068 -0.1405 -0.0426
21534W        W38381   0.425  11.543  11.630  0.1540  0.0027  0.3896
21535W        W38382   3.500   2.663   3.877  0.0132  0.1840 -0.3735
21536W        W38383  11.061  12.307  12.696  0.0330  0.0046 -0.4254
21537W        W38384   3.973  10.402   4.193 -0.0759 -0.2431  0.0837
21538W        W38385   9.735  16.673   9.573 -0.0586 -0.0439  0.3054
21539W        W38386   3.959   6.321   9.911 -0.0679  0.2473  0.0842
21540W        W38387  17.189  11.666  12.976  0.3150  0.2333  0.0822
21541W        W38388   0.015  11.389  13.165 -0.2622  0.1620  0.1530
21542W        W38389  13.710   9.380   0.446 -0.0816  0.0813  0.1575
21543W        W38390  15.931   4.704   4.888 -0.0057  0.1350 -0.0702
21544W        W38391   9.934   5.203   3.397  0.0394 -0.1645  0.0403
21545W        W38392   6.161  13.928   0.735  0.1024  0.0948  0.1708
21546W        W38393  12.970  13.810  13.849  0.1412 -0.2269 -0.1092
21547W        W38394   0.927   1.864  14.061  0.0792  0.0263  0.0340
21548W        W38395   7.194   3.774   4.001 -0.1571  0.0740  0.0615
21549W        W38396   8.284   9.415   2.958  0.0721 -0.3285  0.0034
21550W        W38397   9.250   7.724  11.390  0.2156 -0.0156 -0.0039
21551W        W38398   3.846  19.238  10.735  0.1040  0.0915 -0.1818
21552W        W38399   4.063  17.902   3.372 -0.0967  0.0427  0.2484
21553W        W38400   4.719  13.925   3.630  0.0241  0.3371 -0.0075
21554W        W38401  18.031  12.820  12.914 -0.1531  0.1342  0.1637
21555W        W38402  10.006   9.911   9.989  0.6284  0.1913 -0.0643
21556W        W38403   7.995   5.948   1.461 -0.1085  0.1972 -0.0331
21557W        W38404  16.311   4.294   3.308 -0.0434 -0.1099  0.3848
21558W        W38405   4.021  17.324  10.265 -0.2821  0.0379 -0.0292
21559W        W38406   8.003  19.803   1.310 -0.0390 -0.0008 -0.3502
21560W        W38407   6.429   8.723  10.524  0.1056  0.0922  0.1294
21561W        W38408   6.596  18.783   0.138 -0.2359  0.0415  0.1022
21562W        W38409   9.894  11.573   0.321  0.1617  0.0733  0.2623
21563W        W38410  16.895  18.791   9.090  0.1634 -0.2300 -0.5619
21564W        W38411   1.873   4.993  13.353 -0.0934 -0.2246  0.3025
21565W        W38412   5.769   2.548   3.456 -0.4484  0.3038 -0.2375
21566W        W38413  10.789   0.502   1.080 -0.1448  0.3993  0.1381
21567W        W38414  17.037  17.262   2.383  0.1310  0.1408 -0.3067
21568W        W38415  12.720   0.572   1.769 -0.2847 -0.2532  0.1050
21569W        W38416   9.487  18.488   1.990 -0.1509 -0.0536 -0.1688
21570W        W38417  17.570   0.782   4.844 -0.1433  0.2130  0.0455
21571W        W38418   0.261  17.925  12.432 -0.0139 -0.1099 -0.1810
21572W        W38419  18.275  19.109  12.445  0.2887  0.0333  0.3808
21573W        W38420  17.566   7.690  12.118  0.3979 -0.0337 -0.1562
21574W        W38421   5.754  18.973   2.622  0.0070  0.3838  0.0387
21575W        W38422   1.190   7.487   2.252  0.1248 -0.1506  0.0054
21576W        W38423  14.960   5.123   1.331 -0.0510  0.1702 -0.0315
21577W        W38424   4.828   4.955   9.190  0.0761 -0.1286  0.1057
21578W        W38425   8.406  11.060  12.821  0.1355 -0.0678  0.0647
21579W        W38426   0.062   3.801  10.425  0.2603  0.0077 -0.0792
21580W        W38427  17.871   7.259  11.374 -0.0732 -0.2239 -0.1502
21581W        W38428  16.740  10.634  10.177  0.3638 -0.2139  0.2088
21582W        W38429  10.159   2.527   3.691 -0.0369  0.0197  0.1543
21583W        W38430  11.999   1.627  13.615 -0.2357 -0.2393 -0.0501
21584W        W38431   9.026   1.672   3.495  0.2238  0.2038 -0.0565
21585W        W38432   5.873   2.971  12.127  0.1070  0.0410 -0.0003
21586W        W38433  19.201   6.592   0.655  0.0201  0.0412 -0.0053
21587W        W38434   4.840   9.928   2.302 -0.2024 -0.1179  0.0018
21588W        W38435  12.576  15.977   9.867  0.1329 -0.2785  0.2164
21589W        W38436   6.329   9.089  10.847 -0.2342 -0.0069  0.0242
21590W        W38437   2.441   6.894  11.665  0.0638 -0.0328  0.2052
21591W        W38438   6.975  15.185   4.431  0.2031 -0.0522 -0.1113
21592W        W38439  12.935  13.923  10.709  0.2678  0.1488 -0.2928
21593W        W38440  19.541  17.644   4.447  0.0571  0.1410  0.3656
21594W        W38441  19.194  14.823   1.871  0.1274 -0.1294  0.2118
21595W        W38442   8.562   9.360  11.210  0.1075 -0.0991 -0.0937
21596W        W38443  19.229   6.547   1.355  0.0968  0.3598  0.1732
21597W        W38444  13.125   0.503  13.269 -0.2903  0.2039 -0.1955
21598W        W38445   9.971   2.084  10.765 -0.0715  0.4529  0.1063
21599W        W38446   3.166  16.408  10.509  0.0535 -0.1403 -0.0661
21600W        W38447   8.059  16.148   9.609 -0.0961  0.1216  0.3280
21601W        W38448   9.065   1.713  13.610 -0.0368 -0.4404 -0.3097
21602W        W38449  17.370   9.091  12.323  0.1632  0.0807 -0.0140
21603W        W38450  17.832   9.257   2.093 -0.0937 -0.2281  0.0034
21604W        W38451  18.602   5.187   4.828 -0.2099  0.2069 -0.0191
21605W        W38452  19.793   2.574   4.166 -0.1966  0.1758 -0.1449
21606W        W38453   1.013   0.857   2.510  0.2339 -0.0935  0.2524
21607W        W38454   6.218   8.479   4.934  0.3485  0.3665 -0.0003
21608W        W38455  17.838   5.374  13.543 -0.2121  0.0072 -0.1141
21609W        W38456  11.385   8.496  12.845 -0.0813  0.0598 -0.0373
21610W        W38457  14.504  11.151  11.598 -0.0426 -0.1448  0.3275
21611W        W38458  18.531  11.434  13.186 -0.0036 -0.2426 -0.1606
21612W        W38459   1.215  17.553   4.769  0.2688 -0.1382 -0.1503
21613W        W38460   0.714   2.895  13.995  0.0668 -0.0263  0.6716
21614W        W38461   9.898  16.217   9.187 -0.0013  0.1169  0.0421
21615W        W38462  19.841   7.570   4.677  0.0839 -0.0651  0.0729
21616W        W38463  13.178  19.459  14.294  0.5254  0.0876  0.2254
21617W        W38464   2.992   3.425   0.177 -0.1067  0.2531  0.0043
21618W        W38465   8.147  11.464   4.181  0.0449 -0.1468 -0.0702
21619W        W38466   7.893  12.127  13.888 -0.0086  0.2553 -0.1790
21620W        W38467  11.070  15.265  13.167 -0.2920  0.2310  0.0289
21621W        W38468  19.730   3.156   4.038  0.1112 -0.2887 -0.0449
21622W        W38469  10.367   1.884  13.195  0.0675  0.3552 -0.1328
21623W        W38470   6.697  18.289  12.439 -0.2996 -0.0529  0.0052
21624W        W38471  14.178   7.943   4.473  0.1679  0.2380 -0.3119
21625W        W38472   0.124  13.230  12.092 -0.1284  0.1379 -0.2437
21626W        W38473  10.779  18.010   3.865 -0.3378 -0.2095  0.2925
21627W        W38474  10.004  10.598   0.625 -0.1053 -0.1360 -0.4756
21628W        W38475   5.077   8.557   2.476 -0.2450  0.0078  0.1780
21629W        W38476   2.337   3.421  11.831  0.0277 -0.0144 -0.1085
21630W        W38477   9.713   8.072  13.127  0.1770 -0.3984  0.1695
21631W        W38478   3.781   2.982  11.238  0.3348  0.0373 -0.1990
21632W        W38479  10.371   9.934   2.809 -0.0885 -0.0981  0.0997
21633W        W38480  15.949  11.355  12.519 -0.0691 -0.0303  0.1651
21634W        W38481  19.832   5.320   0.939  0.0935  0.1654  0.1159
21635W        W38482   4.112  18.642  12.013 -0.0118 -0.0351  0.0796
21636W        W38483   9.741   5.518  10.317 -0.0342  0.0855 -0.1324
21637W        W38484   9.513  12.825   2.608  0.0904  0.0222  0.1587
21638W        W38485   6.939  19.335  10.570 -0.0163 -0.2176  0.0449
21639W        W38486   2.031  19.200   2.750  0.0601 -0.1126  0.0103
21640W        W38487  14.108   6.522   3.167 -0.4379  0.1187 -0.2646
21641W        W38488  15.163   8.122   0.929 -0.0255 -0.2932  0.1090
21642W        W38489   2.700  14.018   0.888 -0.0984  0.0471 -0.4063
21643W        W38490  15.948  17.488   0.189  0.0217 -0.2009 -0.0462
21644W        W38491   0.948   9.400   2.125  0.3164  0.2122 -0.0481
21645W        W38492  12.096   2.866   3.087  0.3978  0.2263 -0.1010
21646W        W38493  13.903   2.119   4.352 -0.0079 -0.0537 -0.0394
21647W        W38494  13.846   1.834   1.145  0.0279 -0.3778  0.1679
21648W        W38495   8.562   8.980   9.951  0.2096 -0.3351 -0.1906
21649W        W38496   0.928   3.610   0.643 -0.2138  0.3138 -0.2925
21650W        W38497  16.204   5.731  11.613 -0.2104 -0.2800  0.0568
21651W        W38498   3.935  11.041   2.985  0.0142 -0.0106  0.1869
21652W        W38499  13.980   5.902   1.009  0.1053 -0.0596 -0.2153
21653W        W38500  16.458  18.125  12.935 -0.1604 -0.2680 -0.0681
21654W        W38501  10.068   3.520   0.877 -0.1582 -0.3106 -0.0537
21655W        W38502   1.223  18.374  11.946 -0.2320  0.2430 -0.0828
21656W        W38503   8.467   6.175   0.038  0.2276  0.0349 -0.1297
21657W        W38504  10.913   6.890   4.237 -0.0190 -0.2038  0.0380
21658W        W38505  19.336  10.441  10.494 -0.0880  0.0526  0.2528
21659W        W38506   6.205   5.204  11.325  0.2536  0.0162  0.1910
21660W        W38507  12.592  11.729   1.786  0.0484 -0.0339 -0.0871
21661W        W38508   1.232  19.711   1.849  0.3235 -0.0172  0.1383
21662W        W38509   3.863   5.363  13.384 -0.1790  0.0609  0.2017
21663W        W38510  16.120  17.247   0.729  0.0615 -0.1259 -0.0720
21664W        W38511   3.692   3.176   1.504  0.0881 -0.2769 -0.2694
21665W        W38512  16.694  10.196   3.084 -0.1187  0.0187 -0.1693
21666W        W38513   3.483  15.879   1.889 -0.0364 -0.0326  0.1143
21667W        W38514   5.191   5.789  13.785  0.1930 -0.0531 -0.1375
21668W        W38515  10.884  18.419  10.620  0.1030  0.0708  0.2655
21669W        W38516   8.301   5.216   0.310  0.2011  0.3094 -0.0969
21670W        W38517  13.013  19.271  11.578  0.1344 -0.0768  0.1741
21671W        W38518  19.434  10.475   4.700 -0.0339 -0.0589 -0.1448
21672W        W38519  11.967   4.098  10.014 -0.0833 -0.0946  0.1445
21673W        W38520   7.085  17.915   3.928  0.1209  0.0216 -0.3352
21674W        W38521  16.296  13.349   3.436  0.1647 -0.2168 -0.0706
21675W        W38522  19.847   2.686   0.980  0.2317  0.1330  0.3080
21676W        W38523   6.046   4.026  13.770 -0.2072 -0.2427  0.2878
21677W        W38524   6.916   8.296   2.406 -0.0314  0.1894  0.2068
21678W        W38525   6.210  16.156   0.871 -0.0761  0.5096 -0.0713
21679W        W38526   7.779  19.617   2.556 -0.0639 -0.2176  0.1919
21680W        W38527   5.933  10.466   1.722  0.0120 -0.2672  0.1179
21681W        W38528   4.419   9.535   4.034 -0.1072  0.3416  0.1604
21682W        W38529  11.994   8.278   3.350  0.0866 -0.2523  0.2468
21683W        W38530  15.702   4.775   1.408 -0.1262 -0.4114  0.0425
21684W        W38531  14.462  19.354  11.154  0.1879  0.0435  0.3115
21685W        W38532   2.108  12.709   0.299  0.1361  0.2273 -0.2371
21686W        W38533   2.001   9.451   2.869  0.4647  0.1707 -0.1192
21687W        W38534  13.564   9.168   2.944  0.0599 -0.1137 -0.3188
21688W        W38535  13.488   4.534   1.845  0.3285  0.0483 -0.2476
21689W        W38536  12.002   5.227   2.767 -0.0461  0.1562 -0.1445
21690W        W38537   1.400  18.379   4.154 -0.0994  0.1460 -0.0318
21691W        W38538   7.630  19.250  10.951 -0.0679  0.2023 -0.1440
21692W        W38539   8.886   5.917  12.974  0.0632 -0.1441 -0.0141
21693W        W38540  11.648   6.041   9.855 -0.1956  0.0708  0.1156
21694W        W38541   0.851   9.577  12.315  0.0806 -0.2204  0.4634
21695W        W38542   1.483  17.142  11.918 -0.0475 -0.2350  0.0101
21696W        W38543  13.617   7.170   2.793  0.0467  0.0420 -0.2240
21697W        W38544   9.519   5.928   4.915 -0.1264  0.2464 -0.3760
21698W        W38545   7.197  19.196  13.594  0.0570 -0.0595 -0.4239
21699W        W38546  14.920   6.836   0.147  0.3252  0.0365  0.0364
21700W        W38547  12.081  18.750   0.436 -0.1119 -0.0090  0.0222
21701W        W38548  15.629  11.370   3.275  0.0610 -0.3352 -0.0739
21702W        W38549  18.811  13.739   3.168 -0.1019 -0.0147 -0.0421
21703W        W38550   5.698  10.425   2.136  0.0904  0.0799  0.2931
21704W        W38551   3.734   8.216   0.927  0.1559  0.0131  0.3307
21705W        W38552  10.509  16.532  12.009  0.0021  0.3395  0.1048
21706W        W38553  13.492   9.057  13.981  0.1390  0.1234 -0.2503
21707W        W38554  14.998  10.197  12.202  0.1575 -0.3352  0.3814
21708W        W38555   0.635  11.069  11.463 -0.2139  0.4988 -0.0753
21709W        W38556   5.739  16.332   0.042  0.1528 -0.0569 -0.0750
21710W        W38557  16.035  19.668   3.074 -0.2075 -0.1029  0.2381
21711W        W38558  17.641  16.603  12.822 -0.1855 -0.2280  0.0603
21712W        W38559   7.073   2.930  11.491 -0.1068 -0.0097 -0.0910
21713W        W38560  12.842  17.426  11.940  0.1293  0.3287  0.1436
21714W        W38561  19.129  17.695  10.801  0.0988  0.3110  0.1714
21715W        W38562  18.945  11.762  11.762  0.0533  0.2478  0.0488
21716W        W38563   3.402   3.334   2.275 -0.3645 -0.1604 -0.2493
21717W        W38564   7.628   1.324  10.682 -0.4385  0.2527  0.1695
21718W        W38565  13.294   4.561   0.069  0.0435 -0.4290 -0.1065
21719W        W38566   5.292  13.239  14.247 -0.3080 -0.1228  0.0140
21720W        W38567   3.226   8.573   3.577  0.1727  0.2481 -0.4019
21721W        W38568  17.566  15.459   5.202 -0.2044 -0.5628  0.2841
21722W        W38569  15.951  18.129   4.138 -0.0651 -0.2278 -0.2125
21723W        W38570  14.085   3.811  11.592  0.0926 -0.1447 -0.0908
21724W        W38571  19.046   3.805   2.634 -0.0701 -0.2924  0.0993
21725W        W38572   0.407   0.346  11.101  0.2615  0.0093  0.0022
21726W        W38573   5.276  13.563   0.846  0.0997  0.0746 -0.3540
21727W        W38574  11.672  16.123   3.608  0.1628 -0.0075  0.1077
21728W        W38575   3.778   5.958   2.622 -0.1713 -0.2202  0.3673
21729W        W38576  16.520  14.778  10.435 -0.1684 -0.3844 -0.1532
21730W        W38577  19.082   8.298   3.678 -0.1820 -0.0942  0.3214
21731W        W38578   2.630  10.795   0.345  0.2361 -0.2890  0.2424
21732W        W38579  19.036   6.124   1.653  0.1192  0.0379 -0.1395
21733W        W38580   5.096  15.336  11.874 -0.2461  0.1796 -0.0892
21734W        W38581   5.492   4.357   3.356  0.1059  0.2222 -0.3382
21735W        W38582  16.453  14.823   0.731  0.1443  0.1319  0.0083
21736W        W38583   1.808  11.090  10.564 -0.0835  0.0889 -0.0449
21737W        W38584   9.776   4.649   3.738  0.0243  0.1217 -0.2020
21738W        W38585  19.484   5.384   5.304  0.1002  0.3122 -0.1307
21739W        W38586  10.350  17.781   3.022 -0.1100  0.0455  0.4539
21740W        W38587  16.980  10.115   4.307 -0.0540 -0.2119 -0.0943
21741W        W38588  10.886  12.715   4.580  0.0171  0.2999 -0.0450
21742W        W38589  19.639   4.441   0.537 -0.0947 -0.2769 -0.2321
21743W        W38590  18.031   1.140  10.277  0.0561 -0.2500 -0.1572
21744W        W38591  11.873  14.957  12.736 -0.2882  0.1904 -0.3301
21745W        W38592   6.850  10.475  11.573  0.1706 -0.2287 -0.0322
21746W        W38593  18.637  10.084  12.187  0.2695 -0.1114 -0.1331
21747W        W38594  10.346   7.028   4.131 -0.1555  0.1289  0.0104
21748W        W38595   7.132  18.298   3.330 -0.2557  0.1162  0.3724
21749W        W38596  17.435   8.132   5.002 -0.0460 -0.0804 -0.0857
21750W        W38597   8.308  10.667   4.482  0.0985  0.0467  0.0913
21751W        W38598   6.568   8.732   2.306  0.3367  0.1925 -0.2805
21752W        W38599  17.736   9.953   3.205 -0.2678  0.1821  0.0450
21753W        W38600   5.985  11.063  12.710  0.0209 -0.1614 -0.1099
21754W        W38601  10.905  19.404   2.251  0.4512  0.1238 -0.0210
21755W        W38602  19.441   0.004   3.209 -0.0416 -0.0141  0.3511
21756W        W38603   2.312  19.785   3.310 -0.3773 -0.0733 -0.0598
21757W        W38604  18.840   2.220  14.151 -0.1240  0.1681  0.1569
21758W        W38605  15.342  10.229  13.309  0.0294 -0.0167 -0.1281
21759W        W38606   7.209  16.773   4.850 -0.3014  0.1855 -0.3975
21760W        W38607   4.908  19.149   2.512 -0.1094  0.0373 -0.0879
21761W        W38608   3.702   2.246   2.088 -0.0177 -0.1301  0.1768
21762W        W38609  17.144  14.914  13.067 -0.0246  0.1076  0.0871
21763W        W38610  16.267  14.363   1.003  0.2380  0.1014 -0.0795
21764W        W38611   7.414  12.629   4.625 -0.0950  0.0210  0.3982
21765W        W38612   0.930  19.739   3.814  0.0245 -0.0796 -0.1116
21766W        W38613  19.132  17.410  13.740 -0.0341  0.0441 -0.0050
21767W        W38614   5.962  10.860   2.084 -0.2133 -0.1566  0.2040
21768W        W38615   4.060  17.542  11.730 -0.0316 -0.2487 -0.4850
21769W        W38616   0.084  16.794  11.782  0.0083 -0.1559 -0.2342
21770W        W38617   1.787  14.304   2.027 -0.0797 -0.1302 -0.0204
21771W        W38618  16.343  16.081   2.545  0.0347 -0.2064  0.1882
21772W        W38619   4.557   5.687  11.402  0.1071 -0.4256  0.0543
21773W        W38620  15.658  15.977   1.205 -0.0296  0.0494  0.0146
21774W        W38621   1.503   0.629   9.848 -0.3873  0.1088 -0.2820
21775W        W38622  10.911  14.835   2.726  0.0064 -0.0514  0.1559
21776W        W38623  12.929   6.982  13.300 -0.4686  0.0092 -0.0345
21777W        W38624  18.302   5.975   5.252 -0.4772  0.2897  0.1512
21778W        W38625  11.206   1.343  13.308  0.4151  0.3467  0.2281
21779W        W38626  15.240   2.008  11.753 -0.1119 -0.1198  0.0320
21780W        W38627  16.632  10.793   3.554 -0.1063  0.0488 -0.3834
21781W        W38628   4.668  14.344   5.211 -0.1252  0.0365 -0.0830
21782W        W38629  13.472   6.205  12.899  0.0774  0.1263  0.0001
21783W        W38630  12.577   4.276   0.271  0.0242 -0.3695 -0.2439
21784W        W38631  10.482   2.789  12.812  0.0729 -0.3960  0.0237
21785W        W38632  18.335   3.245   3.733 -0.1691 -0.0003  0.0955
21786W        W38633   3.266  11.348  12.539 -0.0642  0.0207  0.1177
21787W        W38634  13.743   9.692  11.179 -0.3460 -0.1991  0.0346
21788W        W38635   5.768   3.278   0.837 -0.0605  0.2531  0.1526
21789W        W38636   9.691   3.144  10.314  0.4004  0.3817  0.1198
21790W        W38637   9.504  17.572   4.244  0.1289 -0.0048  0.0426
21791W        W38638   1.230  12.903   3.574 -0.0719  0.0449  0.2289
21792W        W38639   0.346  13.061   2.352  0.2177  0.2913  0.1341
21793W        W38640   0.369   6.492   9.339 -0.3641  0.1943 -0.1634
21794W        W38641  12.599  12.556  11.136  0.0694  0.0885 -0.2289
21795W        W38642   0.994  10.756   9.850  0.1372  0.1390  0.1516
21796W        W38643   3.699  18.739  10.534  0.3556 -0.0933 -0.1158
21797W        W38644   1.750   2.746  11.745  0.1770 -0.0737 -0.0050
21798W        W38645   5.779   8.201  13.952 -0.3771  0.0310 -0.1480
21799W        W38646  13.972   0.486   1.518 -0.0850  0.1747 -0.5015
21800W        W38647  16.755  18.235   3.543  0.0127  0.0168 -0.2032
21801W        W38648  17.263  15.384   1.081 -0.0121  0.2221  0.0901
21802W        W38649  11.649   9.098  10.290  0.0803  0.1482 -0.0179
21803W        W38650   0.240   0.093   4.492 -0.3351  0.1249 -0.0746
21804W        W38651   0.712   9.260  11.841 -0.0297 -0.2030  0.1304
21805W        W38652  11.514  14.928   2.087  0.0864  0.0365 -0.0962
21806W        W38653   7.500  19.468   0.619 -0.0736  0.1155 -0.2360
21807W        W38654  11.904   6.470   9.989  0.1489 -0.0049  0.2248
21808W        W38655  19.895  16.137  10.744 -0.0438 -0.0221 -0.0486
21809W        W38656  16.403   7.813  12.144  0.0796 -0.3023  0.2505
21810W        W38657  18.083  11.809   3.250  0.4571  0.1407  0.0609
21811W        W38658  10.949  13.337  14.145  0.0959  0.1553 -0.0184
21812W        W38659   4.710   2.080  13.469  0.3702  0.0297  0.2710
21813W        W38660   4.886   7.386   4.323 -0.0293  0.0652  0.1082
21814W        W38661   5.766  11.429   4.027 -0.2335  0.3439  0.0197
21815W        W38662   4.501  11.281  14.161  0.0290 -0.0455  0.0846
21816W        W38663   2.621  16.008   1.981 -0.0309 -0.1625  0.3742
21817W        W38664  11.617   4.251  13.691 -0.1331  0.1200  0.1428
21818W        W38665   8.225  16.836  11.472  0.0059  0.0455 -0.2195
21819W        W38666   1.241  12.507  11.455 -0.0291 -0.1589 -0.2114
21820W        W38667  16.838  15.983   1.113 -0.0497  0.1625  0.2712
21821W        W38668   4.893  11.971  12.959 -0.0709 -0.0788 -0.2130
21822W        W38669   6.438  19.729  11.299 -0.3033 -0.1900  0.4345
21823W        W38670   8.629  11.810  10.323  0.0533 -0.0315 -0.0283
21824W        W38671   8.909  11.646   0.625  0.1251  0.0506  0.1357
21825W        W38672   6.026   0.503   2.549 -0.3019 -0.2564  0.1633
21826W        W38673   3.921   7.258   4.640 -0.3300 -0.2624  0.1529
21827W        W38674   4.546  18.872   3.292  0.0444 -0.0801  0.1417
21828W        W38675  16.277  10.258  13.915  0.3109  0.0097 -0.0088
21829W        W38676   4.074  16.454  10.624 -0.0875  0.1684 -0.1509
21830W        W38677   1.812   0.735   3.175 -0.1514  0.1591  0.6512
21831W        W38678   7.218   6.475  10.100  0.2236 -0.0715  0.0005
21832W        W38679   3.732  10.515  12.955 -0.0213 -0.1198  0.0331
21833W        W38680   7.543  17.477  12.219  0.0386 -0.1340  0.1513
21834W        W38681  10.778  15.723   0.188  0.1165 -0.0078  0.0098
21835W        W38682   1.207   9.458   0.490 -0.3386 -0.0700  0.1352
21836W        W38683  13.154   2.778   4.202 -0.1530  0.1308 -0.0063
21837W        W38684  11.788  14.507  10.490  0.2397  0.0460 -0.0999
21838W        W38685  12.133   4.399  11.996 -0.1552  0.2841  0.1820
21839W        W38686   5.663   0.261   9.023  0.0632  0.1085 -0.0901
21840W        W38687  11.975  17.793  11.735  0.1475  0.2733  0.0652
21841W        W38688  10.157  11.346   4.934  0.1756  0.2591 -0.0134
21842W        W38689   2.721  14.282  10.259 -0.0378 -0.1523 -0.0757
21843W        W38690   4.193  14.608   3.976 -0.2134  0.3712  0.2006
21844W        W38691   8.118   2.528   1.916  0.0204 -0.4103 -0.0185
21845W        W38692   0.227  18.962   2.884  0.3007 -0.3783  0.1656
21846W        W38693   2.433  11.957  11.979  0.1500  0.2183  0.0880
21847W        W38694  16.294  10.443   3.914 -0.1686 -0.4220 -0.0004
21848W        W38695   5.533  17.382   3.022  0.0149  0.0005  0.1236
21849W        W38696  14.807  13.619  11.113  0.0739  0.0931  0.0790
21850W        W38697  14.913   3.059  13.533 -0.3010  0.0851  0.0975
21851W        W38698   1.001   3.401   2.347  0.1286  0.0064 -0.1182
21852W        W38699   3.015  17.792  10.142  0.0889  0.1064 -0.2032
21853W        W38700  17.359  15.611   3.240  0.1542  0.0160 -0.4451
21854W        W38701  12.558  12.775   1.978  0.0012  0.1364  0.1658
21855W        W38702  18.095   2.899   3.471  0.1458  0.0929 -0.1153
21856W        W38703   0.860   9.051   0.790  0.0058 -0.1702 -0.1199
21857W        W38704  19.179  17.977  11.529  0.1155 -0.1115 -0.0010
21858W        W38705   1.680   5.199   9.677  0.2496 -0.0686 -0.0333
21859W        W38706  12.483   8.164   3.359 -0.2473  0.1497  0.1792
21860W        W38707  18.355  19.487  11.309  0.1902 -0.0044  0.0733
21861W        W38708   9.025   6.453  13.132  0.2347 -0.2929 -0.1328
21862W        W38709  15.292  16.017  13.130  0.0134  0.2900 -0.0520
21863W        W38710   7.852  10.847   3.507 -0.0559  0.5207  0.0908
21864W        W38711   2.885   9.170   2.947  0.0910 -0.1138 -0.0674
21865W        W38712  12.531   3.712  12.749  0.2141 -0.1872 -0.1114
21866W        W38713  15.946   7.012  11.074 -0.2312  0.3942  0.0612
21867W        W38714   6.216  13.923   9.619  0.0661  0.0438  0.1599
21868W        W38715  16.943  13.978   3.459  0.1260 -0.1123 -0.0938
21869W        W38716  12.211   5.058   1.193  0.1018 -0.0297  0.0446
21870W        W38717   7.129   0.243   1.656  0.0896 -0.3148  0.0658
21871W        W38718  10.894   7.335   0.345 -0.0438  0.1534  0.0853
21872W        W38719   4.499  14.911  12.666 -0.0915  0.2096 -0.0821
21873W        W38720  18.769   9.103   3.641  0.1853 -0.0669 -0.0551
21874W        W38721  19.272  14.496   3.098  0.1127 -0.1635  0.2238
21875W        W38722  12.399  14.166  11.320 -0.0423  0.3023 -0.2274
21876W        W38723  19.275  15.481   3.260 -0.1452 -0.1692 -0.0335
21877W        W38724  14.793   1.599  12.920 -0.0981  0.1354 -0.1468
21878W        W38725   6.975   9.020   4.224  0.1566  0.1666  0.2601
21879W        W38726  10.236  12.002   1.407 -0.0276 -0.3715 -0.2087
21880W        W38727   5.906   8.301  11.187  0.1255  0.0111 -0.0454
21881W        W38728  10.606  11.529  11.897  0.0973  0.0398 -0.0371
21882W        W38729   2.157   3.553   0.572  0.0755  0.3329  0.3670
21883W        W38730  16.196  10.272   2.368  0.2343  0.1284 -0.1076
21884W        W38731  10.306   2.026   3.793  0.1985 -0.0819  0.1784
21885W        W38732  11.077   4.499   4.605 -0.2515 -0.1105 -0.1826
21886W        W38733  10.527   4.888  11.893  0.1832 -0.2831  0.1569
21887W        W38734  15.662  14.898   3.637  0.3143 -0.1367  0.1905
21888W        W38735  18.043  15.372   4.723 -0.1469  0.1359  0.0131
21889W        W38736   7.753   2.549  13.922  0.0032  0.0557  0.1923
21890W        W38737   3.542  14.662  10.399  0.3266 -0.2565  0.1211
21891W        W38738   2.481   7.620   5.379 -0.1762 -0.2417  0.1250
21892W        W38739  14.066  11.080   0.301 -0.2738  0.1470  0.0276
21893W        W38740  12.674   0.006   3.707 -0.0989  0.0132  0.0114
21894W        W38741  10.911  11.314   2.876  0.1491  0.1095  0.2730
21895W        W38742  14.610  18.911   4.547  0.3103 -0.0526  0.0123
21896W        W38743  16.144   0.205  11.581 -0.0770 -0.2224  0.2642
21897W        W38744   9.128   5.550   3.555  0.4501  0.2058  0.2243
21898W        W38745  10.522   7.390   2.755 -0.1341  0.1585 -0.3162
21899W        W38746  12.002   6.096  11.065 -0.1222  0.1288  0.1968
21900W        W38747  15.962   5.287   1.394 -0.1989 -0.4776 -0.1775
21901W        W38748   0.024  15.561   4.039  0.2066 -0.2959  0.2041
21902W        W38749  18.012   0.342  11.380 -0.1882 -0.0385  0.0521
21903W        W38750  15.181   6.432   0.390 -0.1997 -0.3973 -0.1838
21904W        W38751   8.279   0.172   1.701 -0.0173  0.3342  0.0641
21905W        W38752   4.340  13.408   3.820  0.0695 -0.1493  0.0689
21906W        W38753   3.468  17.686   2.140 -0.1505  0.1473 -0.1933
21907W        W38754  15.278  13.973   5.581  0.1759  0.4702  0.3215
21908W        W38755  15.320   6.370  11.304  0.0927  0.0637  0.3481
21909W        W38756  18.073  19.658   3.155 -0.2729  0.0677  0.0281
21910W        W38757   9.241   4.486  13.076  0.1590  0.0526  0.0237
21911W        W38758  11.743  16.569   1.959  0.1491 -0.2170  0.0640
21912W        W38759   6.406   7.628   9.808 -0.3281  0.0510  0.0708
21913W        W38760   7.366   4.704  11.442  0.0103 -0.2483  0.0902
21914W        W38761   2.813   7.447  13.608  0.1778 -0.1232  0.2066
21915W        W38762  12.416  16.467   2.522  0.0731 -0.2052  0.0236
21916W        W38763   5.665   5.136  13.041  0.1072  0.2429 -0.2568
21917W        W38764   6.754  17.752  10.929 -0.1259  0.2093 -0.1544
21918W        W38765  14.926   2.722   4.443  0.0649 -0.0108  0.2370
21919W        W38766   9.941   2.449  12.228 -0.2253 -0.2309  0.3385
21920W        W38767  15.113   0.934  14.157 -0.1021 -0.0535  0.0096
21921W        W38768  16.411  16.054  12.598  0.1278 -0.0420  0.1160
21922W        W38769  17.335   7.434  12.734  0.0879 -0.1599 -0.3810
21923W        W38770  14.289   2.138   3.718  0.3253  0.1238 -0.0130
21924W        W38771  13.731  12.496  11.630 -0.1865 -0.1105 -0.3696
21925W        W38772  15.129  13.623   1.081 -0.2870 -0.1500  0.1207
21926W        W38773  14.646   8.047  10.411 -0.0957  0.0977  0.1493
21927W        W38774  14.409  15.888  13.689  0.1460 -0.2066  0.1004
21928W        W38775  10.505  18.642  11.912 -0.0916 -0.2754  0.4916
21929W        W38776  14.060  15.411   1.676 -0.1162  0.0164  0.0721
21930W        W38777   2.352  18.399  13.899 -0.0380 -0.2403  0.0093
21931W        W38778  18.571   6.674  10.340 -0.1108 -0.2695 -0.0389
21932W        W38779  12.641  17.403   2.739 -0.1042 -0.3206  0.2677
21933W        W38780  16.312   4.235  13.006  0.0145  0.1181 -0.1176
21934W        W38781   3.519  18.569   1.144 -0.1601  0.0109 -0.2451
21935W        W38782  18.952  14.669   3.976 -0.0770  0.0361 -0.0143
21936W        W38783  10.590   4.423  13.811 -0.0762  0.1677  0.1909
21937W        W38784   6.160   2.839   9.790 -0.1481 -0.2599  0.0415
21938W        W38785  12.039   5.014  13.196  0.1088 -0.1612  0.0342
21939W        W38786  17.247   8.767   1.204 -0.2770 -0.0260  0.0665
21940W        W38787  12.718   1.873   4.660  0.3131 -0.2870 -0.3257
21941W        W38788   6.455   5.578  13.463  0.0026  0.1221  0.0292
21942W        W38789   3.114   2.974  12.539  0.0488  0.0754 -0.0723
21943W        W38790  11.918   6.696  12.004  0.0864 -0.4616  0.1398
21944W        W38791   5.335   4.636   2.963 -0.0195  0.1727  0.1659
21945W        W38792   3.637   3.263  12.785  0.2227  0.0630  0.3461
21946W        W38793   4.805   2.567  13.001  0.0887 -0.2681 -0.2044
21947W        W38794   5.425  15.418   1.665 -0.1432 -0.3793  0.2044
21948W        W38795   4.089  18.562   9.527  0.1145  0.0776  0.0304
21949W        W38796  15.820  18.878  10.743  0.0962  0.2130 -0.1224
21950W        W38797  14.867  15.527   2.356  0.2258 -0.2281 -0.1925
21951W        W38798  17.968   9.010  13.317 -0.3414 -0.1516 -0.0753
21952W        W38799  16.238  13.308   0.129  0.0378  0.2520  0.0854
21953W        W38800  12.378  15.715  12.613  0.0370  0.0484  0.1140
21954W        W38801  17.666   9.461   1.660 -0.1996  0.1940 -0.3623
21955W        W38802   4.401   7.016   2.065  0.0771 -0.1246  0.0759
21956W        W38803  14.639  14.090   1.784  0.0098 -0.0388 -0.1888
21957W        W38804   0.464   3.790  12.658 -0.1832 -0.2705 -0.0997
21958W        W38805  12.037   4.913  13.661 -0.2719  0.0229 -0.2041
21959W        W38806   2.979  19.767   1.228  0.0248 -0.2242 -0.0029
21960W        W38807   2.478  18.913   2.911 -0.0475 -0.0064 -0.2494
21961W        W38808  10.907   3.817   1.254  0.2084 -0.3706 -0.4112
21962W        W38809  18.261  19.729   9.758 -0.0265 -0.0062  0.0475
21963W        W38810  11.269   2.093   2.372 -0.1981  0.1105 -0.0904
21964W        W38811  15.445  13.720   1.797  0.0204  0.0384  0.2798
21965W        W38812   2.314   9.240  10.043  0.0724  0.0475  0.2388
21966W        W38813   7.199   5.141   0.358 -0.0775 -0.0137 -0.1458
21967W        W38814   2.355  13.882  13.643 -0.2130 -0.2887 -0.0100
21968W        W38815  12.863   7.086  11.469  0.1764 -0.2731  0.0860
21969W        W38816   3.022  10.139  11.640  0.1738 -0.3554 -0.4526
21970W        W38817  17.366   0.030  13.668  0.1198  0.1961  0.0742
21971W        W38818  17.456  14.421  13.745  0.1811  0.1365 -0.0023
21972W        W38819  19.913   4.432   2.685  0.2409 -0.1661  0.0583
21973W        W38820   1.051  19.026  12.097  0.1241 -0.0393  0.1670
21974W        W38821  12.198   6.594   2.148  0.5469  0.0378  0.2850
21975W        W38822   3.595   3.564  13.708  0.1438 -0.0911  0.0013
21976W        W38823   4.351  15.829   4.040  0.0405 -0.3286  0.4416
21977W        W38824   0.583  13.564  13.436 -0.0566  0.0841  0.0253
21978W        W38825  13.321   1.276   1.689  0.0586  0.0211  0.0583
21979W        W38826   9.092  10.017  11.915 -0.0572 -0.1585  0.0982
21980W        W38827  19.200   6.342   5.013  0.1032  0.0723 -0.0195
21981W        W38828   3.635  18.021   2.425  0.0182  0.0072 -0.3173
21982W        W38829  17.411  13.170   2.650 -0.0964  0.2496 -0.1520
21983W        W38830   0.613   5.446  12.994 -0.3566  0.0942 -0.3155
21984W        W38831   1.520   9.900  10.158 -0.1711 -0.2100  0.3558
21985W        W38832  12.910  17.860   2.711  0.4252  0.0398 -0.2472
21986W        W38833  17.141  17.406   3.676 -0.3403 -0.0748  0.3976
21987W        W38834  14.627  12.522   1.354 -0.0205 -0.1346  0.0771
21988W        W38835   0.475  14.999  10.177 -0.1165  0.0188  0.0613
21989W        W38836   0.129   3.283  13.363 -0.0271 -0.0661  0.3617
21990W        W38837   0.529   9.068   1.810 -0.0889 -0.1297 -0.0970
21991W        W38838   6.456  14.208  13.764  0.1378  0.0601 -0.2455
21992W        W38839  11.763   8.035   2.986  0.0147  0.2388  0.0068
21993W        W38840  16.806   5.528   1.271 -0.0723  0.0773  0.2193
21994W        W38841  10.815  16.428  13.286 -0.3060 -0.2671  0.0097
21995W        W38842  10.810   9.387   2.501 -0.3105 -0.4721 -0.0154
21996W        W38843   1.895   8.606  13.482  0.0587 -0.0453 -0.1643
21997W        W38844  13.833  11.902  12.874  0.0339 -0.1850  0.1063
21998W        W38845   3.335   4.420   0.852  0.1193  0.0982  0.1098
21999W        W38846  13.513   0.993   4.870  0.0870  0.0081 -0.3461
22000W        W38847   5.356  14.345  11.132  0.1692  0.0455  0.0701
22001W        W38848  11.981   8.989   0.646 -0.0063  0.0149 -0.0328
22002W        W38849  18.280   4.964  13.799 -0.0222  0.1365 -0.3213
22003W        W38850  17.027  18.591   0.612 -0.0500  0.3319  0.2315
22004W        W38851  10.066  18.535  11.629 -0.0779  0.2593 -0.1508
22005W        W38852  14.435  10.596   3.370  0.1073  0.2915  0.3310
22006W        W38853  11.772   8.582  10.116 -0.0694 -0.3128  0.0491
22007W        W38854   8.788  10.267   1.994  0.0338 -0.3586 -0.0266
22008W        W38855   9.845   8.974  11.482 -0.0502  0.2263  0.1447
22009W        W38856  11.578   0.122  14.132  0.1333 -0.0777 -0.4111
22010W        W38857  15.734   1.385   4.319 -0.3600  0.0294 -0.0457
22011W        W38858  14.081  17.499  12.359 -0.0384  0.0374  0.0056
22012W        W38859  10.713  19.638  11.280 -0.1189 -0.1979 -0.0902
22013W        W38860   4.556   3.302  13.340  0.2837 -0.3504 -0.1067
22014W        W38861   3.131   4.537   3.552  0.1636  0.0944 -0.3530
22015W        W38862   3.538  19.013  12.867  0.1189 -0.2318  0.0353
22016W        W38863  15.735  12.684   5.013 -0.2051 -0.0023  0.3894
22017W        W38864   3.518  16.380   9.906  0.2229 -0.1539  0.0811
22018W        W38865   5.517   1.987   2.469 -0.1187 -0.1562  0.2403
22019W        W38866   5.933  14.499   0.625 -0.3452 -0.0841  0.0228
22020W        W38867  10.461   6.555   0.268 -0.0829  0.2626 -0.0764
22021W        W38868  15.226   2.281  13.495 -0.1043  0.0997  0.1511
22022W        W38869   7.373  17.998  11.675  0.3346  0.0544  0.0062
22023W        W38870   6.529   3.214  11.460  0.0717  0.4014  0.0354
22024W        W38871  16.470  15.709   1.558  0.2935 -0.1286  0.2418
22025W        W38872  12.598  10.340   1.294  0.1109  0.2205  0.1360
22026W        W38873   8.783   8.044  13.943  0.0943  0.1739  0.1579
22027W        W38874   0.785   3.349   4.405 -0.3586 -0.3779 -0.2951
22028W        W38875  18.182   2.599   0.538 -0.0709 -0.0843 -0.2109
22029W        W38876  13.870  14.964  10.733 -0.1528 -0.2155 -0.0180
22030W        W38877   2.852   3.211  13.108  0.0565  0.1260 -0.2746
22031W        W38878   7.138  19.798   3.814 -0.1067 -0.1146  0.0431
22032W        W38879  10.290   9.184   0.638  0.3871 -0.1248  0.1950
22033W        W38880  13.916   3.749   9.525  0.0449 -0.0542 -0.1363
22034W        W38881  11.066   5.128  12.232 -0.0343  0.1040  0.3734
22035W        W38882   5.206  14.284   1.416 -0.2449  0.1085 -0.1846
22036W        W38883   2.745  11.381   0.378 -0.0936 -0.1137  0.1064
22037W        W38884   0.964   6.124   4.466 -0.1510 -0.2469 -0.2487
22038W        W38885  18.545  14.925   9.132 -0.1786 -0.3166  0.0051
22039W        W38886  14.242   4.156  13.364  0.0574 -0.1202  0.1035
22040W        W38887  12.905   0.497   0.409 -0.2191  0.2911  0.1058
22041W        W38888  11.840  16.628  11.524  0.1028 -0.2411 -0.4258
22042W        W38889   2.499   7.732   1.828 -0.0656 -0.0828 -0.2803
22043W        W38890   2.967   0.987  10.580  0.0339 -0.0061 -0.0037
22044W        W38891   5.228   7.525   0.915 -0.2033 -0.3207  0.0627
22045W        W38892  19.569   7.947   4.427 -0.1728 -0.3939 -0.1464
22046W        W38893  11.411   9.100   1.851 -0.1736 -0.0064 -0.1188
22047W        W38894  10.463   7.907   1.054 -0.3533 -0.1016  0.0836
22048W        W38895  13.159  16.467   0.995 -0.2941 -0.0979 -0.1336
22049W        W38896   4.885  12.716  11.573 -0.0447 -0.2468  0.1236
22050W        W38897  16.598  16.042   3.371 -0.1292  0.2509  0.0777
22051W        W38898   3.615   4.965   9.471 -0.3166  0.3274  0.0396
22052W        W38899   9.874  15.254   2.057 -0.2402 -0.0893  0.1932
22053W        W38900   8.108  11.294   1.517 -0.0602  0.3427 -0.1761
22054W        W38901   1.577  19.610  11.769 -0.3831  0.1106 -0.0780
22055W        W38902   4.379  11.541   4.458  0.0058  0.0151 -0.0755
22056W        W38903  16.082  12.227  14.261 -0.0240 -0.1257 -0.2075
22057W        W38904   4.327  18.368   0.731  0.0222  0.2037 -0.1558
22058W        W38905   2.648   9.501   3.994  0.1016 -0.1456 -0.0224
22059W        W38906  11.831  16.900  14.240  0.2376  0.3594  0.0733
22060W        W38907  13.370   3.509  13.967 -0.2672 -0.0210  0.0545
22061W        W38908  18.075   3.364  10.118  0.0303  0.0812 -0.0764
22062W        W38909   6.896  12.708  13.760 -0.2640  0.0382 -0.1301
22063W        W38910   2.045   1.193   1.792 -0.2035  0.0680 -0.0948
22064W        W38911  13.602  14.034   4.315  0.0822 -0.4305 -0.2657
22065W        W38912   9.254   8.889   2.537 -0.1007  0.3913  0.1296
22066W        W38913  13.245  14.990   3.347  0.2084 -0.2077 -0.0546
22067W        W38914   4.048  10.932   9.997 -0.0951 -0.0734 -0.3391
22068W        W38915   2.018   8.857   3.698 -0.0232  0.2743  0.2491
22069W        W38916  16.734  18.981   4.825 -0.0658  0.1119 -0.1504
22070W        W38917  18.170   9.128  10.563 -0.0034 -0.5470 -0.1877
22071W        W38918   4.377  16.757  11.058  0.1561 -0.0430  0.1816
22072W        W38919  16.357   3.393  13.828  0.2762 -0.2186  0.1754
22073W        W38920  17.815  18.986   0.400  0.1172  0.1324 -0.1777
22074W        W38921  16.737  10.316   3.764 -0.0983 -0.1327 -0.2053
22075W        W38922  17.917  16.066  11.561  0.0503 -0.2184 -0.0485
22076W        W38923   0.700  15.618   3.772  0.1494  0.1459  0.1000
22077W        W38924  14.985  19.035  13.883 -0.0969 -0.1107 -0.2725
22078W        W38925   9.150   1.051  10.741 -0.2262  0.0778  0.1113
22079W        W38926  14.007  17.268   1.411  0.0773 -0.0672 -0.0362
22080W        W38927  14.158  12.575  12.283 -0.0157  0.0548 -0.0137
22081W        W38928  11.167   6.616  10.932 -0.2623  0.0261 -0.2899
22082W        W38929  11.650   9.989   0.804 -0.1518 -0.4534  0.0555
22083W        W38930   8.209   9.444  13.371  0.0269  0.2917  0.1862
22084W        W38931  19.327  14.902   4.583 -0.3989  0.2835  0.0622
22085W        W38932   7.421  11.926  12.883  0.1426  0.1228 -0.3501
22086W        W38933  19.577  11.594   3.540 -0.3054 -0.0519  0.0904
22087W        W38934  13.861  11.335   3.815 -0.0809  0.0761 -0.0372
22088W        W38935   6.292   8.078  14.203 -0.0052  0.0979  0.0033
22089W        W38936   0.725  19.361   2.242  0.2065 -0.3773 -0.0766
22090W        W38937  16.974  12.886  10.211  0.2353  0.0576  0.1224
22091W        W38938   2.918  11.769   4.828  0.1095  0.1418  0.1142
22092W        W38939   1.305  19.495  10.082  0.1487  0.3801  0.0777
22093W        W38940   2.591   9.871   0.505 -0.0888 -0.0878 -0.2359
22094W        W38941  16.287  11.755   3.221  0.0282  0.0397  0.0270
22095W        W38942   3.159   7.354   0.945 -0.2615  0.2113  0.2614
22096W        W38943  16.140   3.773   2.442  0.0964  0.2700 -0.1528
22097W        W38944   5.187   9.973  10.774 -0.3314 -0.1165  0.0947
22098W        W38945  11.859   7.552  10.092 -0.0684 -0.1056  0.4402
22099W        W38946  10.814   9.955   3.897 -0.1275 -0.2677  0.1655
22100W        W38947   2.756  12.014   3.146  0.2131  0.2622 -0.2371
22101W        W38948  19.073  12.409   3.376 -0.3331  0.2134  0.4129
22102W        W38949   9.857   9.131   1.674  0.1489  0.3135 -0.1622
22103W        W38950  15.980   8.105   4.802  0.0943 -0.3060  0.1194
22104W        W38951   8.510  18.812   4.201  0.0961 -0.2388  0.0884
22105W        W38952   6.681  17.379   3.214 -0.0538 -0.0650  0.1606
22106W        W38953   6.340   5.999  12.238  0.1504  0.1721 -0.0575
22107W        W38954   9.161   0.898  14.271  0.2976  0.0886 -0.0972
22108W        W38955   6.339  12.269   1.895 -0.0343 -0.1598 -0.0112
22109W        W38956  18.699  14.259   3.791 -0.3568 -0.0920 -0.0030
22110W        W38957   3.241  17.089  10.609  0.0993 -0.2858 -0.0436
22111W        W38958   3.056   1.267   9.769 -0.1278  0.2052 -0.1218
22112W        W38959  18.949   7.311   3.642 -0.1256 -0.0775  0.0721
22113W        W38960  16.760   6.843   3.047  0.1913  0.1382 -0.1344
22114W        W38961   1.251   4.130   4.123 -0.0109 -0.3056 -0.1952
22115W        W38962   7.917  15.667   4.161  0.1453  0.1577  0.1319
22116W        W38963   3.699   3.341  11.753  0.0478 -0.0041  0.0782
22117W        W38964  15.022   0.701  12.665  0.1974  0.0339  0.1679
22118W        W38965   6.744   2.958  11.052 -0.3201  0.2386  0.1242
22119W        W38966   1.137  16.889  12.182 -0.0945 -0.0279 -0.1553
22120W        W38967  19.488  19.583   1.600  0.5316 -0.3376 -0.2258
22121W        W38968  13.709  11.987  11.599  0.0661  0.0998  0.1006
22122W        W38969   8.588  14.723  13.387  0.1919  0.1581  0.0721
22123W        W38970  17.570   9.483   4.972 -0.0919 -0.0331 -0.0402
22124W        W38971   5.671  16.752  10.252 -0.2786  0.2517  0.2701
22125W        W38972  19.739  10.219   0.939  0.0126  0.2180 -0.0480
22126W        W38973  17.513   5.944   4.959 -0.1394  0.2569 -0.1173
22127W        W38974  12.205  13.117   3.251 -0.3345 -0.0017  0.2759
22128W        W38975  16.779   4.188  13.894 -0.0121  0.0378 -0.2768
22129W        W38976   8.290   3.518  12.256 -0.0867  0.1804  0.2713
22130W        W38977   7.185  14.638  10.286  0.1757 -0.2003 -0.2528
22131W        W38978  10.638  15.376   4.223 -0.0487 -0.0420 -0.0771
22132W        W38979  15.365   7.623  12.140  0.0172  0.0004 -0.0446
22133W        W38980   0.615  13.228  13.787 -0.1977  0.2231 -0.0474
22134W        W38981   8.780  12.784   4.419 -0.3925  0.0966  0.0380
22135W        W38982  16.520  13.789   0.589 -0.0487 -0.3285  0.0306
22136W        W38983  16.115   0.519  12.693  0.1118  0.2449 -0.0171
22137W        W38984  16.422  17.878  13.337  0.2175  0.0395 -0.1807
22138W        W38985   7.111   1.423   2.869 -0.1530 -0.1872  0.1271
22139W        W38986  15.889  10.383   1.953 -0.0062 -0.2346  0.0416
22140W        W38987   2.664   2.475   2.041 -0.2324 -0.0048 -0.2611
22141W        W38988   2.146  10.091  12.284 -0.0015  0.1524 -0.0574
22142W        W38989   0.462  12.178  13.006 -0.1533 -0.0925  0.1995
22143W        W38990  17.953  10.484  12.098  0.4018 -0.1563  0.1233
22144W        W38991  12.230   4.547   3.800  0.0019 -0.2074  0.2428
22145W        W38992  10.230  10.772  11.816  0.1319  0.1733  0.0554
22146W        W38993  14.436   4.118  12.931  0.1233 -0.1096  0.2525
22147W        W38994  13.922  13.066  10.588  0.0031 -0.3841 -0.0196
22148W        W38995  11.772   5.226  10.927 -0.3790 -0.1060 -0.1477
22149W        W38996  14.423  10.916   3.739 -0.1331 -0.0932 -0.1273
22150W        W38997  18.685  13.831   0.221  0.2784  0.2727  0.0864
22151W        W38998  18.626   8.178   2.288 -0.1017  0.0769  0.1033
22152W        W38999  18.960   2.221   2.119  0.0901  0.0689  0.0186
22153W        W39000   6.617  14.406  11.323 -0.2868  0.2125 -0.1283
22154W        W39001  18.653   4.465   2.163 -0.2991 -0.0549 -0.0823
22155W        W39002   5.751  10.085   4.480 -0.1198 -0.0184 -0.2173
22156W        W39003  15.886  18.001  11.025  0.0093 -0.0136  0.2289
22157W        W39004   1.101  11.264   0.676  0.2600  0.2615  0.3951
22158W        W39005   8.413   1.476   0.152 -0.1478  0.0055 -0.2969
22159W        W39006  12.934  15.033   9.860  0.0204  0.0671 -0.0594
22160W        W39007   4.063  13.063   0.117  0.2879  0.2643 -0.2340
22161W        W39008   9.853   5.006  10.413 -0.3368 -0.0881 -0.0047
22162W        W39009  15.826   9.437  12.359  0.0334  0.1148  0.1174
22163W        W39010  16.382   4.178  11.240 -0.3244  0.3942 -0.2529
22164W        W39011   5.913  15.352   9.290  0.2703  0.0914  0.4173
22165W        W39012  18.188  16.652  14.107 -0.1121  0.3165  0.1070
22166W        W39013   6.277   7.429  10.770  0.0913 -0.2163  0.1937
22167W        W39014  19.535  11.974   1.813 -0.1394 -0.2074 -0.1552
22168W        W39015   3.243  18.634  14.151 -0.0005  0.3641  0.1035
22169W        W39016   2.099   7.319  10.874  0.3022 -0.3089 -0.2501
22170W        W39017   1.713  19.630   2.462  0.1267 -0.2243 -0.4793
22171W        W39018  19.308   5.035  12.775  0.0802 -0.0749 -0.0162
22172W        W39019  15.368   3.244  13.300  0.1833  0.0810 -0.0887
22173W        W39020  10.915   1.102  14.098  0.1725  0.1751 -0.0511
22174W        W39021   1.860   8.788  13.980 -0.0629 -0.4181  0.4350
22175W        W39022   6.930   8.472   0.652  0.1161  0.2344 -0.5194
22176W        W39023   8.766   1.774   0.696  0.0985  0.2442  0.1101
22177W        W39024   4.050   8.182   2.611 -0.2275  0.3922  0.2944
22178W        W39025  17.892   1.093  12.613  0.0791  0.1835 -0.0057
22179W        W39026  15.203  17.890  12.672  0.1710 -0.0766 -0.0490
22180W        W39027  14.567  10.552   4.489 -0.3598  0.3134 -0.3956
22181W        W39028   4.175   8.612  13.617 -0.0583  0.6799  0.1892
22182W        W39029   3.346  13.390   0.754 -0.0385 -0.0614 -0.1170
22183W        W39030   7.794  14.504   0.106 -0.3197  0.3495  0.1888
22184W        W39031  15.369   9.320  10.414  0.1482 -0.1079 -0.0264
22185W        W39032  11.203   0.361   0.568 -0.1077  0.2390  0.0361
22186W        W39033   2.393   3.162   2.564 -0.0536  0.1075 -0.2294
22187W        W39034  17.248   2.682   0.283 -0.2150  0.3751 -0.2051
22188W        W39035   7.612   7.089   2.022  0.0307  0.1647 -0.0443
22189W        W39036   6.426  15.966  13.030 -0.0301  0.1729  0.4000
22190W        W39037   8.874   8.953   2.900  0.0913  0.1522 -0.0236
22191W        W39038  13.494  14.395   1.165  0.1217 -0.0231 -0.0052
22192W        W39039  10.602   0.209  13.684 -0.2375 -0.0042  0.0732
22193W        W39040  10.862   3.460  10.964 -0.0394  0.1844  0.2444
22194W        W39041   4.404  10.624  11.824 -0.1634  0.1088 -0.0764
22195W        W39042  13.568  17.236  13.979 -0.1794  0.1056 -0.2152
22196W        W39043  19.568  12.812   0.606  0.1049  0.1711 -0.2361
22197W        W39044   5.643   0.944   3.629  0.0939  0.1594  0.0335
22198W        W39045   3.431  11.724   2.617 -0.0824  0.1417  0.2197
22199W        W39046   6.910  18.376  10.491 -0.2151  0.0569  0.3555
22200W        W39047   8.422   7.167   3.034  0.1483  0.1718 -0.0452
22201W        W39048  13.825   1.917  12.140 -0.0092 -0.0234 -0.0201
22202W        W39049  18.542   9.011   0.122  0.1429 -0.2085 -0.0773
22203W        W39050  10.146  12.688   0.845 -0.1772  0.3228 -0.0233
22204W        W39051  14.419   7.565   0.362  0.2795  0.1237  0.0033
22205W        W39052   7.372  16.996  14.226 -0.3181 -0.0611 -0.0273
22206W        W39053   7.878   1.996  11.694 -0.1563  0.3353 -0.3163
22207W        W39054  10.836  18.844   0.771 -0.2065 -0.0682  0.1511
22208W        W39055  13.804  14.352   1.569  0.0221  0.2685  0.0546
22209W        W39056   2.547  19.779   0.210 -0.1130  0.0880  0.1797
22210W        W39057   3.889   5.093  11.706 -0.0883  0.1460 -0.0884
22211W        W39058   9.444  17.624  13.010 -0.1721  0.1734 -0.1051
22212W        W39059  12.446   7.292   4.457  0.1713 -0.2571 -0.1690
22213W        W39060  18.471  15.526  12.888  0.2128 -0.2177  0.2364
22214W        W39061   9.281  17.968   3.975  0.1915 -0.2929  0.0210
22215W        W39062  14.766  17.354  13.436  0.0857  0.1397 -0.0759
22216W        W39063  14.345   5.578  11.433 -0.1059  0.1326 -0.1421
22217W        W39064  10.874   5.831   4.675  0.3091  0.0308 -0.1369
22218W        W39065  18.558  14.073  11.790 -0.2230  0.3529  0.1270
22219W        W39066   4.517  16.665  10.569  0.1828  0.2722  0.0069
22220W        W39067   1.316  16.733   0.534  0.0518 -0.0745 -0.1205
22221W        W39068   9.508   8.989   0.442 -0.0311 -0.3690 -0.0620
22222W        W39069   6.176  13.612  13.995 -0.2568 -0.3130 -0.0752
22223W        W39070  11.067  19.263   9.600  0.1648 -0.3064 -0.3093
22224W        W39071  18.745  16.603   4.505  0.2167 -0.1928  0.0851
22225W        W39072   0.806  14.049   0.029  0.0928 -0.0628 -0.2149
22226W        W39073  11.669  13.497   1.621 -0.2998  0.5757  0.1878
22227W        W39074  13.146  11.806  10.699 -0.2474  0.0537 -0.1094
22228W        W39075  18.670  19.648   4.911 -0.1175  0.1851 -0.0626
22229W        W39076  14.265   0.529   4.521  0.1376  0.0257 -0.2391
22230W        W39077   3.968  12.400  10.121 -0.0729  0.0966  0.2182
22231W        W39078   8.321   6.980  11.482 -0.1223 -0.3696  0.1902
22232W        W39079   7.780  10.363   3.798 -0.0995  0.3654 -0.1373
22233W        W39080   6.881   1.352   2.387 -0.1411  0.1924  0.1973
22234W        W39081   1.036   7.565   5.560 -0.0384  0.0968  0.0056
22235W        W39082   3.739   2.979   2.557 -0.1952  0.2926 -0.0813
22236W        W39083  14.510   9.285   5.258 -0.3248 -0.0084  0.0734
22237W        W39084   1.146  12.213  12.974  0.2347  0.1893  0.1337
22238W        W39085  18.360  17.083  10.358  0.0302  0.3416 -0.0797
22239W        W39086  11.606   5.178  13.466 -0.0376  0.2769  0.5186
22240W        W39087   9.482   4.462   2.932  0.3549  0.1557  0.0603
22241W        W39088  10.761  13.019   5.052 -0.1319 -0.2175 -0.3640
22242W        W39089  16.593  18.505   1.366 -0.5020 -0.0116 -0.0127
22243W        W39090   4.333   6.851   2.561  0.4407 -0.1552 -0.0803
22244W        W39091   8.163  16.642  12.338  0.1401 -0.0496  0.1509
22245W        W39092  12.949   8.304  10.683 -0.2294 -0.1573  0.0426
22246W        W39093  17.506  12.788   9.993  0.1967  0.1408 -0.0227
22247W        W39094  13.513   6.976   0.254 -0.1463 -0.1255  0.0481
22248W        W39095   5.182   6.499   0.974  0.0601  0.1530  0.0163
22249W        W39096  13.245  12.305   3.994 -0.0559 -0.2772  0.0227
22250W        W39097   5.378   0.229   1.859 -0.0940 -0.0096 -0.2532
22251W        W39098  14.770   5.292   4.415  0.2821 -0.0955  0.1038
22252W        W39099  17.204   8.581   2.591 -0.0925  0.0899  0.0877
22253W        W39100  16.767  18.331  14.070 -0.2713  0.0622  0.0794
22254W        W39101  13.076   1.939   2.225 -0.0598 -0.2828  0.1745
22255W        W39102   5.342   1.337  10.227 -0.0393 -0.0057  0.2147
22256W        W39103  14.843  17.379   1.142 -0.2765 -0.2302  0.0993
22257W        W39104   2.645  15.119   0.403  0.2999  0.1759 -0.1253
22258W        W39105   4.649   6.772  10.362  0.2528 -0.2217 -0.1897
22259W        W39106   5.664  13.852   2.176 -0.0825  0.1356  0.0691
22260W        W39107  15.985   1.559   0.810 -0.0781  0.0065 -0.0473
22261W        W39108  10.100  10.313  12.020 -0.1207 -0.1233  0.1058
22262W        W39109  15.544  16.135   2.646  0.2810  0.3043  0.1549
22263W        W39110   6.405   3.874   0.339  0.1103 -0.0263 -0.1285
22264W        W39111  10.629   6.786  12.240  0.0221  0.1364 -0.1276
22265W        W39112  13.592   6.745   2.434  0.1051 -0.2593  0.0283
22266W        W39113  15.137   6.729  12.941 -0.3333  0.0689  0.3061
22267W        W39114   0.771  18.145  13.349  0.1898  0.0520 -0.2174
22268W        W39115  11.194   2.346  11.305 -0.2216  0.0107 -0.0409
22269W        W39116   0.269  19.653   1.114  0.0671 -0.2816 -0.1687
22270W        W39117   4.344  18.584   2.952 -0.1125  0.0322 -0.1124
22271W        W39118   6.672  12.676  12.491 -0.2852  0.1055  0.0234
22272W        W39119   7.873   6.236  13.531  0.0850  0.1742 -0.1393
22273W        W39120   0.784   6.307   2.515 -0.0576  0.0837  0.0966
22274W        W39121  16.134   6.813   3.834 -0.2069 -0.0725  0.2406
22275W        W39122   3.305  11.628   0.442 -0.2090 -0.1648  0.2999
22276W        W39123   8.888  10.603   4.378 -0.2046 -0.1432 -0.0546
22277W        W39124   4.249  17.816  12.669  0.2421  0.0098 -0.1760
22278W        W39125  12.811   0.198  10.595 -0.3178  0.1960  0.1516
22279W        W39126  11.758  10.743   1.491 -0.2128 -0.2750  0.2346
22280W        W39127   7.862   8.420   2.737  0.0993  0.2108 -0.0050
22281W        W39128   1.275   4.941   0.351  0.2045  0.1560 -0.2132
22282W        W39129   7.828   9.421  13.015  0.0387 -0.0406  0.2493
22283W        W39130   1.129  11.786   0.670 -0.1526 -0.1449 -0.4959
22284W        W39131  16.735  11.517   3.413 -0.2554 -0.3489  0.1662
22285W        W39132  15.931  19.667  11.372 -0.0614  0.0985  0.1863
22286W        W39133   1.131  19.562   0.246  0.4837 -0.0739  0.1410
22287W        W39134   7.890   1.132  10.245  0.0512 -0.1674 -0.1000
22288W        W39135  10.120  14.283   3.767 -0.4511 -0.0775  0.1336
22289W        W39136  11.332   9.716   9.302  0.0011  0.1186 -0.0336
22290W        W39137   9.672  11.942  13.653  0.0667  0.2802 -0.0594
22291W        W39138  18.948   8.688   3.987 -0.1656 -0.2098  0.2437
22292W        W39139  18.797  19.852  13.539 -0.1103 -0.1647 -0.0858
22293W        W39140   9.601   8.396  14.085 -0.1562  0.0477  0.1108
22294W        W39141  11.954   9.347   3.427 -0.1066  0.1880  0.1395
22295W        W39142  12.376  13.671  11.116  0.2341  0.2179  0.0445
22296W        W39143   0.152   3.213  13.888  0.0969 -0.1628 -0.1551
22297W        W39144  13.506   7.014   1.737 -0.1850  0.0565  0.0355
22298W        W39145   1.485  16.220   1.948  0.1946  0.1137 -0.1271
22299W        W39146   0.418   4.182   2.542 -0.0947 -0.1532  0.2909
22300W        W39147   0.272  17.919   8.808 -0.0970 -0.2201  0.1703
22301W        W39148  11.392  19.496   0.318 -0.2027  0.1862 -0.0386
22302W        W39149  15.648  15.792  13.420  0.1564  0.1563 -0.0043
22303W        W39150  13.402  14.056   3.406  0.0828  0.0953  0.2187
22304W        W39151   8.205  19.811  13.428  0.3051  0.2178 -0.1666
22305W        W39152  19.077   3.717   4.820 -0.0660 -0.0172 -0.1634
22306W        W39153  16.874  18.644   4.476 -0.2332 -0.1161  0.1530
22307W        W39154  10.170  12.251   5.100 -0.0838 -0.2716 -0.2374
22308W        W39155  12.445   7.640   4.838 -0.0135 -0.0240  0.0728
22309W        W39156   1.809   7.156   1.555 -0.0228  0.0996 -0.2405
22310W        W39157  15.754   8.741   1.669  0.4646 -0.0646 -0.0372
22311W        W39158   5.068  19.653  11.687  0.0640 -0.1374  0.2537
22312W        W39159   2.625   2.415   1.191  0.2366 -0.0565  0.0181
22313W        W39160   8.589   9.545   1.045 -0.2316 -0.2103 -0.0122
22314W        W39161   4.414  18.197   9.731  0.1046 -0.1660  0.2369
22315W        W39162  13.694   1.786  11.108  0.0451 -0.0893 -0.0123
22316W        W39163  15.799  19.731   4.398 -0.3586  0.0456 -0.0560
22317W        W39164   2.840  18.801  10.068 -0.1996  0.1655 -0.0029
22318W        W39165   5.617   7.417  10.493 -0.3587 -0.0033 -0.1740
22319W        W39166   2.402   0.556   1.248  0.0599  0.1018 -0.0182
22320W        W39167   4.436  13.721  12.428  0.1938 -0.4685  0.0874
22321W        W39168  12.298   7.867  11.810 -0.2729 -0.0088  0.2432
22322W        W39169   0.783   5.336   4.009 -0.0133 -0.0942  0.0599
22323W        W39170  11.191  11.119   9.342  0.1374 -0.0716 -0.0252
22324W        W39171  11.976   2.831   4.031  0.1835  0.1242 -0.2144
22325W        W39172  17.200  15.477  11.792  0.0334 -0.0753  0.4648
22326W        W39173  15.714   5.133   3.429  0.1334 -0.1959 -0.1304
22327W        W39174  14.120   5.875  13.176 -0.2379  0.2095 -0.0591
22328W        W39175   1.489   2.546  12.242  0.3098  0.0026 -0.0393
22329W        W39176  12.296  11.819  11.600  0.2719  0.1908  0.0528
22330W        W39177   5.584   8.488  12.483 -0.1328  0.1473  0.2729
22331W        W39178  13.675  10.638  11.422  0.2373  0.2804  0.2294
22332W        W39179   1.649   9.230   3.762 -0.2756 -0.0810  0.1299
22333W        W39180   2.716  10.872  13.755 -0.1505 -0.1145  0.1968
22334W        W39181   3.176   6.572  10.284 -0.5135  0.1105 -0.2104
22335W        W39182   8.138  19.395  10.970 -0.0345  0.0572  0.1344
22336W        W39183   0.296  10.468   0.002  0.1591 -0.0066  0.1631
22337W        W39184  19.238  17.590   0.350  0.4014 -0.1172  0.0530
22338W        W39185   2.263  18.996  13.462 -0.0513  0.2300 -0.0521
22339W        W39186  19.544  12.762  13.814  0.0431  0.0536  0.2813
22340W        W39187  11.794  11.790   2.886  0.2500 -0.1536  0.0685
22341W        W39188   4.339   6.020   9.960 -0.0332  0.4420  0.2340
22342W        W39189   7.212   2.800  11.947 -0.3349  0.0561 -0.1010
22343W        W39190   5.743  11.290   8.885  0.1168 -0.1140  0.2761
22344W        W39191   4.580   4.927   3.637 -0.1366  0.1290 -0.0881
22345W        W39192  19.067  11.679  10.950 -0.3447 -0.1420  0.3210
22346W        W39193  18.792  19.765   2.624  0.0444  0.3828  0.4289
22347W        W39194  14.107  17.744   1.678  0.2258 -0.1005  0.1635
22348W        W39195   7.731   5.120   1.112 -0.0018  0.0238  0.0393
22349W        W39196  16.352   5.215  12.973 -0.2656  0.1164  0.0376
22350W        W39197  10.812   7.526  12.825 -0.0335 -0.2328  0.1561
22351W        W39198  18.899  10.974   2.513 -0.1687  0.1293 -0.0238
22352W        W39199  12.607  15.486  10.553  0.2039  0.0274  0.1268
22353W        W39200   0.211  13.278   3.074  0.0618  0.0569  0.1738
22354W        W39201   9.935   2.392  12.727  0.1042 -0.3833 -0.2884
22355W        W39202   8.253   8.097   2.598  0.0590  0.1847  0.1449
22356W        W39203  10.053   2.236   3.174  0.3926 -0.1072 -0.0636
22357W        W39204  12.508   4.685  12.732 -0.0533  0.0370 -0.2774
22358W        W39205   8.192  14.207  12.213 -0.0691  0.1895 -0.1929
22359W        W39206   3.759  10.981  13.785 -0.2801 -0.0007 -0.3327
22360W        W39207  11.903   0.075  10.328 -0.1795 -0.1238  0.0263
22361W        W39208   8.752  12.661  12.859 -0.2111 -0.0295  0.0131
22362W        W39209   6.277  12.003   1.373 -0.1142 -0.1331  0.0937
22363W        W39210   3.940  19.169  12.003 -0.0001 -0.1757  0.0151
22364W        W39211  14.120   1.597  11.849 -0.0216 -0.3599 -0.0506
22365W        W39212  10.653  18.500   1.053  0.2843  0.1666  0.1108
22366W        W39213   3.760   1.424  11.972 -0.1592  0.2234  0.3457
22367W        W39214  18.967  12.562  11.634 -0.1765 -0.3083  0.3694
22368W        W39215   5.820   5.880   0.939 -0.2527  0.0095 -0.0998
22369W        W39216   9.526  14.907  10.437 -0.1296  0.3426 -0.3093
22370W        W39217  15.691  13.317   0.571  0.0345 -0.1023 -0.1929
22371W        W39218   8.164   3.256  14.256  0.1881 -0.2244 -0.1686
22372W        W39219   3.476  17.269   1.889  0.1858 -0.3435  0.0819
22373W        W39220   1.093   7.271   4.742 -0.3168  0.1623  0.3095
22374W        W39221  17.220   4.876   5.363  0.1608 -0.0236 -0.0770
22375W        W39222   6.453  15.678  12.657 -0.1880  0.0737 -0.3390
22376W        W39223   1.919  15.577  10.341  0.3741 -0.0667 -0.0724
22377W        W39224  17.166   3.448   1.004  0.3530  0.2175 -0.0976
22378W        W39225   1.329   4.590   3.906  0.2528 -0.1464 -0.0312
22379W        W39226   6.416  16.186  10.394  0.0681 -0.0358  0.0073
22380W        W39227   3.907  12.652  11.222  0.3259 -0.0242  0.1504
22381W        W39228   8.644  11.870   3.229  0.1026 -0.0165 -0.0139
22382W        W39229  19.786  10.644   3.310 -0.2260  0.1328  0.1215
22383W        W39230  11.033   0.130   2.089  0.0605 -0.3480 -0.0892
22384W        W39231   8.071   2.886  13.757  0.0648 -0.2160 -0.4209
22385W        W39232  19.040  18.521   3.670 -0.3459  0.0459 -0.0968
22386W        W39233   7.195  11.545   3.121 -0.0200  0.1178  0.3000
22387W        W39234  16.635   4.295   1.116  0.0809  0.0275  0.1618
22388W        W39235  14.335   6.571   2.128  0.0193  0.0657 -0.3569
22389W        W39236   6.283  14.755   2.924  0.1030  0.0601  0.0542
22390W        W39237   9.613   2.003   0.774 -0.3198 -0.3875  0.0610
22391W        W39238  15.679   4.137   1.903  0.1310 -0.1751 -0.0316
22392W        W39239  15.786   2.059  13.223  0.0229  0.1081  0.0031
22393W        W39240  15.393   6.334  13.726  0.0280  0.0329  0.1295
22394W        W39241  11.748   3.658   3.520  0.0839  0.2088 -0.1670
22395W        W39242   2.478   3.639   2.731 -0.0329 -0.0989  0.1894
22396W        W39243  13.045  15.950   4.816  0.0712 -0.1390  0.0626
22397W        W39244  10.522  10.399   2.465  0.3322  0.1433  0.0529
22398W        W39245  14.361  14.085   5.002 -0.1325  0.0475  0.2153
22399W        W39246  12.197  19.676   0.517 -0.1258  0.0460  0.1498
22400W        W39247  11.004   6.678  11.929 -0.0548  0.1534 -0.4853
22401W        W39248   5.958  19.870   0.838 -0.1577 -0.0887  0.3045
22402W        W39249   4.598  15.321   1.065 -0.0654  0.0653 -0.0856
22403W        W39250   2.025   2.132   4.339  0.1744  0.1570 -0.3251
22404W        W39251   0.294  16.609  13.248 -0.1040  0.0312 -0.0593
22405W        W39252  12.316  13.467   2.310 -0.0153 -0.0628 -0.2241
22406W        W39253  15.685   5.735   9.216  0.1308  0.2307 -0.2613
22407W        W39254   8.258  15.154  13.644  0.2601  0.0125 -0.0890
22408W        W39255   4.698  11.474  13.133  0.0887 -0.2042 -0.1567
22409W        W39256  16.707  19.660  10.574  0.0927 -0.0713  0.0986
22410W        W39257  16.605  13.049   2.344 -0.1944 -0.0357  0.0724
22411W        W39258   8.693  10.908   0.756 -0.4250  0.2648  0.0108
22412W        W39259  12.113  13.654  13.288 -0.1618 -0.1123 -0.1881
22413W        W39260  13.097  17.614   3.091  0.1025  0.0052 -0.1135
22414W        W39261   5.255  16.702  11.148 -0.0689  0.2588 -0.1046
22415W        W39262  18.927  18.153  10.779 -0.3608  0.0855 -0.1929
22416W        W39263  13.229  12.085  14.095  0.2088 -0.0756 -0.3430
22417W        W39264  12.895   7.659   1.594  0.2597  0.1052 -0.0279
22418W        W39265   9.907   1.628  12.024  0.0926  0.2750  0.1508
22419W        W39266  13.362   2.323   1.937  0.0422  0.2534  0.3554
22420W        W39267   7.280   8.418  10.704  0.2513 -0.1166 -0.2595
22421W        W39268   4.446   0.174  14.121 -0.1053  0.2850  0.1633
22422W        W39269   9.067   4.664   2.591  0.0442 -0.0503  0.0361
22423W        W39270   8.966  14.876   5.116  0.0008 -0.2376  0.3372
22424W        W39271  15.270   0.438   2.124 -0.0160  0.1762  0.0046
22425W        W39272  11.762   2.486  12.879 -0.0648 -0.0633 -0.0260
22426W        W39273  18.766   1.177  11.927 -0.1168  0.3809  0.0690
22427W        W39274  11.747   3.198  10.000 -0.1907 -0.2006  0.1537
22428W        W39275   9.564  14.020   3.170  0.2465  0.0509  0.1121
22429W        W39276   6.640   3.946   3.926 -0.0108  0.0597  0.1098
22430W        W39277   5.378  13.015   2.723 -0.4418 -0.2635 -0.2584
22431W        W39278  18.886  16.981  12.430 -0.2390 -0.1976  0.1455
22432W        W39279  14.058   0.148   9.711  0.0291 -0.2346  0.2714
22433W        W39280   0.580   7.839   1.617  0.5513  0.1809 -0.2503
22434W        W39281  12.371  18.717  13.881  0.1751 -0.1896 -0.1970
22435W        W39282  10.368  14.808  12.142  0.1517  0.1131 -0.0875
22436W        W39283   4.870  14.735   3.886  0.3694  0.2233 -0.0576
22437W        W39284  10.208  13.754  13.018 -0.1576  0.0637  0.2570
22438W        W39285   7.895   5.789  14.034  0.0239  0.5945  0.2093
22439W        W39286   7.173  10.718   3.066 -0.0133 -0.2121  0.2983
22440W        W39287  11.129   0.066  10.034 -0.1481 -0.2195 -0.2235
22441W        W39288  17.769   8.320   3.037  0.0737  0.3339 -0.2013
22442W        W39289   1.067  10.088   4.558  0.2399  0.4874  0.1910
22443W        W39290  12.253  15.398  11.994 -0.0022  0.0241  0.0241
22444W        W39291  16.891   4.394  10.467  0.0464 -0.0983  0.4263
22445W        W39292   1.578  13.503  11.715 -0.4600 -0.1169 -0.2311
22446W        W39293  16.857   7.974   1.240  0.1378  0.1706  0.0228
22447W        W39294  10.747  10.384   0.149  0.0770  0.1894  0.0812
22448W        W39295  17.092   6.615   2.769  0.1310 -0.2100 -0.1079
22449W        W39296   9.072   6.116   3.561  0.3300  0.1158  0.1197
22450W        W39297   8.779   5.320   1.310  0.3653 -0.5215  0.3912
22451W        W39298   2.211  12.732  11.738 -0.2907  0.3254  0.3488
22452W        W39299  17.478   1.148   5.609 -0.0253 -0.1534  0.0213
22453W        W39300   1.039   1.843  11.319  0.1531 -0.2114  0.0581
22454W        W39301  16.322  15.610   3.257 -0.0909  0.0307  0.0575
22455W        W39302   8.067   4.504  12.525  0.0760  0.1227 -0.0701
22456W        W39303  17.020   1.708  12.075 -0.2932  0.2254 -0.0885
22457W        W39304   7.783   0.772   4.606 -0.5076  0.0430  0.4912
22458W        W39305  17.864   6.675   3.516  0.0730 -0.2590  0.0966
22459W        W39306  10.911  14.808  10.374  0.1414  0.1691  0.1417
22460W        W39307   7.963   9.646  11.716 -0.3732 -0.2124  0.0702
22461W        W39308  10.139   0.094  10.857  0.1594 -0.0096  0.0914
22462W        W39309  19.555  15.594   1.354  0.0082  0.0401 -0.2128
22463W        W39310  10.382  18.501   1.521  0.2432  0.2001 -0.0725
22464W        W39311   4.182  14.794  11.218 -0.0571 -0.2658 -0.1849
22465W        W39312  17.934   0.337   5.042 -0.3770  0.1630 -0.1099
22466W        W39313   9.809  12.978  13.533 -0.1353  0.1201 -0.0498
22467W        W39314   3.177  16.202  12.842 -0.0861  0.0445 -0.2018
22468W        W39315  17.838  15.146  10.476  0.1351 -0.3011 -0.0250
22469W        W39316   1.480   3.444   3.678 -0.2783 -0.2091 -0.0686
22470W        W39317   8.231   2.760   3.614 -0.1565  0.1605 -0.3020
22471W        W39318  12.633  17.083  12.715 -0.1442  0.0581 -0.3337
22472W        W39319  19.024   1.448  12.978 -0.0507 -0.0777  0.0522
22473W        W39320  14.748   5.350  10.604  0.1595 -0.2560  0.1812
22474W        W39321   3.643   5.094   0.671  0.2891 -0.1708 -0.0058
22475W        W39322   9.490   1.050   1.707 -0.1319  0.2598 -0.2878
22476W        W39323   5.213  13.751  12.943  0.2256 -0.0536 -0.0699
22477W        W39324   6.053   7.970   4.989  0.2880  0.0605  0.2525
22478W        W39325   5.373   1.364   3.706  0.2438 -0.0341 -0.0519
22479W        W39326   0.118  14.903   4.118 -0.0857  0.0190  0.1659
22480W        W39327   6.066   8.874  13.179  0.2144  0.2960 -0.0239
22481W        W39328  13.950   8.900   3.598  0.0723  0.0795  0.0411
22482W        W39329   5.904  16.643  13.837  0.1594 -0.1515 -0.0425
22483W        W39330   8.977  18.767  14.178 -0.0336  0.0729 -0.2064
22484W        W39331  16.909   7.423   4.121  0.0252  0.1790  0.0254
22485W        W39332  17.087  16.589  13.046  0.3046 -0.2245 -0.1510
22486W        W39333  13.582  18.552   1.292 -0.1311  0.0718  0.1029
22487W        W39334   1.999   5.040   0.786 -0.2944 -0.1305  0.0684
22488W        W39335   3.434  19.299  11.962 -0.2479  0.0773 -0.0247
22489W        W39336  16.667   3.777   2.391 -0.0273 -0.1124 -0.1046
22490W        W39337   1.771  18.153  10.901  0.2417 -0.0812 -0.2400
22491W        W39338   5.767   6.869   5.221  0.0790 -0.3361  0.2315
22492W        W39339  12.420  10.596  10.084  0.1030  0.0641 -0.4574
22493W        W39340   3.824   9.627  13.962 -0.2320  0.0056  0.1112
22494W        W39341  18.494   4.239  10.862  0.5419 -0.1455 -0.0372
22495W        W39342  14.571  15.383   1.170 -0.1631 -0.2076  0.4038
22496W        W39343   7.734  12.098   0.145 -0.1028  0.1664 -0.3888
22497W        W39344  11.271  11.847  12.962  0.0540 -0.1413 -0.1040
22498W        W39345   9.961  16.216  12.293  0.1105 -0.1911  0.1080
22499W        W39346  11.280   1.084  13.751 -0.0395 -0.0124  0.0261
22500W        W39347  16.571  10.846   0.737  0.1469  0.0577  0.3045
22501W        W39348  15.833  19.230   0.386  0.1847  0.1299  0.0350
22502W        W39349  17.471  14.881  12.184  0.1055  0.2492  0.0911
22503W        W39350  11.252   7.255   5.038  0.0185 -0.1204  0.2717
22504W        W39351  19.157   4.382   5.426  0.3705 -0.2507  0.0595
22505W        W39352   9.845  13.290   2.793 -0.0688 -0.2084  0.4433
22506W        W39353  17.480   9.876  12.993 -0.0865  0.1546  0.1044
22507W        W39354  16.633  12.858  13.538 -0.0069  0.3344 -0.2751
22508W        W39355  14.136  11.030  14.113 -0.0433  0.1009  0.2774
22509W        W39356  11.063  10.519   5.410 -0.0499 -0.0368 -0.3697
22510W        W39357   4.552   2.722   4.530  0.0713 -0.0385 -0.2460
22511W        W39358   5.538  11.084  11.550  0.0087  0.4629 -0.2481
22512W        W39359   9.419   3.119   4.804 -0.2243 -0.0689 -0.2137
22513W        W39360   7.749  19.309  13.511  0.1189  0.2831  0.2166
22514W        W39361   0.814  17.226   1.783 -0.0009  0.0121 -0.2168
22515W        W39362  18.440  12.827   3.060  0.0529  0.2461 -0.0779
22516W        W39363  19.865   9.298   4.390 -0.2910 -0.2832 -0.2539
22517W        W39364   7.409   7.152  12.187  0.0362 -0.0901 -0.4249
22518W        W39365   6.076   4.675  10.555  0.2788 -0.1803 -0.2425
22519W        W39366  19.534   0.816  13.691 -0.3254  0.0405 -0.2490
22520W        W39367   6.613  11.956  11.415 -0.2615  0.0153 -0.0925
22521W        W39368   6.285   2.533   3.575 -0.1594  0.2648 -0.0543
22522W        W39369  13.922   3.609  12.461 -0.2788  0.1292 -0.1365
22523W        W39370   0.027   3.586   9.889  0.1841  0.1663  0.1346
22524W        W39371  13.984  13.638   1.281 -0.1323  0.3771  0.1109
22525W        W39372  13.210  14.325  11.258 -0.1233 -0.3177 -0.1241
22526W        W39373  17.312  17.907   3.617  0.0400 -0.1649 -0.0560
22527W        W39374  11.838  12.479   3.694  0.0293 -0.2556 -0.0048
22528W        W39375  13.877   5.169   5.605 -0.2862  0.1629  0.3741
22529W        W39376   1.991   7.853   0.642  0.0749  0.1607 -0.3326
22530W        W39377  19.584   7.523  14.263 -0.2319 -0.1988  0.0694
22531W        W39378  14.818  10.178   2.188 -0.0158  0.3125 -0.0690
22532W        W39379  18.551   4.507  10.384 -0.2184  0.1536 -0.0178
22533W        W39380  18.745  10.473  12.510 -0.0997  0.0026 -0.0835
22534W        W39381   1.683   6.460  11.584 -0.1572 -0.1968 -0.0382
22535W        W39382   2.231  12.854   1.162  0.1377  0.2256  0.0419
22536W        W39383  17.353  16.393  14.288  0.1750 -0.2189 -0.1564
22537W        W39384  15.236  14.633  10.260 -0.0247 -0.1954 -0.0767
22538W        W39385  18.147  13.516   3.779 -0.0551 -0.1462  0.1151
22539W        W39386  17.871   7.470  10.639  0.0721  0.0839 -0.4146
22540W        W39387  10.175   4.816   3.547  0.1668  0.0913 -0.2498
22541W        W39388  14.972  12.909  12.593 -0.0877  0.0285  0.0476
22542W        W39389  14.739  14.828  10.366 -0.0922 -0.2405  0.0776
22543W        W39390   3.051   8.788   3.163 -0.0092 -0.2742 -0.1834
22544W        W39391   9.636  19.567   2.226  0.0051 -0.1897  0.3187
22545W        W39392  15.885   1.944  10.529  0.0107  0.0010 -0.1329
22546W        W39393   2.491   8.678  13.369  0.0133 -0.2420  0.2121
22547W        W39394   6.756   5.931   2.165 -0.1596  0.1501 -0.0137
22548W        W39395   3.169   3.623   0.594  0.0701  0.0207 -0.1159
22549W        W39396  19.663  16.663  14.008 -0.1933  0.1160  0.4541
22550W        W39397   1.437  16.167  10.971 -0.0816 -0.1020 -0.0116
22551W        W39398  16.296   3.969  13.972  0.0344  0.0315  0.0954
22552W        W39399   4.465   7.205   3.593  0.0829  0.0509 -0.0087
22553W        W39400  10.575   5.424  11.840 -0.1706  0.0739  0.0166
22554W        W39401   8.795   3.271  13.124 -0.0603 -0.1002 -0.1504
22555W        W39402  13.335  17.263   3.258  0.1520  0.2694 -0.1411
22556W        W39403  16.580  10.536   0.289  0.1303 -0.0805  0.1627
22557W        W39404   8.783  18.863  11.271 -0.2193  0.3065 -0.0155
22558W        W39405   9.025  19.659   3.309 -0.3368 -0.0625  0.3014
22559W        W39406   1.976   9.679  10.142 -0.0782 -0.2077 -0.0266
22560W        W39407  11.092   4.343   9.709  0.3103  0.1969  0.1482
22561W        W39408  12.244  19.532   4.462  0.2252 -0.0436  0.2729
22562W        W39409   8.075  10.641   1.503  0.1474  0.2135  0.2793
22563W        W39410  13.280   9.736   3.580  0.2494  0.0265 -0.1188
22564W        W39411   0.022   8.079  11.582  0.0758 -0.0814 -0.0486
22565W        W39412   1.666   0.654  13.603  0.1426  0.0811 -0.2968
22566W        W39413  18.339  12.518  10.802 -0.1437 -0.0154  0.2547
22567W        W39414   8.245   7.864   0.343  0.2965 -0.0376  0.0709
22568W        W39415   3.895  16.665   0.889 -0.0301 -0.0661 -0.1275
22569W        W39416  14.264   5.328   0.081 -0.1393  0.3993 -0.2091
22570W        W39417  13.085   5.394   2.218  0.0832  0.1731  0.1995
22571W        W39418   4.473   8.754  14.012  0.0875 -0.3790  0.2875
22572W        W39419  14.542   8.660  13.114  0.3161  0.0447 -0.3831
22573W        W39420  12.473   8.863   0.810 -0.1405 -0.0097 -0.0553
22574W        W39421  16.353   3.073  10.575 -0.1743 -0.0349 -0.0259
22575W        W39422   9.507  10.978  13.224  0.0835  0.3994  0.0080
22576W        W39423  13.762   1.692   2.891 -0.1435 -0.4634 -0.2098
22577W        W39424  16.365  19.586  11.831 -0.3169  0.0189 -0.1413
22578W        W39425   5.138  10.303   1.868 -0.6031  0.0458  0.2425
22579W        W39426   7.254  14.471   1.229  0.0326  0.1820  0.1205
22580W        W39427   3.706   7.448  13.055  0.1840  0.0027 -0.1655
22581W        W39428   6.282   4.563   4.850 -0.0272  0.1777 -0.2152
22582W        W39429   5.772   0.245   3.008 -0.1973  0.1991  0.1089
22583W        W39430   3.098   0.367   1.581  0.0701 -0.2019 -0.0083
22584W        W39431   6.591  14.671  12.440 -0.1617  0.3041  0.1270
22585W        W39432  13.353  16.756   3.840  0.0317  0.1688  0.1141
22586W        W39433   4.217   6.489  14.138 -0.2222  0.1212 -0.1657
22587W        W39434  10.318  18.930   4.310 -0.1545 -0.1787 -0.3736
22588W        W39435   1.745   7.486   4.113  0.1727  0.4715  0.1102
22589W        W39436   7.324   4.631   0.500  0.2706  0.0655 -0.2289
22590W        W39437  14.003  14.786  11.159  0.3225 -0.2268  0.0178
22591W        W39438  14.744  14.481  10.721 -0.0479 -0.3063  0.0417
22592W        W39439   0.731  15.650  11.468  0.0968  0.0088 -0.1836
22593W        W39440  16.376  19.203   5.179 -0.1484 -0.0547  0.1903
22594W        W39441  14.876   9.612  12.152  0.0078  0.0161 -0.2757
22595W        W39442  18.653  14.630   1.920 -0.1929 -0.1766  0.0058
22596W        W39443  12.946   0.967  13.257 -0.2445 -0.5373  0.1607
22597W        W39444   9.578   0.624   1.994 -0.1050 -0.0414  0.0559
22598W        W39445   7.415   0.053   4.746  0.2425  0.0689 -0.3532
22599W        W39446  11.566  15.020  13.187 -0.0674  0.0848  0.4017
22600W        W39447  15.660   7.901   4.410 -0.2141 -0.1780 -0.0013
22601W        W39448   7.253  13.619   1.168  0.3078  0.0919  0.1879
22602W        W39449   2.775  16.556   1.107 -0.0461 -0.0201  0.1377
22603W        W39450   3.063  13.979   8.571 -0.1469 -0.0018 -0.0848
22604W        W39451   5.800  18.375   0.639  0.0960 -0.1683  0.2512
22605W        W39452  16.721   8.378   1.708  0.0658 -0.0391 -0.4487
22606W        W39453   7.782  14.032   3.644  0.1683  0.0122  0.1378
22607W        W39454   2.240  13.586   4.624  0.2245 -0.1656  0.2832
22608W        W39455  17.792  10.406   1.527  0.0356  0.1277  0.2364
22609W        W39456   1.965   4.908  13.841  0.0426  0.1426 -0.1822
22610W        W39457   8.813   3.094  10.201 -0.1518 -0.2335 -0.1767
22611W        W39458   4.997   4.664   1.236  0.2368 -0.1793  0.3285
22612W        W39459  18.281  14.614  14.055  0.1407 -0.1851  0.1726
22613W        W39460   4.716  15.613   9.338 -0.4600  0.0670 -0.1507
22614W        W39461  11.141   2.482   4.148 -0.0122  0.0823  0.0218
22615W        W39462   8.153   0.027  14.254  0.0830  0.0734 -0.1362
22616W        W39463   7.774   7.315   9.981  0.1566  0.1670 -0.2801
22617W        W39464  17.131  19.420   3.122  0.2373 -0.2068  0.0172
22618W        W39465   0.521  15.958   0.582 -0.0745  0.3353 -0.0161
22619W        W39466   2.063   5.796   4.627 -0.0408 -0.0572  0.3526
22620W        W39467   1.056  14.097   2.244 -0.2543  0.2057 -0.1074
22621W        W39468   8.134   2.239   1.508 -0.0570  0.1598  0.0829
22622W        W39469  12.790   7.044   3.232  0.1087 -0.0027 -0.1323
22623W        W39470   8.323  10.299   2.889  0.0701 -0.0087  0.1920
22624W        W39471  17.353  12.851  11.051 -0.2139  0.2447  0.0484
22625W        W39472  12.054   7.698   9.612 -0.0601 -0.1006  0.1100
22626W        W39473  17.027  12.709   0.654 -0.1249 -0.0450  0.4739
22627W        W39474   5.956  19.370  11.274  0.3497  0.0629 -0.1605
22628W        W39475   5.852   6.087  10.144  0.0153  0.0319 -0.1717
22629W        W39476   1.963   0.020   9.597  0.2704 -0.0467  0.3357
22630W        W39477   9.272   0.277  13.526  0.1517 -0.0818  0.0684
22631W        W39478  19.202  18.567   2.994  0.1932  0.2319 -0.1721
22632W        W39479   9.447  13.792   1.375  0.0972  0.2576 -0.2625
22633W        W39480   8.160  14.718   0.368  0.2533 -0.1497 -0.0343
22634W        W39481   8.545   5.398   3.727  0.1954 -0.3688  0.3251
22635W        W39482  15.567   8.374   3.101 -0.0236  0.1256 -0.2392
22636W        W39483  19.202  17.129  14.221  0.1138 -0.0632  0.1080
22637W        W39484   2.516  14.526   2.099 -0.1557  0.1986  0.1132
22638W        W39485   3.736   7.747  12.441 -0.1960  0.0800 -0.1401
22639W        W39486   2.820   6.625   0.489  0.0347 -0.0138 -0.1378
22640W        W39487   2.791  11.400   3.336 -0.0302 -0.2403 -0.0554
22641W        W39488   5.576  17.776   2.056  0.0194  0.1619  0.1530
22642W        W39489   6.407  16.830   9.584  0.2446  0.0321 -0.3771
22643W        W39490  12.182  17.959  10.145  0.2218  0.1862 -0.1479
22644W        W39491   2.443   5.204  13.392  0.0328  0.0867 -0.1157
22645W        W39492  14.125   7.844   5.079 -0.2123  0.2044  0.3703
22646W        W39493  18.293  14.988  13.689 -0.1545  0.0224 -0.1104
22647W        W39494   4.635   7.887  13.307  0.1803 -0.1407 -0.1422
22648W        W39495  19.543  12.166  10.371 -0.0721 -0.1123  0.2609
22649W        W39496   9.902   1.512   2.433 -0.0658  0.2493  0.4480
22650W        W39497   5.204  12.697  12.985 -0.2289  0.2314 -0.1867
22651W        W39498   5.762   1.791  10.905  0.0791  0.1056 -0.0799
22652W        W39499  11.667   9.500   0.705  0.0252  0.0859 -0.1981
22653W        W39500   9.494  19.733  11.407  0.2371  0.2591 -0.1308
22654W        W39501  19.916   5.500  11.768 -0.2007 -0.1345 -0.0404
22655W        W39502  14.307   1.887   2.461  0.0148 -0.2354  0.2784
22656W        W39503   1.031   4.366  12.722  0.0440 -0.1153  0.1753
22657W        W39504  10.937   6.266  12.868 -0.2131 -0.1886 -0.4012
22658W        W39505  14.406  10.511   2.700 -0.2889  0.0844 -0.2149
22659W        W39506   8.549  10.232  13.720  0.2822  0.0976 -0.3136
22660W        W39507   0.311  10.019  12.978  0.3225 -0.0832  0.2318
22661W        W39508   6.972   4.712   3.454 -0.0932 -0.2893  0.1972
22662W        W39509  17.087   3.874  13.100  0.0839 -0.0555  0.0761
22663W        W39510   6.498   1.913  13.538  0.0701  0.2590 -0.3712
22664W        W39511   0.606   7.373  11.934  0.1041 -0.2244  0.2529
22665W        W39512   6.451  14.314   0.634  0.1004 -0.2278 -0.1210
22666W        W39513   2.755  16.260   0.290 -0.3225  0.1191 -0.2522
22667W        W39514  15.935   3.605   4.473 -0.1999 -0.0324 -0.0094
22668W        W39515   7.158   8.512  12.377  0.2719  0.3739 -0.0610
22669W        W39516   9.740   9.609  11.227  0.1261 -0.4663  0.0095
22670W        W39517   8.059   1.841   4.535 -0.0810  0.4003 -0.1103
22671W        W39518   8.401  19.800   0.798 -0.1941 -0.0549  0.0619
22672W        W39519   3.377   6.322  11.874 -0.3512 -0.0728 -0.1470
22673W        W39520   7.544  11.234  13.341 -0.0284 -0.0535  0.1579
22674W        W39521   8.392   7.503   5.315 -0.2462 -0.1944 -0.0282
22675W        W39522  16.183   3.373   0.339  0.1961 -0.1232 -0.0073
22676W        W39523  14.567  12.261   0.883  0.0312  0.0619 -0.2238
22677W        W39524   9.215   6.387  10.614  0.0453 -0.1953  0.1259
22678W        W39525  18.202  12.063   2.296 -0.1340  0.0335  0.1418
22679W        W39526   4.097  12.626  11.719 -0.2605 -0.0157 -0.1048
22680W        W39527   3.325   3.642  13.146 -0.3033  0.1196 -0.2287
22681W        W39528  18.107   0.909   9.825 -0.0528  0.1178 -0.2615
22682W        W39529   0.721  17.848  12.837  0.0544 -0.1247  0.1431
22683W        W39530   8.598   3.903  11.866 -0.3668  0.1707 -0.0552
22684W        W39531  13.043  14.380   0.931 -0.0329  0.3792  0.2184
22685W        W39532  18.384   9.073   0.663 -0.1642 -0.0092  0.3275
22686W        W39533   7.413  15.971   1.755  0.1812 -0.1764 -0.0157
22687W        W39534  11.497   6.396   4.748 -0.3067 -0.0893  0.0124
22688W        W39535  13.912   5.170   0.609  0.2972 -0.0602  0.0147
22689W        W39536  19.285   4.604  12.904 -0.1359 -0.1598  0.2305
22690W        W39537   8.470   9.760  12.389  0.1842  0.1974 -0.1414
22691W        W39538  14.342   7.186   0.793 -0.1435 -0.2255  0.2200
22692W        W39539  15.616   4.679   0.145 -0.0289  0.1064 -0.0994
22693W        W39540  14.380   0.059   1.392  0.0057  0.2484 -0.0741
22694W        W39541  16.810  17.797   3.729  0.1521  0.0942  0.1639
22695W        W39542  11.944   4.731  11.303 -0.3328  0.2612  0.1630
22696W        W39543   1.441   1.960   9.935  0.1236 -0.1517  0.4242
22697W        W39544   5.357   3.409   5.091  0.0817  0.1225  0.4466
22698W        W39545  17.355  15.916   2.640  0.4676  0.1219  0.3194
22699W        W39546  16.179   9.721  13.346  0.1440  0.1342  0.1713
22700W        W39547   2.444  18.670  10.361 -0.0616 -0.1007  0.1424
22701W        W39548  15.814   2.483  10.410  0.0016 -0.1719 -0.0193
22702W        W39549  15.039   3.545  11.461  0.0364 -0.1590 -0.0565
22703W        W39550   5.803  10.587   4.384  0.0136  0.1200 -0.2891
22704W        W39551   1.932   5.358   4.281  0.1072  0.0244 -0.2610
22705W        W39552   6.060   5.955   0.435  0.1206  0.0051  0.2145
22706W        W39553   0.474   5.138  11.520 -0.0104 -0.1454  0.1712
22707W        W39554   0.987   0.878   5.239  0.3568  0.0473 -0.2023
22708W        W39555   8.993   2.354   0.138  0.4056  0.0675  0.0450
22709W        W39556   5.387  12.982   5.047  0.1027 -0.2782 -0.1985
22710W        W39557  18.260  11.752  11.333  0.0919 -0.2872 -0.1656
22711W        W39558  13.947   8.200  11.740  0.0415  0.0254 -0.1578
22712W        W39559   7.097  18.256   9.754 -0.1484  0.0912  0.0186
22713W        W39560   8.009  13.086   1.225 -0.0102  0.0961  0.1718
22714W        W39561   0.251   2.340  14.304 -0.0803  0.0970 -0.0545
22715W        W39562   5.508   1.856   3.151 -0.4980 -0.0166  0.3679
22716W        W39563  16.794  16.931  14.081  0.2474  0.2532  0.2719
22717W        W39564  15.455  14.663   9.844  0.0026 -0.0501 -0.2863
22718W        W39565   3.138  11.656  11.618  0.0307  0.1267 -0.0726
22719W        W39566   4.630  12.910   2.348 -0.3573  0.2941 -0.4039
22720W        W39567   0.394  15.913  12.004  0.0468 -0.1084 -0.1031
22721W        W39568  19.068  19.382   1.238 -0.0359 -0.1725  0.2155
22722W        W39569  10.937  10.391   1.513 -0.2821  0.2417 -0.0909
22723W        W39570  17.268   6.297  12.044 -0.1410 -0.0931  0.0135
22724W        W39571  14.604  11.961   1.578 -0.0020  0.1144  0.0012
22725W        W39572  15.098  14.819   3.682 -0.1213  0.0265 -0.0646
22726W        W39573  19.580   4.754   1.345  0.0898  0.0815  0.3232
22727W        W39574  11.394   7.135   3.188 -0.0932 -0.2751 -0.1175
22728W        W39575  17.985   7.443   5.787 -0.2080 -0.2013 -0.2342
22729W        W39576  17.996  14.089  12.127 -0.0766 -0.0259 -0.1267
22730W        W39577   9.205   3.201  10.641  0.0394 -0.2264  0.0412
22731W        W39578   2.691  17.608   2.093 -0.3883  0.1862  0.1186
22732W        W39579   0.831   6.139  11.545  0.1016  0.0401 -0.1518
22733W        W39580  18.985  17.947   0.592 -0.1331 -0.1730  0.1905
22734W        W39581   5.609   7.279  11.413  0.2333  0.0009  0.0830
22735W        W39582  11.043  16.395   0.732 -0.1513 -0.2189 -0.0553
22736W        W39583   2.331  16.726   0.868  0.1555 -0.1643  0.0948
22737W        W39584   2.604  13.273   2.170  0.0986  0.1177  0.0011
22738W        W39585   9.248  16.597   2.752  0.0359 -0.1331 -0.0426
22739W        W39586  16.112   6.149  12.985  0.2162 -0.3894  0.3758
22740W        W39587   3.392  13.569   0.203  0.2555  0.0752  0.0830
22741W        W39588  17.033  13.043   5.476 -0.3042  0.2879  0.2017
22742W        W39589  12.537   5.867  14.260 -0.0199  0.2200 -0.0269
22743W        W39590   9.743  10.110   1.974  0.0967  0.4865  0.2461
22744W        W39591   5.510  15.189   3.318 -0.0094 -0.2051  0.1317
22745W        W39592   9.823   9.998   2.979  0.2391  0.1363  0.0633
22746W        W39593  14.889  10.628  13.977  0.3461  0.1774 -0.2372
22747W        W39594   9.729  17.646  12.580  0.2370 -0.1520  0.0709
22748W        W39595  13.440   1.007   1.134  0.2688  0.0950 -0.0124
22749W        W39596   4.081   2.114   1.205  0.0130 -0.2953  0.2684
22750W        W39597   9.621  13.822   2.722  0.1288 -0.2104 -0.0586
22751W        W39598  18.100   8.419  10.891  0.2095 -0.0918 -0.0395
22752W        W39599  18.787  11.084  12.797 -0.0831  0.0180 -0.1008
22753W        W39600   8.355   8.870  14.116  0.1825  0.0373 -0.2070
22754W        W39601  18.796   7.855   3.581 -0.0194  0.2104  0.0817
22755W        W39602   5.012  12.477  12.584  0.4782  0.6427  0.0260
22756W        W39603   8.453   9.785   5.054 -0.1602 -0.3970 -0.1151
22757W        W39604  12.620   5.935  10.205  0.1712  0.2289  0.3147
22758W        W39605  16.392   6.753  13.463  0.0350 -0.3922  0.2504
22759W        W39606   5.693  11.474  12.676  0.1179  0.2210  0.2573
22760W        W39607   4.203   9.441   4.465 -0.4455  0.0987  0.0841
22761W        W39608   3.266  14.835  12.596  0.2288  0.0424 -0.1517
22762W        W39609  11.694  14.751   2.521  0.2024 -0.4310  0.1840
22763W        W39610   3.216   8.598  10.413 -0.1204 -0.1168 -0.1010
22764W        W39611   3.759   3.986   4.276  0.3707  0.0364 -0.0570
22765W        W39612   1.571   6.987   4.107 -0.1865  0.3111 -0.1626
22766W        W39613  11.211  13.514  10.929 -0.0338  0.1639  0.1055
22767W        W39614  10.536   0.705   0.040  0.2665  0.0072  0.4177
22768W        W39615   7.749   6.988   3.849  0.2154 -0.1162 -0.0903
22769W        W39616   0.938   8.653  12.405 -0.1765 -0.2223  0.1803
22770W        W39617   4.502  14.570   2.757  0.0144 -0.0192 -0.1864
22771W        W39618  12.521   7.503   4.015 -0.2062 -0.5567  0.0454
22772W        W39619  16.303   1.979   9.696 -0.2485  0.1922 -0.1029
22773W        W39620   2.362  17.134  13.318 -0.0902  0.1964  0.2752
22774W        W39621   1.820   3.845   3.328 -0.0837  0.0025  0.1390
22775W        W39622   5.150   6.189   2.284  0.4427 -0.0713  0.1558
22776W        W39623  12.448  19.409  12.333  0.1974 -0.3335  0.0566
22777W        W39624  11.487   1.694  12.035 -0.0407  0.0158  0.3183
22778W        W39625  19.919  16.379   3.819  0.0597  0.2860 -0.0840
22779W        W39626  16.719  16.743  12.303  0.0478  0.3613  0.0203
22780W        W39627  17.060  16.136  13.377  0.1941 -0.3365  0.1038
22781W        W39628   1.599   6.848   2.935  0.0388 -0.0122  0.3072
22782W        W39629   1.078  19.755   4.275  0.1424  0.1465  0.1858
22783W        W39630  11.199   9.068  12.190 -0.0604 -0.0782 -0.2797
22784W        W39631   3.423  13.395  12.988 -0.0399 -0.2164 -0.0507
22785W        W39632   7.526   5.825   4.699 -0.0791 -0.1516  0.0779
22786W        W39633  15.466  12.125  10.997 -0.1075  0.1046 -0.3182
22787W        W39634  10.052  19.383   3.484 -0.7192  0.0079 -0.1511
22788W        W39635  10.878   0.981   9.907  0.1955  0.2373 -0.2811
22789W        W39636  13.349  12.343   3.106 -0.2553 -0.0534 -0.0277
22790W        W39637   9.490  15.748   3.001  0.1673 -0.0471  0.2705
22791W        W39638   0.968  18.356   3.796  0.0683  0.1528  0.1670
22792W        W39639   4.219  14.593  11.784 -0.1918  0.1312 -0.3663
22793W        W39640  17.964  11.889   1.099  0.3147  0.3242 -0.1121
22794W        W39641   7.028   4.399  11.698  0.0691 -0.0563  0.1198
22795W        W39642  12.160  10.879   0.322 -0.0138  0.0303  0.1354
22796W        W39643   9.860  10.411   4.411  0.0301  0.3637 -0.1699
22797W        W39644  12.639  17.724  12.868  0.0854  0.0192  0.2639
22798W        W39645   4.843  16.166   3.996  0.0893  0.1487 -0.4066
22799W        W39646  14.299  17.898   0.198 -0.0405  0.1232  0.2007
22800W        W39647  18.598   2.732   3.347 -0.1210  0.0886 -0.0626
22801W        W39648   2.707   7.683   2.595 -0.0925  0.1292  0.2798
22802W        W39649  16.579   7.162   1.323 -0.1027  0.1474 -0.1690
22803W        W39650   4.980  18.645  13.300  0.0380 -0.5104 -0.0221
22804W        W39651   0.671   0.746   3.516  0.1696  0.2968  0.5094
22805W        W39652  14.249  14.160  11.349  0.1007 -0.0495 -0.0315
22806W        W39653  18.142   1.088   0.546  0.1194 -0.4118 -0.0112
22807W        W39654   4.912   5.117   2.960  0.1075 -0.3282  0.1195
22808W        W39655  16.503  14.519  12.458 -0.3085 -0.1631 -0.3152
22809W        W39656   7.865   3.717  13.297  0.0150 -0.0984  0.0971
22810W        W39657  14.541   0.980  10.812  0.1346  0.0653  0.2961
22811W        W39658  17.958  17.948  13.823 -0.0391 -0.2043  0.0587
22812W        W39659   6.073  18.099   0.304  0.0017  0.1190  0.1087
22813W        W39660  13.127   1.602   3.587 -0.1203 -0.1766 -0.0732
22814W        W39661  15.811  11.579   9.809 -0.0106  0.0652 -0.0258
22815W        W39662  10.127   3.976   1.032  0.2217  0.0901 -0.0956
22816W        W39663  17.086  15.727   0.731 -0.0171 -0.0288  0.1132
22817W        W39664  19.162   3.508  11.085 -0.0316 -0.3829  0.1004
22818W        W39665   5.879   9.048   1.547 -0.1985  0.0878 -0.0190
22819W        W39666  11.252   8.145  10.354 -0.0892  0.1515  0.5388
22820W        W39667   1.973   6.743  11.072  0.5415  0.1722  0.2302
22821W        W39668   9.988   2.844  12.987  0.3503 -0.0235  0.0735
22822W        W39669   8.510   5.559  11.007 -0.1239  0.5124 -0.2070
22823W        W39670  14.628  14.647  13.315 -0.0315  0.1677 -0.1413
22824W        W39671   3.210  15.042   2.687 -0.0886  0.0582  0.0390
22825W        W39672   6.817  15.153  13.727  0.1514  0.3560  0.0181
22826W        W39673  19.895   1.623   4.333 -0.0293 -0.1057  0.2467
22827W        W39674  13.206  15.589  11.710 -0.1272  0.3308 -0.1569
22828W        W39675  19.375  16.772   4.354  0.3892 -0.0685 -0.0437
22829W        W39676   7.853  18.978  11.911 -0.1979  0.1231  0.3105
22830W        W39677   8.363   5.610   4.179 -0.2093 -0.3416 -0.1121
22831W        W39678   5.523  12.822   2.173  0.0173  0.1508 -0.0906
22832W        W39679   6.839  14.173  13.450 -0.2739  0.1660 -0.1363
22833W        W39680   9.123   4.590   1.754  0.1235 -0.0830 -0.1210
22834W        W39681  12.635  11.402   5.307 -0.0264 -0.1039  0.0240
22835W        W39682   6.199  14.594  12.809  0.1469  0.0481 -0.1896
22836W        W39683  15.848   8.873  14.164  0.0901 -0.0374  0.1206
22837W        W39684  11.522  17.188   0.798  0.0863  0.0009  0.2610
22838W        W39685  16.833  11.793   2.441  0.2981  0.3378  0.0381
22839W        W39686  14.653   4.115  14.298 -0.0324 -0.0929  0.1383
22840W        W39687   4.194  10.932  13.437  0.0772  0.2114 -0.0584
22841W        W39688  17.884  13.196  11.945  0.0739  0.1176  0.1979
22842W        W39689  14.269  18.213   1.858 -0.4862 -0.0369  0.0051
22843W        W39690   8.928   5.494  10.559  0.3724  0.2061  0.1774
22844W        W39691  17.571  15.686   0.715 -0.2197 -0.4659 -0.0510
22845W        W39692   3.094   1.140  12.200  0.0933  0.0913  0.1267
22846W        W39693   8.923  16.246  10.235  0.1157 -0.0931 -0.0002
22847W        W39694  15.986  17.974   3.676 -0.0579 -0.0749  0.1131
22848W        W39695   6.956  12.770   0.796  0.2698  0.1695 -0.1406
22849W        W39696   6.828   1.473   0.981 -0.0442 -0.2242  0.3201
22850W        W39697   6.662  19.172   2.860 -0.1294  0.2059  0.4006
22851W        W39698  11.907   2.627   1.168 -0.0127 -0.1075  0.2799
22852W        W39699   0.426   7.970  10.728  0.1288 -0.1438 -0.1302
22853W        W39700  10.870  18.276   0.576 -0.0010  0.1290  0.2765
22854W        W39701   6.769   1.462   0.177  0.1823  0.0280  0.3405
22855W        W39702  19.584   8.462   4.713  0.0344  0.0715 -0.2237
22856W        W39703  14.255   5.821   2.533 -0.0840 -0.3610  0.1361
22857W        W39704  19.106  16.021  13.995 -0.0570  0.0402 -0.0377
22858W        W39705  14.929   8.340  12.885  0.2203 -0.1491  0.1297
22859W        W39706  16.801   6.545  11.943  0.0305 -0.1471 -0.0499
22860W        W39707  10.675   2.254   0.684  0.2052 -0.0435  0.2498
22861W        W39708  10.773   1.703  13.518 -0.1496  0.0028 -0.0774
22862W        W39709  13.987   9.087  11.999 -0.0349 -0.2144  0.3467
22863W        W39710  14.097  12.768   4.381 -0.3625 -0.1236 -0.1287
22864W        W39711   5.368   8.831   1.524  0.1471  0.2383 -0.2020
22865W        W39712  10.547  18.185   1.958  0.0799  0.0504 -0.0368
22866W        W39713  15.123  16.921   3.626 -0.0588 -0.2417  0.4389
22867W        W39714  17.751  19.214   0.896  0.0050 -0.1395  0.3370
22868W        W39715   9.578   8.335   1.362 -0.0147 -0.1789 -0.2310
22869W        W39716   8.076   3.804   1.562  0.2158 -0.0913  0.2402
22870W        W39717  13.166   3.510  12.358 -0.3503  0.1088 -0.3963
22871W        W39718  18.360  13.238  11.978  0.1923 -0.1536  0.0461
22872W        W39719   9.526   3.168  12.732  0.1379 -0.2600  0.0399
22873W        W39720  17.102  17.334  11.679 -0.1542 -0.0018  0.0523
22874W        W39721   5.006   9.100   0.641  0.1531 -0.3645 -0.3661
22875W        W39722  11.279  14.296   1.331  0.1305  0.0511  0.3028
22876W        W39723  15.572  17.910  12.304 -0.2065  0.0110  0.3234
22877W        W39724   9.223   6.210   4.016  0.1601 -0.3024  0.2854
22878W        W39725   8.784  15.805  14.087  0.0640  0.3761 -0.0869
22879W        W39726  11.681   0.430   0.783 -0.0216  0.0817 -0.3709
22880W        W39727   8.505  10.041   1.100  0.0332  0.0182 -0.3220
22881W        W39728  18.328  15.634   2.962 -0.3062  0.1326  0.3195
22882W        W39729  15.079  17.903  12.217  0.3361 -0.0228 -0.0969
22883W        W39730   1.441   5.947   0.241  0.1152  0.1267 -0.2202
22884W        W39731  14.839   8.858  14.047 -0.1229 -0.1731  0.2901
22885W        W39732  18.054  18.835   0.899  0.2194  0.0574 -0.0139
22886W        W39733  12.659  18.608   4.816 -0.0367  0.1668  0.0940
22887W        W39734  17.523   0.592   0.062  0.3265  0.0271  0.1011
22888W        W39735   5.674  10.017   3.946 -0.3464  0.0224  0.2048
22889W        W39736   9.420   1.918   3.176  0.2449  0.0920 -0.0081
22890W        W39737  19.234   8.354   1.541  0.1923  0.1358 -0.0765
22891W        W39738  14.646   4.936  10.313  0.0229 -0.2311 -0.3334
22892W        W39739  18.721  19.567  13.168  0.0743  0.1208  0.1708
22893W        W39740  10.462  12.526   2.357 -0.1070  0.0312  0.1803
22894W        W39741  11.880   9.935   1.301  0.2045  0.3452 -0.0483
22895W        W39742  10.936  10.981  13.220 -0.0761 -0.2212  0.1258
22896W        W39743   5.296  17.014   1.690 -0.1187  0.1378  0.1062
22897W        W39744   6.874   2.383   4.200  0.1346 -0.0008  0.1720
22898W        W39745   3.990  16.823   4.148  0.0455  0.2091  0.1644
22899W        W39746  12.345   3.181   3.926 -0.3116 -0.2060  0.2184
22900W        W39747  12.490  11.882   4.246  0.0268 -0.0029  0.1427
22901W        W39748   7.985   8.663  12.351  0.3023 -0.0989  0.0652
22902W        W39749  10.536   7.682   0.325  0.0935  0.2103 -0.0485
22903W        W39750   3.247  18.889   9.208 -0.1055 -0.1454  0.3584
22904W        W39751  14.474   9.833   0.941  0.2539 -0.2440  0.2867
22905W        W39752   0.891   7.168   1.914  0.1897 -0.1126 -0.2116
22906W        W39753  10.704  15.877   4.001  0.0637  0.3834 -0.0313
22907W        W39754   3.920  18.237   1.170  0.3231 -0.0012  0.1721
22908W        W39755  14.070  11.152   2.018 -0.2675 -0.0363  0.0586
22909W        W39756  12.064   9.397   4.294 -0.0783 -0.2690  0.2555
22910W        W39757   9.954  13.111  10.517  0.4778 -0.2951  0.0782
22911W        W39758   0.521  15.459  12.415  0.0036 -0.2440  0.0478
22912W        W39759   3.719   2.201   3.972  0.1346  0.1139 -0.2017
22913W        W39760   3.207   1.088   2.387 -0.0260 -0.1553  0.0086
22914W        W39761   2.961   0.330   2.667  0.0400 -0.2543  0.1679
22915W        W39762   1.126  15.234   1.089 -0.4580 -0.2137  0.0239
22916W        W39763  14.052  15.166  11.517  0.0501  0.0874  0.2792
22917W        W39764  16.334  19.539   1.122  0.1459 -0.2501 -0.0250
22918W        W39765   2.283  12.051   4.193 -0.0317 -0.0577  0.1582
22919W        W39766  14.696   3.822   5.808  0.2557 -0.1226 -0.0306
22920W        W39767  12.630  10.291  10.559  0.0875  0.0497  0.0083
22921W        W39768   2.269  18.146  11.087  0.1530  0.0738 -0.1359
22922W        W39769   2.436  15.621   1.205 -0.0310  0.2051  0.1877
22923W        W39770  14.727  15.008  10.859  0.0834  0.1106  0.0260
22924W        W39771   5.365  18.467  13.602  0.0417 -0.2188 -0.1169
22925W        W39772   9.079   2.183   0.661  0.2469 -0.0524 -0.2893
22926W        W39773  16.726   5.421   2.610 -0.1179  0.1096 -0.1312
22927W        W39774   0.295  17.795   4.902 -0.0404  0.1088 -0.1585
22928W        W39775  13.781  16.016   1.085  0.1323  0.1643  0.3337
22929W        W39776   8.587  12.178  12.042  0.2381  0.0199  0.0785
22930W        W39777   8.690   4.095   1.893 -0.0004 -0.0813 -0.0551
22931W        W39778   6.910   9.091  13.087 -0.2030 -0.0190 -0.4617
22932W        W39779  10.456   1.296  13.538  0.0362  0.2432  0.1965
22933W        W39780  18.110  12.484   0.462 -0.0016 -0.1671  0.2210
22934W        W39781   8.609  14.056  11.725 -0.0576  0.1341  0.1025
22935W        W39782  17.638   6.325   4.380 -0.2930 -0.2011 -0.4161
22936W        W39783   1.403  12.540   4.461 -0.2303  0.4975 -0.0986
22937W        W39784  15.056   2.848  14.004 -0.1159  0.3000  0.0299
22938W        W39785   7.390   8.227   2.225  0.0586  0.1648 -0.2532
22939W        W39786  16.102   6.371  13.662 -0.1626 -0.3623  0.0491
22940W        W39787   3.829   5.834   1.934  0.1158  0.1138 -0.1820
22941W        W39788  19.214  18.330   4.126  0.1375 -0.0663 -0.1745
22942W        W39789   9.527   3.790   2.472 -0.3586  0.0836  0.1569
22943W        W39790   7.477  12.217   4.245 -0.0015 -0.0073 -0.1979
22944W        W39791   8.004   1.633  11.361 -0.1481  0.1075 -0.0013
22945W        W39792   8.328   2.375   1.077 -0.0675 -0.4437 -0.0240
22946W        W39793   5.985  15.726   2.880 -0.0091 -0.0316 -0.3661
22947W        W39794  14.965   6.051  10.038 -0.1123  0.0466  0.0020
22948W        W39795  18.736  13.977  10.376  0.0177  0.2822 -0.0676
22949W        W39796   0.198  18.729  12.856 -0.3494 -0.1873  0.1682
22950W        W39797  15.215   2.343   2.796 -0.0654  0.2982  0.2208
22951W        W39798   9.665  14.827   0.764 -0.0232 -0.1075 -0.0099
22952W        W39799   5.986   4.661   8.820 -0.1153  0.1486 -0.4070
22953W        W39800   3.149   5.121   0.112  0.2959  0.1747 -0.0995
22954W        W39801  11.659   1.197  11.343  0.1531  0.0427 -0.1504
22955W        W39802  16.732   5.877   3.783  0.0635  0.3017 -0.1075
22956W        W39803   6.901  16.691   3.453  0.1306 -0.2495 -0.0869
22957W        W39804  13.942   5.723   5.676 -0.0222  0.0276  0.0322
22958W        W39805   0.477   6.996   4.500  0.2891 -0.0314  0.1265
22959W        W39806  18.892  19.082  11.874  0.3091 -0.0888  0.0267
22960W        W39807   4.178   3.778   4.444 -0.0009  0.2748 -0.3936
22961W        W39808  11.816   4.363   0.587 -0.0780  0.2094  0.2139
22962W        W39809   8.248  18.827   5.056  0.1690  0.0428 -0.2015
22963W        W39810   5.850   6.091  12.321 -0.1978  0.1380  0.1263
22964W        W39811   3.639   9.393   4.511  0.1428  0.0086 -0.1685
22965W        W39812   4.331   8.614   2.530 -0.1069  0.2589  0.2474
22966W        W39813  13.722   3.289   3.971  0.2154 -0.0712 -0.0102
22967W        W39814  13.141  16.399   2.253 -0.3266  0.0097 -0.0562
22968W        W39815   8.665  15.281   3.887  0.0765 -0.1998  0.0395
22969W        W39816   3.149  10.396  12.067 -0.0187  0.1603 -0.2028
22970W        W39817   0.220   1.367  11.934 -0.0493 -0.1253 -0.4195
22971W        W39818   4.072   3.578  13.943 -0.1338  0.2466 -0.1541
22972W        W39819  15.911   5.716  13.190  0.1552  0.0331  0.0122
22973W        W39820  19.066  10.014   0.152  0.3125  0.2055 -0.0525
22974W        W39821  15.579   3.312  11.563 -0.1906 -0.0893 -0.0497
22975W        W39822  17.685   5.803   1.139  0.0625  0.2105  0.3822
22976W        W39823  19.717  16.541   1.993  0.2271 -0.0592  0.1108
22977W        W39824   9.450   5.836  10.075  0.0574  0.2080  0.0000
22978W        W39825  17.280   0.759   3.848  0.1610  0.1253 -0.2803
22979W        W39826   3.561   0.442   0.217 -0.2844 -0.0913 -0.2669
22980W        W39827  18.627   5.633  11.837 -0.1719  0.0583 -0.1511
22981W        W39828   8.696   0.203  11.020  0.2535 -0.0817  0.3871
22982W        W39829  10.711   3.203   3.957 -0.2604 -0.0324 -0.3235
22983W        W39830   7.144   8.901  10.603 -0.3639 -0.3104  0.2349
22984W        W39831   1.109  13.717  13.348 -0.4494 -0.0051 -0.1841
22985W        W39832   5.397  19.317   2.678  0.3939 -0.2387  0.1439
22986W        W39833  14.018   0.228   9.191 -0.5097  0.2363  0.3026
22987W        W39834  19.682  13.432   2.894 -0.0713  0.3963  0.3087
22988W        W39835   0.524  12.754  13.608  0.0102  0.2841 -0.3297
22989W        W39836   5.898  13.646  12.737  0.0696 -0.2798 -0.1000
22990W        W39837  17.575  19.617   2.931  0.2410  0.2563 -0.1651
22991W        W39838  14.816   0.227  12.601 -0.2852  0.0230  0.4708
22992W        W39839   2.174   8.575   1.527  0.2193 -0.0752 -0.1471
22993W        W39840   8.576  15.057   0.621  0.1242 -0.0695  0.4182
22994W        W39841   7.077  12.255   0.756  0.2627  0.1393 -0.1757
22995W        W39842   0.899   6.570   3.563 -0.2500 -0.0686  0.1368
22996W        W39843   2.552   1.864  12.831 -0.0937  0.0306  0.0478
22997W        W39844  14.084  16.965  11.505  0.1166  0.3696 -0.3181
22998W        W39845   5.863  16.241  10.078  0.0780  0.3273  0.3746
22999W        W39846   6.698   4.153  14.219 -0.2177  0.3546  0.1151
23000W        W39847  14.556   3.810  13.307 -0.2285  0.5173  0.3956
23001W        W39848   8.558  11.140  12.277  0.0134  0.1882  0.0751
23002W        W39849   8.368   4.339  13.493 -0.0132 -0.0380 -0.1274
23003W        W39850   4.110   8.210   0.566  0.3017  0.2158  0.0539
23004W        W39851   2.237  18.827  12.780  0.3128 -0.3202 -0.0695
23005W        W39852   6.354   5.993   3.216  0.0160  0.0971 -0.2009
23006W        W39853   8.051   5.743  12.713  0.0248  0.3896 -0.0265
23007W        W39854   4.765   1.032   0.881  0.6934 -0.0354  0.0157
23008W        W39855   1.370  17.515   1.702 -0.1720  0.0482  0.5086
23009W        W39856   7.565  15.654  11.626  0.4631  0.1986  0.3056
23010W        W39857   1.551   7.104  10.841  0.1783  0.2934 -0.5620
23011W        W39858  11.671  19.052   3.835  0.1502 -0.0799  0.1001
23012W        W39859  14.249  19.319  12.790  0.2795  0.0418  0.2944
23013W        W39860   5.130  11.236  13.493 -0.0737  0.0134  0.2423
23014W        W39861   3.648   4.851   2.032  0.0722 -0.0913  0.0347
23015W        W39862  15.194   9.794  13.604 -0.1451  0.0935 -0.2616
23016W        W39863   8.329   6.457  13.462 -0.0029  0.2895 -0.4403
23017W        W39864  15.900  12.826   4.213 -0.1669  0.0123  0.3765
23018W        W39865  17.603   1.311   4.907  0.1200 -0.0763  0.0733
23019W        W39866   7.810   5.836   3.326  0.0708 -0.0734 -0.0643
23020W        W39867   7.235  11.248  11.609 -0.1454  0.0297 -0.1569
23021W        W39868   2.354   4.563   3.582 -0.0364 -0.4018  0.0044
23022W        W39869  11.439  12.929   3.478 -0.0799  0.0381 -0.1574
23023W        W39870   2.382  13.297   3.437  0.2862 -0.1493 -0.5358
23024W        W39871   7.668   6.328  10.804 -0.0885 -0.1485  0.0873
23025W        W39872  19.119  16.910   4.778 -0.3708 -0.0126 -0.0863
23026W        W39873   3.684   5.630   0.904  0.0607 -0.0210  0.1041
23027W        W39874  14.817   3.305   1.885  0.0327 -0.0099  0.1883
23028W        W39875  16.516  12.628   0.562  0.0344  0.0032  0.0716
23029W        W39876  17.852  17.997   0.098 -0.0019  0.2814  0.4585
23030W        W39877   7.367   2.475   4.219 -0.0298 -0.0882  0.1992
23031W        W39878  13.474   4.348  11.293  0.0036  0.0050  0.0169
23032W        W39879  13.428  18.767   4.101  0.2399 -0.1612  0.1144
23033W        W39880   9.224   9.629   2.719  0.0661  0.2578 -0.1090
23034W        W39881  10.122  19.684   4.567  0.0460  0.1546 -0.0543
23035W        W39882   1.949  18.190   2.830  0.0476 -0.1969  0.2041
23036W        W39883  15.844   1.982   1.130  0.2780  0.0342 -0.1065
23037W        W39884  13.253   7.396   0.957  0.4093  0.1372 -0.0905
23038W        W39885  12.905  18.092   1.939 -0.3724  0.2098 -0.1676
23039W        W39886   7.366   9.770  13.047 -0.0197  0.1044  0.2236
23040W        W39887   7.823  18.341   4.340 -0.1395  0.0519 -0.2394
23041W        W39888   5.744  16.095   1.274 -0.1231 -0.1222 -0.2457
23042W        W39889   3.603  11.985   3.777  0.1350 -0.3205 -0.1325
23043W        W39890  14.235  19.812   3.575 -0.1994 -0.0611 -0.1622
23044W        W39891  15.301   1.009  12.352  0.2834 -0.2150  0.2657
23045W        W39892   9.621   5.240   9.843 -0.6186 -0.1980 -0.2806
23046W        W39893  11.673   0.351   3.930  0.0067  0.1751 -0.0029
23047W        W39894  14.203  12.500   2.762 -0.0452 -0.0129 -0.2724
23048W        W39895  11.008   1.138   4.839 -0.0080 -0.2418 -0.1757
23049W        W39896   2.695  19.043  13.139  0.2080 -0.1394  0.0274
23050W        W39897   2.939  13.447   1.071 -0.0252 -0.0011  0.0901
23051W        W39898   0.952  14.083  10.354  0.0213 -0.0477 -0.1654
23052W        W39899  18.713   8.194   9.223 -0.5534  0.1539  0.0394
23053W        W39900   8.625  16.677  13.515 -0.1537 -0.1256  0.0264
23054W        W39901   5.621   7.476   4.048  0.1889 -0.1932  0.2004
23055W        W39902   2.519  18.926   0.588 -0.0277 -0.0029 -0.2146
23056W        W39903  13.274  11.458  11.632  0.1444 -0.1038 -0.0440
23057W        W39904  10.315  10.425  13.483 -0.1321 -0.0483  0.1197
23058W        W39905  13.370   8.125  13.747 -0.4131 -0.2335 -0.6317
23059W        W39906  19.457  15.948   3.336  0.1817  0.0664  0.5215
23060W        W39907  17.188  10.753  10.947  0.4397  0.0459  0.1934
23061W        W39908   2.924  19.795  13.299 -0.1745  0.0013  0.1802
23062W        W39909   8.098  17.479   1.954 -0.0260 -0.1534 -0.0594
23063W        W39910  16.953  14.791   2.789  0.0851 -0.2206 -0.0509
23064W        W39911   6.751   0.170  10.331 -0.0551 -0.0748 -0.1010
23065W        W39912  13.220   9.639  14.194  0.0075 -0.1234  0.0171
23066W        W39913  11.728   4.096  13.065  0.1638 -0.0844 -0.0956
23067W        W39914  19.536   2.134  12.574 -0.0742  0.1256 -0.1723
23068W        W39915  18.208   5.859  12.736  0.0410  0.1442  0.1388
23069W        W39916   6.514   0.230   4.146  0.0719  0.0392 -0.0996
23070W        W39917   6.167   9.925   0.241  0.0452 -0.0010  0.2106
23071W        W39918   1.356   4.685  10.894  0.0430 -0.0471  0.1433
23072W        W39919   3.147  13.812  12.665 -0.0261  0.1013 -0.1893
23073W        W39920   0.939   4.898  13.793 -0.0333 -0.0898 -0.1809
23074W        W39921  18.753  13.213  13.480  0.0825  0.0716 -0.0205
23075W        W39922  12.401   1.924   1.530 -0.0366  0.1141  0.1572
23076W        W39923   4.365   2.421   3.488  0.2485  0.3560 -0.2145
23077W        W39924   0.530   8.673  13.618 -0.1492 -0.2091 -0.2771
23078W        W39925   9.469  18.950  13.819  0.0844 -0.1608 -0.3068
23079W        W39926  11.658  16.171   1.615  0.0514  0.3205  0.0235
23080W        W39927   8.298  14.904   1.268  0.3521 -0.3750 -0.2399
23081W        W39928   5.500  16.093   1.713 -0.2650 -0.0030  0.1179
23082W        W39929   3.153  15.696  11.184  0.3472  0.2586  0.0440
23083W        W39930   9.916  11.004   1.440 -0.1717  0.0202  0.0138
23084W        W39931  14.902  19.191  11.236  0.0297  0.1638  0.2727
23085W        W39932   0.513   4.831   1.436  0.1567  0.2957  0.2070
23086W        W39933  10.593   3.025  12.384 -0.0271 -0.1923  0.0954
23087W        W39934  17.413   9.037  10.991  0.1989 -0.3131  0.1904
23088W        W39935  17.568   6.547  12.430  0.1205  0.3468  0.6807
23089W        W39936   6.491   8.701   0.751 -0.2631 -0.0913  0.2896
23090W        W39937  14.170  13.231   1.083 -0.2551  0.2000  0.2279
23091W        W39938   7.463   2.852   0.129  0.4589  0.0861 -0.1184
23092W        W39939   8.042   7.063   5.408  0.1537  0.3819 -0.0362
23093W        W39940   1.036  11.632   2.769 -0.1060 -0.0875  0.1805
23094W        W39941   1.272   7.740  12.577  0.0867  0.0698 -0.0077
23095W        W39942  18.058   4.377  12.535  0.2691  0.3098 -0.1371
23096W        W39943  11.480  11.207  11.398 -0.0617  0.2635 -0.1994
23097W        W39944   4.743   5.599   1.736 -0.1723 -0.0664 -0.0649
23098W        W39945  18.717  19.875   4.433 -0.1712 -0.1986 -0.3243
23099W        W39946  15.509  15.816  13.897  0.0708  0.1057 -0.0299
23100W        W39947   5.188   5.555   2.930 -0.3707  0.0307 -0.2142
23101W        W39948   3.749  16.740   0.390 -0.2662  0.0767  0.0572
23102W        W39949   6.548   0.618  10.200 -0.1202 -0.3901 -0.1281
23103W        W39950  15.667  19.194   3.341  0.2766  0.1072 -0.3371
23104W        W39951  17.870   5.253  11.669  0.1687 -0.1292 -0.0498
23105W        W39952  13.077   0.308   4.325 -0.0572  0.0295  0.2611
23106W        W39953  14.124   7.857   0.030 -0.1208  0.1681  0.0458
23107W        W39954   1.252  11.543   2.362  0.5221  0.2153 -0.0189
23108W        W39955  16.945  18.388   9.547  0.6168 -0.1303  0.2410
23109W        W39956  16.368   4.467  13.511 -0.0522 -0.2455  0.0207
23110W        W39957  18.785  11.914   3.881 -0.3451 -0.0154 -0.0152
23111W        W39958  16.185  17.639  11.220 -0.2048 -0.0122  0.4429
23112W        W39959  10.112  10.629   3.354 -0.1824 -0.1640 -0.0833
23113W        W39960   3.405  19.648  10.286 -0.2706 -0.2092 -0.0247
23114W        W39961  17.952  17.888  12.908 -0.0846 -0.3378 -0.2556
23115W        W39962  10.722   4.031  10.333  0.0404 -0.2181 -0.0287
23116W        W39963   2.588   1.810   0.530  0.3596 -0.0310  0.2739
23117W        W39964  15.145  17.028  14.125 -0.0738  0.0196  0.0999
23118W        W39965   0.980   3.915  11.917  0.0054 -0.0187 -0.1087
23119W        W39966   4.741  13.884  12.933  0.0258 -0.1466  0.0747
23120W        W39967   8.266   2.507  13.978 -0.0289  0.1714  0.0714
23121W        W39968   3.309  19.380   1.594 -0.2476  0.2801 -0.2058
23122W        W39969   9.007   4.837   4.306  0.0294  0.1151 -0.1620
23123W        W39970   3.409   1.249   4.971  0.2044  0.3054 -0.1360
23124W        W39971  16.559  12.579  13.094 -0.1302 -0.0808 -0.0586
23125W        W39972   2.737   2.090  10.575 -0.1194 -0.1433  0.0378
23126W        W39973   6.302  16.071   0.065  0.0753  0.1037 -0.3105
23127W        W39974   6.574   5.346   4.452  0.4160  0.0941  0.0054
23128W        W39975  13.881  14.423  11.907  0.3344 -0.1564 -0.1753
23129W        W39976   5.191  19.835  12.249  0.5124  0.0527  0.2748
23130W        W39977  11.722  18.240   3.429  0.2149  0.1212 -0.0455
23131W        W39978  17.697  12.089   3.209 -0.1078 -0.1300 -0.0769
23132W        W39979   7.960   5.192   8.931  0.0465  0.0947  0.0874
23133W        W39980   8.895  16.091   3.567 -0.1516  0.1157  0.0084
23134W        W39981  17.034   6.966   1.450  0.0121  0.1381  0.0415
23135W        W39982  12.424   4.699   0.435  0.5272 -0.0220 -0.1268
23136W        W39983   1.562   1.094   4.489 -0.1539  0.1813  0.1487
23137W        W39984  13.031   8.983   9.703  0.3817  0.4707  0.0945
23138W        W39985   9.739   3.509   2.871  0.1927  0.2398  0.1291
23139W        W39986   0.148   7.910   2.512  0.1102  0.0853  0.3213
23140W        W39987  14.513  16.425   2.485 -0.0278  0.0629 -0.2135
23141W        W39988   2.028   4.782   3.329 -0.0731  0.2748  0.1655
23142W        W39989   1.303   2.339   0.547  0.0941  0.2506 -0.0726
23143W        W39990   2.244  12.895   2.101 -0.0243 -0.0409  0.1909
23144W        W39991  19.223  12.728  10.197  0.0749  0.2370  0.0533
23145W        W39992   9.653  14.423   1.056  0.0197 -0.1561  0.0239
23146W        W39993   6.729  14.613   0.387 -0.2608 -0.1815  0.0393
23147W        W39994  18.234  12.966   4.064 -0.0891 -0.0505  0.0370
23148W        W39995   4.206   9.834   0.412 -0.1400 -0.0156 -0.0042
23149W        W39996   0.704   9.629   4.693 -0.0075 -0.5260  0.1830
23150W        W39997   1.720  13.581  12.667 -0.1898  0.1522  0.1023
23151W        W39998   5.778  11.781  12.280  0.1807 -0.2045  0.4114
23152W        W39999   7.781  11.028  10.960 -0.0246  0.2844 -0.0745
23153W        W40000   1.876  18.025  13.068 -0.3596  0.3009 -0.0438
23154W        W40001   7.157  11.090   1.200  0.1761 -0.0820 -0.1741
23155W        W40002   8.380   9.087   2.607  0.0420 -0.0070  0.5051
23156W        W40003   0.248  13.904   0.087  0.0573 -0.2939 -0.2381
23157W        W40004  17.062  15.913   4.339 -0.2802  0.1589 -0.0882
23158W        W40005   0.408   9.084  13.296  0.1189  0.0112  0.0560
23159W        W40006  13.562   2.564   5.923 -0.3427  0.2253  0.2246
23160W        W40007  16.772   3.422  12.338  0.4658 -0.1262 -0.2407
23161W        W40008   0.648  16.599  10.284 -0.0830 -0.2410 -0.0481
23162W        W40009  10.140   1.939  14.201 -0.2452 -0.1734  0.2830
23163W        W40010  13.485   9.094   4.764 -0.2046  0.0920 -0.0907
23164W        W40011  14.928  14.129   4.152  0.0547  0.1734  0.0560
23165W        W40012  11.525  16.888  13.375  0.0047 -0.1890 -0.0331
23166W        W40013  13.722   8.497   1.668  0.3533 -0.1107 -0.2333
23167W        W40014  15.986  16.608  11.089  0.1757  0.0285  0.0810
23168W        W40015  11.106  19.353   3.669 -0.0879 -0.0018  0.3045
23169W        W40016  19.254   2.049  13.404 -0.1794  0.0734 -0.3211
23170W        W40017   2.488  16.109  13.449 -0.1403 -0.1129  0.0066
23171W        W40018   3.241   3.650  12.224 -0.2045 -0.0632  0.2812
23172W        W40019   9.348  19.352  10.103  0.3312 -0.0031 -0.0668
23173W        W40020   3.111   2.905   4.053  0.2261 -0.1324 -0.1137
23174W        W40021   2.825   5.292   3.826 -0.1983  0.1934  0.1818
23175W        W40022   8.052  11.375  12.069  0.2117 -0.0961  0.4736
23176W        W40023  15.686   8.367  14.020  0.0747  0.0682 -0.5809
23177W        W40024   5.640   1.304   0.571 -0.3678  0.0850  0.1432
23178W        W40025   1.857  18.690   4.340 -0.0439 -0.2577  0.4735
23179W        W40026  18.359  11.593  13.616  0.1593  0.0298  0.2191
23180W        W40027  11.499   5.456  10.524  0.2274 -0.2919  0.1224
23181W        W40028  12.063   2.115  13.625  0.1525  0.1886 -0.0473
23182W        W40029   0.060   5.353   3.032 -0.1241 -0.0277 -0.0086
23183W        W40030   6.779  11.964   2.004 -0.2984 -0.0201  0.1553
23184W        W40031   6.179   6.788   0.771  0.0133 -0.0690  0.2362
23185W        W40032  10.597   0.825   1.930  0.1895 -0.1648  0.2481
23186W        W40033  12.326  16.755  14.113  0.0149 -0.1188 -0.1247
23187W        W40034   9.050   9.372  13.929 -0.1111  0.0586 -0.1499
23188W        W40035   7.546   4.372   4.359 -0.0108  0.1354  0.0886
23189W        W40036   1.626   1.041   2.162  0.3445  0.1771 -0.1548
23190W        W40037  12.556   2.355   0.787 -0.0006 -0.2721 -0.2650
23191W        W40038  14.793   6.781   2.113 -0.1226 -0.3004  0.0214
23192W        W40039  14.837   4.931  11.559 -0.1977  0.0122  0.0915
23193W        W40040  17.181  18.422   9.994  0.2640  0.1489 -0.0066
23194W        W40041   0.571   6.800   0.836  0.1849 -0.3593 -0.1124
23195W        W40042  10.180  17.132  11.285  0.0235 -0.1564  0.3583
23196W        W40043   6.322  15.232  14.112 -0.2132  0.3056 -0.1426
23197W        W40044  12.040   2.574  11.931 -0.0982 -0.2760 -0.2395
23198W        W40045   8.857  16.860   3.911  0.0221  0.0970  0.1074
23199W        W40046  11.299  11.964  12.430 -0.3106 -0.0438 -0.3034
23200W        W40047   7.254  12.802  14.153  0.3932  0.2273  0.1702
23201W        W40048  10.869  16.228   1.434  0.2760  0.1013  0.0877
23202W        W40049   5.518   3.545  12.471  0.2475  0.3241 -0.2177
23203W        W40050  15.099   1.434  12.214 -0.2458  0.2474 -0.1933
23204W        W40051   8.668   1.249  10.603  0.0226 -0.2306 -0.2043
23205W        W40052  11.355  16.513   1.569  0.0110 -0.2932  0.1678
23206W        W40053   7.160  10.380   0.082  0.0015  0.1000 -0.2174
23207W        W40054   8.866  17.225  12.225 -0.0763  0.0463  0.0061
23208W        W40055  14.640   8.913   0.323  0.1098 -0.0017 -0.1280
23209W        W40056  19.639   0.128   5.649  0.4627 -0.1161 -0.4893
23210W        W40057  11.329  16.580  12.259 -0.0909 -0.0540  0.0584
23211W        W40058  12.392  14.669   2.866 -0.0780 -0.1148  0.1523
23212W        W40059   7.456  19.280   0.179 -0.0621 -0.0368  0.1279
23213W        W40060  14.434   2.278   3.166 -0.0542 -0.0665 -0.1979
23214W        W40061   4.356   5.025  10.491  0.1239 -0.0537 -0.0643
23215W        W40062   7.358  12.675  10.779 -0.2438  0.0752 -0.0054
23216W        W40063   1.567   9.296  12.136  0.3592 -0.1704 -0.0511
23217W        W40064  16.768   2.592   0.366  0.0623 -0.0340  0.1650
23218W        W40065  17.516   5.435  13.956  0.1710 -0.0832  0.0266
23219W        W40066   3.305   0.366   0.663  0.2129 -0.0989 -0.1263
23220W        W40067  19.311   5.922   2.092 -0.0552 -0.2342  0.3832
23221W        W40068  15.132  16.515  13.231 -0.2618 -0.0313 -0.0607
23222W        W40069   6.500   8.986  12.266 -0.1355 -0.4266  0.4242
23223W        W40070   3.435   6.116   4.828 -0.0053 -0.1866  0.2545
23224W        W40071   0.110  19.816   0.085 -0.0638 -0.1619 -0.1735
23225W        W40072  10.517   3.887  12.039  0.3484  0.0959  0.1280
23226W        W40073  18.464   4.715   1.228 -0.3390 -0.2081  0.2719
23227W        W40074  19.254  13.477   2.350  0.0891 -0.1631 -0.0335
23228W        W40075   1.928   8.315  10.805  0.1456  0.0755 -0.1841
23229W        W40076  18.613   3.953   0.512  0.1094  0.0809  0.0540
23230W        W40077  16.790   1.043   1.106  0.1089 -0.2570  0.2682
23231W        W40078  19.500   9.456  13.540 -0.0097 -0.0776  0.0657
23232W        W40079  12.157   7.983  10.359  0.1225  0.1429  0.1985
23233W        W40080  12.387   4.279   3.011  0.1268  0.0033 -0.2620
23234W        W40081   1.479  16.690  11.028 -0.0849 -0.4342  0.0615
23235W        W40082  11.855   8.927  12.874 -0.1812  0.2082  0.2631
23236W        W40083  13.236   8.375   2.946 -0.1399  0.1593 -0.2432
23237W        W40084   7.527  18.522   9.561  0.0676 -0.2171  0.1335
23238W        W40085  12.618  14.498  10.030 -0.0172 -0.0150 -0.1763
23239W        W40086   3.644  14.033   5.168 -0.1026 -0.2162  0.1592
23240W        W40087  11.354  10.818   3.094  0.3464  0.1000  0.2184
23241W        W40088  10.109  11.865  10.765 -0.1512  0.0689  0.0327
23242W        W40089   4.988  12.561   2.087  0.0912 -0.0352 -0.0040
23243W        W40090   2.532  11.589  12.395  0.1753 -0.0743  0.1280
23244W        W40091  19.107   4.895  10.591  0.3022  0.0650 -0.3144
23245W        W40092  19.160  17.277   9.871 -0.1525 -0.0672  0.0328
23246W        W40093  12.556  14.842   0.111 -0.3570 -0.0269  0.4247
23247W        W40094   7.641   1.108   0.609  0.1212  0.3111  0.1058
23248W        W40095   8.417   8.324  11.727  0.3194 -0.2073 -0.1701
23249W        W40096   8.842  11.929  11.650  0.1124 -0.1314  0.3409
23250W        W40097   1.593   8.233   2.915  0.0179  0.0035 -0.0268
23251W        W40098  18.614   2.196  10.516  0.2746  0.2223 -0.0677
23252W        W40099  12.097  13.588   2.935  0.1607 -0.1009  0.1093
23253W        W40100   6.971  14.181   0.285 -0.2325  0.3186  0.2419
23254W        W40101   4.681   3.021   3.517  0.1540 -0.2265  0.0112
23255W        W40102   1.654   9.608   0.656 -0.2014 -0.2065  0.1193
23256W        W40103  18.306  18.107   0.306  0.0493  0.2309 -0.1866
23257W        W40104   8.873   4.898   0.778  0.1642  0.1150 -0.2355
23258W        W40105   1.977   0.229  10.086 -0.0989  0.1574  0.1160
23259W        W40106   2.720  18.726   1.016 -0.2527 -0.2327 -0.1654
23260W        W40107  12.896   1.007   0.473 -0.2732 -0.1955 -0.1065
23261W        W40108   6.061  15.844  12.433 -0.0009 -0.0847  0.1320
23262W        W40109  14.519  12.644  12.974 -0.1187 -0.2995  0.3784
23263W        W40110   0.000  15.081   0.335  0.2022 -0.0259  0.2160
23264W        W40111   4.532   8.489   0.170 -0.2350  0.0238 -0.1385
23265W        W40112  17.961  13.375  13.173 -0.0824  0.1489  0.0920
23266W        W40113   1.446  11.195   1.622 -0.0802  0.0136 -0.0576
23267W        W40114   4.193   4.263   4.178 -0.0035 -0.0715 -0.1613
23268W        W40115  19.910  14.429   3.926  0.4014 -0.0133 -0.0025
23269W        W40116   5.012   6.796  12.940 -0.4521 -0.0365  0.2831
23270W        W40117   2.386   2.227  12.510  0.2328 -0.2561  0.0775
23271W        W40118   1.227   2.713   2.708  0.0749 -0.0723  0.0546
23272W        W40119  11.921  18.096  13.308  0.0159  0.0112 -0.1684
23273W        W40120  14.208   4.929   1.592  0.1573  0.0392  0.1965
23274W        W40121   6.273  14.783  11.550 -0.0606 -0.0261 -0.0216
23275W        W40122   8.539   4.417   1.530  0.0294  0.0142  0.0346
23276W        W40123   2.672  10.791  12.274  0.0390  0.1463 -0.4140
23277W        W40124   3.433  19.719   3.236  0.0625 -0.3945  0.0538
23278W        W40125  14.940   3.841  12.395 -0.0006 -0.0565  0.1711
23279W        W40126   7.963   9.091   3.190  0.0366 -0.0542  0.0937
23280W        W40127  19.507  13.961  11.305 -0.2081  0.2160 -0.2593
23281W        W40128   6.626  19.301   1.347 -0.0377  0.0187  0.1414
23282W        W40129  11.227  14.930  12.199 -0.1427 -0.2980 -0.0811
23283W        W40130   7.690   8.702   3.182  0.1929  0.1823  0.0013
23284W        W40131  11.491   8.446   3.190  0.0459 -0.4880  0.0493
23285W        W40132  12.737   2.347   0.238 -0.1646 -0.2086 -0.2410
23286W        W40133  11.045   3.908   9.488  0.0998  0.0734 -0.1379
23287W        W40134  17.243  11.824   2.186 -0.0242  0.3166  0.1577
23288W        W40135  11.227  19.594   1.915 -0.0225  0.0396 -0.1361
23289W        W40136   7.375  14.192  14.250  0.5367 -0.0734 -0.0073
23290W        W40137  19.162  14.394  13.911  0.0009  0.1213 -0.0243
23291W        W40138  17.563  10.237  10.321 -0.2950  0.0857  0.0485
23292W        W40139   0.819  19.822   3.378  0.5066 -0.6024 -0.2176
23293W        W40140   0.204   7.561  11.486  0.0022 -0.4658 -0.0622
23294W        W40141   3.338   0.105  13.050  0.0480  0.1866 -0.1154
23295W        W40142   3.480   2.895  11.618 -0.2146 -0.0143 -0.2431
23296W        W40143   7.347  11.592   0.028  0.0233 -0.0649 -0.2583
23297W        W40144   4.975  14.218   0.472  0.0958  0.1445  0.3398
23298W        W40145   9.824   7.011   0.908  0.1513  0.1368  0.3493
23299W        W40146   9.298   5.087   2.743  0.2895  0.2699 -0.0305
23300W        W40147   2.590  10.875   1.535  0.1325 -0.0137 -0.1710
23301W        W40148   4.412  11.491  11.706  0.0704  0.0253 -0.3729
23302W        W40149  12.091  17.295  13.910 -0.2370 -0.0535  0.3524
23303W        W40150   2.834   4.873   3.467  0.2259  0.1411 -0.4105
23304W        W40151  14.382  17.947   5.262  0.3767 -0.4077 -0.2015
23305W        W40152   2.048  12.558   2.841  0.0925  0.0616  0.2444
23306W        W40153  17.653   6.694   0.547 -0.1229 -0.2344  0.2597
23307W        W40154  10.255   8.900   3.630  0.0818  0.0410 -0.3153
23308W        W40155  10.999  11.719   2.598  0.0720  0.0518  0.3826
23309W        W40156   2.603   9.250  12.463 -0.2133 -0.3370 -0.0705
23310W        W40157   6.151  10.426   4.743  0.2161  0.3682  0.2024
23311W        W40158  12.059  16.915   0.574 -0.1936  0.0852  0.0420
23312W        W40159   3.011  18.341   3.692 -0.1427  0.1485 -0.1797
23313W        W40160   2.117  10.564  13.038 -0.1172 -0.0316  0.0747
23314W        W40161  11.870   2.124  10.381  0.0339  0.0567 -0.2316
23315W        W40162  17.550  10.692   0.066  0.0728 -0.0911 -0.1419
23316W        W40163  18.930   7.513  12.064  0.0886 -0.1751 -0.2786
23317W        W40164  16.746   5.149   0.490  0.2127 -0.0347  0.2118
23318W        W40165  17.465  17.768   0.455  0.0863  0.0657  0.2711
23319W        W40166   0.446   8.859   3.802 -0.1223 -0.2991 -0.0742
23320W        W40167   3.446   6.212  13.937  0.1148  0.1510 -0.0798
23321W        W40168   2.014   3.356   2.961 -0.2798  0.2861 -0.0044
23322W        W40169   7.746   0.248   2.732  0.1878 -0.2926  0.1986
23323W        W40170  15.867  12.095   3.277  0.2370 -0.2374 -0.1809
23324W        W40171  10.071   5.930   4.082 -0.1148 -0.0914  0.1298
23325W        W40172  14.467   5.020   3.412 -0.0609 -0.1934 -0.1300
23326W        W40173  13.128  12.827  12.362  0.0926 -0.5786  0.1262
23327W        W40174   8.811  19.487   0.430  0.0105  0.2159  0.1581
23328W        W40175  19.649   6.989  12.087  0.0136  0.1526  0.0863
23329W        W40176  18.038   5.444  13.010 -0.1064 -0.0085  0.0286
23330W        W40177   1.513  13.631   0.333 -0.0099  0.1267  0.2448
23331W        W40178   5.102  15.709   2.587 -0.0410 -0.0165 -0.2578
23332W        W40179  15.916  18.729  13.563  0.3758 -0.1870 -0.1528
23333W        W40180  12.055   6.421  11.508  0.1495 -0.3932  0.1362
23334W        W40181   8.071  18.935  10.646 -0.1417 -0.1135 -0.1458
23335W        W40182  18.209  12.604  13.550  0.1523  0.2110  0.5564
23336W        W40183  15.549   6.844  11.492  0.0688 -0.2752 -0.0615
23337W        W40184   0.085   1.002  13.169  0.0387  0.2983 -0.2816
23338W        W40185  11.184   1.967  11.660  0.0308 -0.0025 -0.1223
23339W        W40186  15.880   0.557   0.895  0.2488  0.0130 -0.0008
23340W        W40187   3.295   5.831   4.480  0.1924  0.3607  0.1529
23341W        W40188   6.980   7.166   3.703 -0.1115  0.1467 -0.0181
23342W        W40189   6.183  12.618   2.278 -0.0689 -0.2155 -0.2076
23343W        W40190   6.078   0.288   4.846 -0.0631 -0.0077  0.0488
23344W        W40191  14.611   9.405   1.024 -0.1397 -0.1134 -0.0816
23345W        W40192   5.361  12.396   1.027  0.0566 -0.2741  0.0261
23346W        W40193   0.934  18.671   0.028  0.2988 -0.0579 -0.0030
23347W        W40194  11.624   0.972  13.370  0.1936 -0.5575  0.2843
23348W        W40195  11.054  19.787   2.599  0.0475 -0.2905  0.0751
23349W        W40196   4.304   1.273  10.165 -0.1053  0.0574 -0.0192
23350W        W40197  18.039  11.821   5.118 -0.4371 -0.3485 -0.0350
23351W        W40198  16.596   6.045  10.581 -0.2220  0.2162 -0.2989
23352W        W40199  16.954  12.885  12.919 -0.4882 -0.3130  0.2223
23353W        W40200   7.477  14.762   1.644 -0.1950 -0.2383 -0.1472
23354W        W40201  12.865  18.581  12.570 -0.0244 -0.0791 -0.1201
23355W        W40202  18.071   0.477  11.963  0.3379 -0.0027 -0.3960
23356W        W40203  16.557  13.735   2.519 -0.2415  0.1657  0.2563
23357W        W40204  11.073  10.360  13.098  0.1696  0.2125 -0.0402
23358W        W40205  16.318   2.895   2.040  0.0781 -0.0879 -0.1751
23359W        W40206   6.695  17.649   0.699  0.0550 -0.4368 -0.2605
23360W        W40207  18.052  12.538  14.167 -0.1104  0.1808 -0.0028
23361W        W40208  15.777   2.598  12.774  0.0246 -0.1041  0.1958
23362W        W40209  12.055  11.600  12.002 -0.0465 -0.4434 -0.1721
23363W        W40210  18.506   0.785  11.882  0.3464  0.0213 -0.0708
23364W        W40211  11.246  16.959   4.971  0.0172 -0.0858 -0.0173
23365W        W40212   7.326   0.843   2.675 -0.2870  0.1052  0.0643
23366W        W40213  15.058  15.495  13.269  0.0674 -0.1802  0.0671
23367W        W40214   2.465  17.081   1.784  0.0305 -0.2660 -0.0334
23368W        W40215   4.650  13.991   9.843  0.2494  0.0161  0.0619
23369W        W40216   4.256   5.991  11.742  0.0662 -0.0090 -0.2233
23370W        W40217  17.212  16.510  12.511 -0.3500 -0.1205 -0.0350
23371W        W40218  18.822   9.648  13.506  0.3316  0.1936 -0.0435
23372W        W40219   2.976   3.234   1.948  0.1600 -0.2096 -0.1485
23373W        W40220  18.900  19.023  11.312  0.0250 -0.1366 -0.6660
23374W        W40221   2.947   0.274   2.042  0.2327  0.1666 -0.0808
23375W        W40222  10.433   7.046   2.416  0.2530  0.4249 -0.0156
23376W        W40223  10.546  14.791  14.230 -0.4938  0.1048 -0.1273
23377W        W40224  13.548   4.059  10.381 -0.5090 -0.1538  0.0370
23378W        W40225  12.781   5.744   2.371  0.0763 -0.0402  0.0213
23379W        W40226  14.424  10.248  12.866  0.0697  0.3854 -0.1831
23380W        W40227  12.243   2.870  10.541 -0.1184 -0.2518 -0.0770
23381W        W40228  12.891   1.363   1.438 -0.1442 -0.3745  0.2178
23382W        W40229  15.431  12.825   0.901  0.1483  0.3659  0.3562
23383W        W40230   8.949  16.729  13.960  0.3042  0.0609  0.1955
23384W        W40231  13.754   9.453   1.185  0.3570 -0.1224 -0.2826
23385W        W40232   4.604   6.605   1.831 -0.1785  0.0943 -0.0030
23386W        W40233  13.309  18.933   0.402  0.0546  0.1929  0.0194
23387W        W40234   2.434   0.349   2.582  0.3639 -0.3048 -0.1244
23388W        W40235  10.243   1.931  11.710 -0.1326 -0.0399  0.0721
23389W        W40236  11.592   7.641   0.688  0.0378  0.1614  0.4314
23390W        W40237   1.707   9.763   1.137 -0.2385 -0.2177 -0.1506
23391W        W40238   1.510  12.238  10.920  0.1172  0.1137 -0.3639
23392W        W40239  16.928  17.080  13.567 -0.0685 -0.3861  0.2947
23393W        W40240  16.338  11.217   3.480  0.1957  0.1705 -0.1351
23394W        W40241  18.564  10.871   3.802 -0.0685 -0.1749 -0.0623
23395W        W40242  17.075  13.332   4.602  0.1455  0.0178 -0.1533
23396W        W40243   9.994   3.269   1.349  0.4008 -0.0725  0.0911
23397W        W40244   0.304  17.753   2.924  0.3124  0.1549  0.1609
23398W        W40245   4.331  10.582  11.250  0.0693  0.0509  0.0871
23399W        W40246  11.545   4.498  12.754 -0.4648  0.1223  0.0534
23400W        W40247   4.029  13.803   2.264 -0.2398  0.0582 -0.1328
23401W        W40248   7.036  18.145  14.201  0.0396 -0.1970 -0.4029
23402W        W40249  19.432  11.205  13.873  0.2166 -0.1234 -0.0872
23403W        W40250  11.377   1.141   2.820  0.0840  0.0198  0.2320
23404W        W40251   3.749  17.822  10.857  0.3306  0.1242 -0.0245
23405W        W40252  19.541  18.729   2.123 -0.0407 -0.1019 -0.2500
23406W        W40253   4.061  19.110  13.556  0.0670  0.0859  0.1609
23407W        W40254   6.904  10.446   5.207  0.0546 -0.1532  0.1112
23408W        W40255  16.135  11.726   0.838 -0.0277  0.0471 -0.1445
23409W        W40256  18.065   7.380   0.596 -0.0854 -0.0475 -0.0896
23410W        W40257  18.157   3.780  10.473 -0.0701  0.1619  0.2185
23411W        W40258   6.901   4.215   4.290 -0.5656  0.2000  0.1414
23412W        W40259  15.090  12.472   3.309 -0.5161  0.3136  0.1411
23413W        W40260  16.047   3.289   2.363 -0.1035 -0.0470 -0.0803
23414W        W40261  13.873   1.010  13.363 -0.4382 -0.3641  0.4359
23415W        W40262   6.340   3.874  12.099 -0.0318  0.2158  0.1918
23416W        W40263   9.499  14.783  12.806  0.0524 -0.2634  0.0264
23417W        W40264  19.493   3.919   3.491  0.0164  0.0891  0.1893
23418W        W40265   5.159  16.212   1.277 -0.1534  0.1682 -0.2581
23419W        W40266   7.954   8.242   2.201 -0.1045 -0.0192  0.1697
23420W        W40267   5.896   3.225  10.665 -0.2989  0.0563  0.0785
23421W        W40268   8.720  11.854  12.610 -0.0635 -0.1331 -0.0727
23422W        W40269   8.395   8.211   1.502  0.0721 -0.0314  0.0619
23423W        W40270  16.570  12.424   0.123 -0.0332 -0.3860  0.0145
23424W        W40271   9.475   6.726   4.199  0.2642  0.2265  0.1665
23425W        W40272   3.551  16.806   1.325 -0.0570  0.1271  0.3465
23426W        W40273  14.385  12.986   3.069  0.1374 -0.1599 -0.1517
23427W        W40274   8.668   6.959   0.280  0.1171 -0.2574 -0.0167
23428W        W40275   1.568   6.623  12.546  0.2312 -0.1295  0.0546
23429W        W40276   0.752   9.462   0.032  0.2485 -0.0618 -0.4635
23430W        W40277  12.818  11.385  13.749  0.2188 -0.3386  0.2431
23431W        W40278   2.845   4.399   3.170 -0.1721 -0.2754 -0.1172
23432W        W40279   2.070  16.326   0.793  0.2634 -0.3318  0.0313
23433W        W40280   0.971  16.221  10.039  0.0054  0.0765  0.0087
23434W        W40281   9.818  18.488   0.767  0.2191 -0.2821 -0.0795
23435W        W40282  18.594   0.332   2.519  0.2863 -0.0070  0.0064
23436W        W40283   1.554   4.347  13.429 -0.2005  0.1572 -0.2616
23437W        W40284  15.434  15.081  11.811 -0.0979  0.3191  0.0118
23438W        W40285   3.415  19.592   2.136 -0.3597 -0.4904 -0.1204
23439W        W40286  11.747  17.689   2.508  0.1453  0.0177 -0.1488
23440W        W40287  14.681  14.726   0.366  0.2041 -0.0608  0.0798
23441W        W40288   1.844   7.630   0.200  0.3979  0.2055  0.2284
23442W        W40289  16.706  17.426   0.835  0.1076 -0.0258 -0.0778
23443W        W40290   6.975   7.208   1.428  0.1558 -0.1374 -0.2793
23444W        W40291   5.771   4.460  13.819 -0.2040  0.0073  0.0580
23445W        W40292   4.495  17.449  10.331  0.0228  0.2119  0.0409
23446W        W40293  14.237   3.396  13.830 -0.0135 -0.2084 -0.0200
23447W        W40294   6.036   6.900  10.886  0.0288  0.0574  0.0973
23448W        W40295   6.924   8.343   4.533 -0.1602  0.0809  0.0200
23449W        W40296  13.668   1.870  12.618 -0.0715  0.0902 -0.3840
23450W        W40297  16.659  18.560   3.955  0.0501 -0.0424  0.2838
23451W        W40298   6.896   3.677  11.120 -0.3198  0.2666  0.1256
23452W        W40299   3.463   9.407  12.618 -0.0858 -0.0304 -0.1805
23453W        W40300  19.767   9.814   2.801 -0.0750 -0.3632 -0.2195
23454W        W40301   5.956  12.191   2.230  0.1827 -0.1395 -0.0361
23455W        W40302   0.678  11.722   2.390 -0.2013 -0.2597 -0.2082
23456W        W40303   1.291   9.614  14.282  0.1337  0.3419  0.0674
23457W        W40304   3.926   9.528  12.825 -0.1526 -0.1460 -0.0361
23458W        W40305  13.224  13.417  12.306  0.1155 -0.0554 -0.0023
23459W        W40306  12.834   9.124   0.634 -0.2660  0.2239  0.0355
23460W        W40307   4.537   0.891   3.179  0.3251 -0.0385 -0.2543
23461W        W40308  17.258   1.310   3.920 -0.2408 -0.4309  0.1154
23462W        W40309  17.578   1.483  12.743 -0.4101  0.0460 -0.0197
23463W        W40310   8.773  19.129   3.952 -0.2898  0.0681  0.5060
23464W        W40311  18.771   7.444   3.176 -0.0625 -0.0156 -0.3045
23465W        W40312  19.000   3.570  10.586  0.0106  0.0025  0.1927
23466W        W40313   1.819   8.343   4.051  0.1385  0.4665  0.2819
23467W        W40314   5.538  18.634  10.849 -0.1463 -0.1797 -0.2210
23468W        W40315  13.103   8.737   0.609 -0.0127  0.1398  0.1160
23469W        W40316  19.090   5.367   1.228  0.0967 -0.1336 -0.1021
23470W        W40317   0.934   3.270   3.904  0.1422 -0.0793 -0.1541
23471W        W40318   1.099  18.056   2.852 -0.1711  0.0830  0.0840
23472W        W40319  10.172  12.765   3.554 -0.1640 -0.0451 -0.2089
23473W        W40320  10.631   1.087  11.813  0.1602 -0.0271 -0.1011
23474W        W40321  11.776  17.845   3.828  0.0796  0.0123  0.3831
23475W        W40322   9.642  16.112  13.155 -0.2920 -0.3765  0.2492
23476W        W40323  15.913   5.324   2.889  0.0161  0.1420  0.2001
23477W        W40324   8.757  13.916  10.710  0.0032  0.3162  0.1083
23478W        W40325  12.637  18.981   2.215  0.2855 -0.1774 -0.0166
23479W        W40326  10.103   0.301  13.654  0.0782  0.1882  0.1283
23480W        W40327  14.635   5.201   0.575  0.1070 -0.5766  0.2373
23481W        W40328  12.183  11.228   3.428 -0.2817 -0.0593 -0.1777
23482W        W40329   4.186  11.658   0.114 -0.1399 -0.0890 -0.1486
23483W        W40330   5.290  18.050  11.388  0.1778  0.0619 -0.1170
23484W        W40331   5.263  14.622   4.543  0.1374  0.0848  0.1061
23485W        W40332   6.880   5.494   0.079 -0.0248  0.1572 -0.0258
23486W        W40333  18.961  17.578   1.432 -0.0918  0.1419  0.2073
23487W        W40334  12.200  18.234  11.973  0.0241 -0.0463 -0.1909
23488W        W40335  13.966  13.911   3.343 -0.0619  0.3558 -0.4433
23489W        W40336  13.673  12.264  10.260 -0.0943  0.2398 -0.1093
23490W        W40337  12.351  10.082   5.209  0.1503 -0.0721 -0.1114
23491W        W40338   2.554   1.520   1.046  0.0815  0.0205 -0.0866
23492W        W40339   1.737  13.731  12.122  0.0460 -0.4178 -0.1065
23493W        W40340   6.216  12.687   3.747 -0.1051 -0.2270  0.1728
23494W        W40341   9.256  11.070   0.697  0.0092 -0.0529 -0.0400
23495W        W40342   8.775   7.832  11.585  0.0121  0.0315 -0.2819
23496W        W40343  13.073  10.628   2.040 -0.0300  0.1654 -0.1077
23497W        W40344  10.359   1.827   3.231  0.0565 -0.2335  0.0668
23498W        W40345   4.429  12.610   0.129 -0.3004  0.2829  0.4271
23499W        W40346  10.720  11.225  14.036  0.1019  0.0459 -0.0432
23500W        W40347   8.172  14.599  10.451  0.2554 -0.0723  0.0296
23501W        W40348  14.363   1.715   5.378 -0.1229  0.0282  0.4448
23502W        W40349  11.460  18.370  11.449 -0.4372  0.0380 -0.0208
23503W        W40350   2.708   3.079   3.746  0.4554  0.0983  0.3204
23504W        W40351  15.321   8.720   2.643 -0.2876  0.2448  0.1032
23505W        W40352   6.221  14.679  13.968  0.0994 -0.2550 -0.1402
23506W        W40353   4.681  10.180  13.351 -0.0119  0.2205  0.3062
23507W        W40354   7.260  18.945  12.246  0.0667  0.3377  0.0174
23508W        W40355  10.394   4.084  14.225  0.1234  0.0645  0.1439
23509W        W40356   7.540  15.805   0.771  0.1113  0.0616 -0.3423
23510W        W40357  13.911   1.306   4.719  0.1109 -0.1616 -0.3065
23511W        W40358  14.850   6.125   4.393  0.2445 -0.0972 -0.0690
23512W        W40359  17.427  19.071   2.898 -0.2935 -0.2940  0.4508
23513W        W40360   7.206   1.485   0.467 -0.2390  0.0376 -0.4595
23514W        W40361  16.273  16.211   3.757 -0.1627 -0.2011  0.1423
23515W        W40362   7.336   5.361   2.545  0.0457 -0.2959 -0.3619
23516W        W40363   6.091   3.693  10.763 -0.0157 -0.4287  0.1275
23517W        W40364   8.822   5.816   1.080  0.1522  0.2800  0.0436
23518W        W40365  13.780   4.023  11.151  0.1294  0.2197 -0.1149
23519W        W40366  16.730  13.973   0.175  0.1630 -0.1238  0.1153
23520W        W40367   4.126  18.580  10.673  0.1503 -0.2166  0.0184
23521W        W40368   2.622   0.633   4.543  0.2329 -0.0006  0.2747
23522W        W40369   1.817  10.845  13.910  0.0703 -0.0337  0.0120
23523W        W40370  11.481   2.566  13.264  0.0005  0.0899  0.1291
23524W        W40371   7.932  18.488   1.425  0.3331  0.0463 -0.3560
23525W        W40372  14.029   7.420  13.151 -0.0866  0.2468  0.0558
23526W        W40373   7.879  16.534   0.606 -0.1072  0.1942  0.0149
23527W        W40374  12.292   2.716   9.516 -0.2885 -0.3160  0.1338
23528W        W40375   8.101  13.700  12.179  0.2760 -0.0781  0.1668
23529W        W40376  15.107  17.445   2.485  0.1674 -0.0479 -0.0982
23530W        W40377  16.896   1.664  10.323 -0.0523  0.0546 -0.0118
23531W        W40378  14.447  11.111   5.355 -0.1910  0.1888 -0.3822
23532W        W40379  18.580   7.051   5.009  0.3383 -0.1639  0.3259
23533W        W40380  15.747  17.631   2.022 -0.1638 -0.0837  0.0644
23534W        W40381   8.077   1.390  12.293 -0.3567 -0.1353 -0.1455
23535W        W40382   9.471  12.230  11.385  0.0421 -0.3443 -0.1370
23536W        W40383  16.886  16.083   2.382 -0.2986  0.1497 -0.0252
23537W        W40384  14.738  12.291   1.967  0.1679 -0.3362 -0.0613
23538W        W40385  13.871  13.893  11.090 -0.1458  0.0126  0.0888
23539W        W40386   7.242   7.369   1.814  0.2005 -0.0802  0.1743
23540W        W40387   2.638  13.874  14.054  0.1825 -0.1036  0.0817
23541W        W40388  16.919  18.015   2.015 -0.1694 -0.0421 -0.0450
23542W        W40389   5.461  17.223  13.372  0.2500  0.1727 -0.2814
23543W        W40390   6.376   7.875   3.644 -0.0792 -0.1223 -0.0741
23544W        W40391  10.280   3.839   0.425 -0.1297 -0.0362  0.3736
23545W        W40392   3.388  17.137  11.107  0.2199  0.1326 -0.0656
23546W        W40393  10.591   4.120   0.958  0.0837 -0.2824  0.0175
23547W        W40394  16.399  11.843  10.749  0.0276  0.2757 -0.1057
23548W        W40395   3.681   0.721   3.462 -0.3117 -0.0455 -0.0288
23549W        W40396  16.781  15.490   3.990 -0.1360  0.0081  0.0330
23550W        W40397  13.576   8.812  12.205 -0.1035  0.2050  0.1076
23551W        W40398   2.340   1.656   1.557 -0.2758  0.2169  0.0124
23552W        W40399   0.198  13.427   0.300 -0.0347  0.2092  0.0393
23553W        W40400  19.690   6.255  10.579  0.0819 -0.0398  0.2852
23554W        W40401  19.058   0.931   0.448 -0.1790 -0.1980  0.3840
23555W        W40402   2.638  14.589   4.599  0.0304  0.0834 -0.0415
23556W        W40403   9.184   7.379   4.657  0.0226 -0.0445  0.1728
23557W        W40404  19.349  11.412   4.271 -0.1369  0.0873 -0.3413
23558W        W40405  12.594   1.867   2.172 -0.0608  0.1421 -0.1322
23559W        W40406  19.574  15.650  12.467  0.0284  0.4874 -0.0664
23560W        W40407   8.329   7.156   1.450  0.0254 -0.0481  0.2179
23561W        W40408   4.322  12.829   1.456 -0.1020 -0.3860 -0.0519
23562W        W40409   1.236  18.174  14.262  0.2856  0.6351 -0.1901
23563W        W40410  16.259  15.083   2.988  0.4844  0.1053 -0.2597
23564W        W40411  10.179   2.425   5.468  0.5634  0.1333 -0.2369
23565W        W40412   6.832   5.920   3.920  0.1288 -0.3535  0.0557
23566W        W40413  12.800   5.767  13.421 -0.0880  0.1835 -0.4497
23567W        W40414   1.670   0.824  10.720  0.0145 -0.0292 -0.1671
23568W        W40415   0.271  10.630  12.893 -0.1948 -0.0320  0.2146
23569W        W40416  15.130   9.999   9.199  0.4568 -0.1967 -0.2593
23570W        W40417   3.464  17.299   1.236  0.2777 -0.1672  0.2202
23571W        W40418  12.507  12.767   0.152 -0.1827 -0.2533 -0.1817
23572W        W40419   9.597   9.560   3.118 -0.3860 -0.1993  0.2823
23573W        W40420   7.699  16.580   9.566 -0.1666 -0.0088  0.0619
23574W        W40421   7.528   3.064   2.386  0.2358 -0.3295  0.1418
23575W        W40422   3.865   4.207  12.694 -0.0096 -0.1242  0.1882
23576W        W40423  14.303  10.418  11.010  0.3185  0.0592 -0.0711
23577W        W40424   3.030  13.802   0.547 -0.2379  0.1034  0.0552
23578W        W40425   6.282  13.513   1.463 -0.1555  0.1190 -0.0077
23579W        W40426  13.948   5.415  12.188 -0.0003  0.0545 -0.2382
23580W        W40427  12.237   8.167  13.592  0.1475 -0.1370  0.1042
23581W        W40428   4.823   1.521   4.403 -0.1774  0.1779  0.4085
23582W        W40429  10.951   3.364   3.469 -0.0157 -0.0787 -0.2016
23583W        W40430   3.089   1.383  10.909 -0.0227 -0.4229  0.3106
23584W        W40431   3.759  12.362   2.554  0.0671 -0.1262  0.1486
23585W        W40432   7.546   0.823  13.008 -0.1651 -0.0227 -0.1216
23586W        W40433  11.481   5.548  11.188 -0.1173 -0.2391  0.3097
23587W        W40434   9.706   1.246  10.233 -0.1632 -0.0644 -0.0305
23588W        W40435  13.947   3.105   4.429  0.1657  0.1214 -0.1177
23589W        W40436  16.877  12.954  12.061 -0.0232 -0.1219 -0.1210
23590W        W40437   3.528  13.298   1.584  0.2627  0.0504  0.0287
23591W        W40438   0.134   9.299   9.978  0.2271 -0.0044 -0.3159
23592W        W40439  10.413   7.083   0.282  0.0519 -0.0388  0.1018
23593W        W40440   0.659  13.636   1.368  0.0510 -0.3002 -0.2989
23594W        W40441  10.924  18.222  14.250  0.2284 -0.1651 -0.2485
23595W        W40442   5.840   2.480   1.060 -0.3943 -0.0531  0.2948
23596W        W40443  16.863  14.259  12.626 -0.0256  0.0321 -0.0762
23597W        W40444   1.707   3.620  11.411 -0.4696 -0.1576 -0.5350
23598W        W40445  11.590   2.005  11.229 -0.2834 -0.3823 -0.2364
23599W        W40446   6.260   8.295   3.938 -0.2474 -0.2029 -0.4246
23600W        W40447   6.712   3.986  12.946  0.0918  0.1450  0.2078
23601W        W40448  11.100  19.031  12.679  0.1179 -0.0615 -0.0459
23602W        W40449  15.110  16.278   1.289 -0.1746 -0.0487  0.1088
23603W        W40450  16.992   9.705  13.074  0.3185 -0.2062 -0.0678
23604W        W40451   9.912  10.970  11.427 -0.0025  0.2894  0.0680
23605W        W40452  16.019  10.194  13.472 -0.1279  0.2537  0.1398
23606W        W40453   5.843  11.174   0.929 -0.0160 -0.1024  0.0810
23607W        W40454   8.302   8.891   5.408  0.1741  0.0818 -0.1787
23608W        W40455   8.948   4.978  10.680  0.2199 -0.2801 -0.0297
23609W        W40456   7.960   0.739   3.837 -0.4067  0.0649 -0.4496
23610W        W40457   3.245   0.028  12.559  0.0895 -0.1106  0.0861
23611W        W40458   4.395  15.602  13.885 -0.1126  0.2423  0.0838
23612W        W40459   6.538   8.886  11.253  0.0662 -0.1480 -0.3063
23613W        W40460  17.421  12.865  10.511 -0.4854 -0.2310 -0.0347
23614W        W40461   5.570   8.891  13.420  0.0709 -0.0814  0.0049
23615W        W40462  11.078   5.991  13.732  0.0320  0.1423  0.3500
23616W        W40463  16.176  10.608   0.565  0.1851 -0.1059  0.0365
23617W        W40464  15.212   6.643  11.768  0.0362  0.0246  0.1276
23618W        W40465  16.127  15.195  12.589 -0.1565  0.0415  0.0274
23619W        W40466  19.110   0.086   1.773  0.4651 -0.1577 -0.1873
23620W        W40467   4.028  17.819  11.256  0.2997  0.3607 -0.0330
23621W        W40468  11.352   4.704   1.941  0.4525 -0.1029 -0.1061
23622W        W40469   1.185  15.527   0.173  0.0005 -0.0897 -0.3026
23623W        W40470  11.544   0.995   4.993  0.0901 -0.2389  0.0911
23624W        W40471   7.173  19.663   1.826 -0.3394 -0.3935 -0.0029
23625W        W40472   8.482  12.977  10.011 -0.1248 -0.0554 -0.1141
23626W        W40473   0.459   9.925  12.389  0.0626 -0.0145 -0.1206
23627W        W40474  18.017   3.415   2.185 -0.0110  0.5487  0.2478
23628W        W40475   6.805   1.236   1.436  0.0326  0.0466  0.0594
23629W        W40476  19.655  15.116   0.721 -0.2438 -0.0098 -0.3978
23630W        W40477   2.270  16.882   3.388  0.2404 -0.0110  0.2138
23631W        W40478   1.246  16.516   0.018  0.1539  0.0836 -0.0229
23632W        W40479   2.565  12.372  13.032  0.1196  0.2931 -0.2288
23633W        W40480   3.515   6.508   1.890  0.2876  0.1646 -0.1774
23634W        W40481  14.012  13.218   4.067  0.1266  0.2136 -0.0353
23635W        W40482   0.751   6.286  12.962  0.0710 -0.1845  0.1681
23636W        W40483  13.428   5.985   0.544 -0.3132 -0.2788  0.1733
23637W        W40484   8.253   0.551  11.019 -0.0556  0.1856  0.3499
23638W        W40485   1.100   5.225  10.777 -0.2762  0.4915  0.1235
23639W        W40486   6.052  17.960  10.645  0.0426 -0.1924 -0.4601
23640W        W40487  17.229  16.215   1.377  0.0986 -0.0287 -0.0608
23641W        W40488   5.455   7.111   1.035 -0.0157  0.0319 -0.0798
23642W        W40489   4.384   0.060   3.212 -0.1453 -0.0776 -0.0449
23643W        W40490  10.589   0.777  11.388  0.0088  0.0277 -0.1094
23644W        W40491  15.330  12.826   2.932  0.3249 -0.1363 -0.1313
23645W        W40492  17.991  11.518   2.680  0.0031  0.1104 -0.0248
23646W        W40493   6.501  10.511  10.324 -0.2915  0.0546  0.1223
23647W        W40494  17.857   2.688   2.309  0.0469  0.3827  0.1423
23648W        W40495   1.943  17.019  12.394  0.1626  0.2541  0.0733
23649W        W40496  14.607   6.199   0.904  0.1640 -0.0520  0.1563
23650W        W40497  18.982  15.078  13.057  0.0366 -0.0567 -0.0137
23651W        W40498   4.290  15.793  10.096  0.0474  0.0736 -0.3497
23652W        W40499  13.405   6.211  11.231 -0.3579 -0.1850  0.1707
23653W        W40500   6.615  12.959  12.916 -0.0222 -0.0405 -0.0806
23654W        W40501  11.727  19.781  11.199  0.0398  0.0072 -0.0217
23655W        W40502   2.341  17.369   0.577  0.1646 -0.2729 -0.0332
23656W        W40503   4.052  16.933   9.469  0.1263  0.2446  0.0509
23657W        W40504  15.741   7.400   0.368  0.0485 -0.3268 -0.2929
23658W        W40505  17.514   8.502  12.516  0.0418  0.0783  0.3505
23659W        W40506   9.337  18.971   1.659 -0.1095  0.1055  0.0163
23660W        W40507  16.445   6.682   3.450 -0.1421 -0.4937  0.2679
23661W        W40508   6.191  18.820  11.654 -0.0410 -0.1415 -0.3898
23662W        W40509   6.460   5.235  10.824  0.1081  0.0091 -0.1248
23663W        W40510   6.605   5.879  10.551 -0.1182  0.1376  0.1475
23664W        W40511   4.792   5.345  14.029 -0.2833  0.1323  0.1165
23665W        W40512   0.756  11.837  13.895 -0.2131 -0.3699  0.1439
23666W        W40513  18.075   5.479   1.082  0.0703  0.2221 -0.1020
23667W        W40514   9.043  18.237   2.165 -0.0443  0.1145  0.0159
23668W        W40515   4.056   0.177   1.949 -0.3687  0.0605  0.2029
23669W        W40516   5.869   0.904  10.742 -0.2288  0.0120  0.2737
23670W        W40517  14.737   4.698   4.102 -0.3076 -0.1773 -0.3444
23671W        W40518   4.629   6.041  12.242 -0.1055 -0.2912  0.2756
23672W        W40519   2.623   8.950  11.599  0.0851 -0.2048  0.1545
23673W        W40520  16.527   3.790  12.962  0.1461 -0.1870  0.0597
23674W        W40521  18.942  13.956  13.754 -0.0422  0.1584 -0.0454
23675W        W40522  12.786  11.648   2.831  0.2373 -0.0565  0.1282
23676W        W40523  16.415  13.827  14.090  0.1314  0.1678  0.0520
23677W        W40524  10.289   4.660  10.854  0.1291 -0.1972 -0.1967
23678W        W40525  18.078   1.523   1.519 -0.0074 -0.0703  0.0874
23679W        W40526  19.443  15.731  13.642 -0.0278 -0.0158  0.0623
23680W        W40527  17.660  12.128   5.182  0.1564 -0.1039 -0.0982
23681W        W40528  11.662   4.846   2.991 -0.1942  0.0617 -0.1265
23682W        W40529   7.801   6.596   1.820  0.1458  0.2453  0.1589
23683W        W40530   1.500  11.633   1.923  0.0572 -0.2732 -0.0746
23684W        W40531  14.461   3.511   2.286 -0.1441 -0.0397  0.1574
23685W        W40532  11.408   4.231  10.065  0.0101 -0.2442 -0.4992
23686W        W40533   9.035  12.767   3.570  0.0006  0.2150  0.2048
23687W        W40534  12.246  10.500   3.099  0.2794 -0.0255  0.2235
23688W        W40535   8.951  15.551  13.647  0.0505 -0.0356  0.0696
23689W        W40536   9.734   7.830  12.682  0.0545  0.0172  0.1734
23690W        W40537   0.670  15.346   4.604 -0.1553  0.0738  0.0040
23691W        W40538   1.109   9.674   4.274 -0.0976 -0.2114 -0.3796
23692W        W40539   0.551   1.398  11.456 -0.1276  0.0440 -0.0619
23693W        W40540   9.274   3.786   2.916 -0.0336 -0.0461 -0.3003
23694W        W40541  15.599   4.802   3.071  0.1804 -0.0458  0.0993
23695W        W40542  13.549   0.545  12.614 -0.3434 -0.2090 -0.0935
23696W        W40543   5.170  18.331  14.164 -0.2691  0.1142 -0.1124
23697W        W40544  11.937  13.770  13.827 -0.0944 -0.4826 -0.2332
23698W        W40545   1.619  12.544   0.396 -0.1246 -0.0704 -0.2613
23699W        W40546   6.896   1.054   1.966 -0.0091 -0.0005  0.0131
23700W        W40547   6.294  16.550   2.719 -0.0222 -0.0441 -0.1157
23701W        W40548   4.561  17.126   0.878 -0.1848 -0.1008 -0.0223
23702W        W40549  18.871  19.825  10.596  0.1683 -0.0422 -0.2119
23703W        W40550   9.997   7.984   9.499 -0.1907 -0.1010  0.0159
23704W        W40551   9.175   5.659   4.600  0.2468  0.0333 -0.0797
23705W        W40552   1.834   0.089   5.488  0.2289 -0.2162 -0.0406
23706W        W40553  17.838  14.207   4.286  0.1345  0.1432  0.1375
23707W        W40554   9.017  10.733   0.396 -0.0781 -0.0101  0.2043
23708W        W40555   4.853   7.881  10.456  0.0582  0.1684  0.1653
23709W        W40556   2.844  11.288   2.879 -0.2060 -0.0085  0.0519
23710W        W40557  18.710  16.720  11.992  0.3104  0.1163  0.0401
23711W        W40558  19.137   0.732  13.422  0.4455  0.0097  0.0956
23712W        W40559  15.135  11.402  12.165  0.0949  0.2217  0.1659
23713W        W40560  17.985  18.674  12.130  0.0555 -0.3294 -0.3156
23714W        W40561   1.339  12.644  12.838 -0.3985  0.0948  0.1776
23715W        W40562   8.828   2.844   1.443  0.1798 -0.0604 -0.0952
23716W        W40563   2.071  17.504  12.868 -0.4010  0.1169 -0.1661
23717W        W40564   2.008  13.329   2.027 -0.1648 -0.1756  0.2366
23718W        W40565   6.857  12.859  11.532  0.1600  0.1445 -0.0413
23719W        W40566   8.890   1.521   1.315 -0.0370  0.0689  0.1211
23720W        W40567   0.701   7.554  12.858 -0.1793 -0.1453  0.2055
23721W        W40568  13.504   5.613  11.954  0.4643 -0.0101  0.0579
23722W        W40569   1.302   4.851  12.917  0.4512  0.0673 -0.0988
23723W        W40570   0.650   7.845  14.022 -0.0101  0.0318  0.3251
23724W        W40571  11.766   9.262   9.818 -0.0463  0.0640 -0.2302
23725W        W40572   0.031  10.802  12.042 -0.4337  0.0348 -0.0052
23726W        W40573   3.941   3.779   2.871  0.2091 -0.0723 -0.1556
23727W        W40574   2.778  14.229   2.403 -0.3370  0.1099  0.3365
23728W        W40575   3.100  15.740  12.994  0.4011  0.0815 -0.2407
23729W        W40576   7.434   3.991   0.159 -0.1531 -0.2846  0.0940
23730W        W40577   4.168   8.205  13.210  0.2336 -0.2559 -0.2002
23731W        W40578  19.097  16.576  11.749 -0.0432  0.2063  0.0433
23732W        W40579   7.366   3.888  11.101  0.2744 -0.0685 -0.1242
23733W        W40580  18.821   6.528   4.223  0.3189 -0.0536  0.0499
23734W        W40581  10.891  10.931   9.813 -0.0116  0.1976  0.0989
23735W        W40582   4.824  15.885   4.922  0.2733 -0.1305  0.0328
23736W        W40583  13.821   4.372   0.311  0.1260  0.1593  0.0778
23737W        W40584   4.078  16.584   2.941 -0.0164 -0.0560 -0.0212
23738W        W40585  19.231  11.012   5.058  0.1754  0.0798  0.1140
23739W        W40586  12.947   1.376   0.120  0.2967  0.0638  0.1091
23740W        W40587  11.820  18.855   9.205  0.1473 -0.1470  0.1264
23741W        W40588   0.854  12.009   3.226  0.1315 -0.1268  0.1653
23742W        W40589   2.749  11.776  13.834 -0.1116 -0.5289  0.2933
23743W        W40590   5.453  16.528   3.618  0.0981  0.1027  0.0663
23744W        W40591   9.963   0.446  11.961  0.1897  0.1491 -0.0205
23745W        W40592  18.558   1.220  10.279  0.2756 -0.2478  0.0864
23746W        W40593  16.300  17.352   2.046  0.2207  0.1077  0.0240
23747W        W40594   9.021  14.453  13.152  0.2053  0.0506 -0.1880
23748W        W40595   4.835   7.609  11.254  0.0799 -0.4593 -0.1152
23749W        W40596  17.265   9.382  13.986 -0.2591  0.3551 -0.1216
23750W        W40597   0.177   4.557  13.783  0.0021  0.0442 -0.0559
23751W        W40598  10.451   3.531  13.581 -0.2353  0.4716 -0.2641
23752W        W40599  12.800  14.356   4.183  0.0752 -0.0571  0.0045
23753W        W40600  15.863   0.941   2.953 -0.0226 -0.2705  0.4287
23754W        W40601   1.634   2.573  10.332  0.1851  0.0835 -0.1022
23755W        W40602  15.251   5.876  10.441 -0.5253  0.0178  0.2399
23756W        W40603   1.860   6.046  10.248 -0.1671  0.0781 -0.4664
23757W        W40604   2.663   7.544  11.330  0.1455 -0.1618 -0.2781
23758W        W40605  15.869   7.431   5.097  0.0246 -0.0629  0.0810
23759W        W40606   6.951   0.359   0.329 -0.0355 -0.1243 -0.0996
23760W        W40607  15.641   7.817  10.895 -0.0998 -0.0227  0.2319
23761W        W40608   1.872   7.674  13.080  0.2744 -0.1256  0.0477
23762W        W40609   6.196  13.604  10.052 -0.1118  0.1551 -0.1787
23763W        W40610   5.939   5.865   3.521 -0.1713  0.4725  0.1720
23764W        W40611  15.918   1.248  11.823 -0.0160 -0.0991 -0.5255
23765W        W40612   1.672  19.924   2.085 -0.2287  0.2206 -0.1574
23766W        W40613   0.681  12.071   1.459  0.1608  0.0398  0.0267
23767W        W40614   8.409  17.885   1.869 -0.0393 -0.0720 -0.0612
23768W        W40615  12.125  19.258  13.860 -0.1928 -0.1895 -0.1806
23769W        W40616  14.789   3.900   2.257  0.2600  0.0375  0.0128
23770W        W40617  19.570  19.336  11.196  0.3184 -0.1148  0.3942
23771W        W40618   4.180  13.398  12.183 -0.1350 -0.4581  0.0572
23772W        W40619   0.189   9.964  10.635  0.6746 -0.0118 -0.6177
23773W        W40620  19.222   7.294   4.058 -0.0258 -0.0663 -0.0670
23774W        W40621   4.979   8.838  10.150  0.0591  0.1885 -0.5519
23775W        W40622  12.645   6.622  11.415 -0.0005 -0.1619 -0.0957
23776W        W40623  13.082   7.230  12.901  0.0568 -0.0821 -0.0428
23777W        W40624   5.927  10.851   0.539 -0.0445 -0.0085  0.0461
23778W        W40625   6.588   7.511   3.939  0.0799 -0.0155 -0.2891
23779W        W40626  12.063  13.241  11.111 -0.2940  0.2058  0.1259
23780W        W40627   2.315   3.014  10.518 -0.2765  0.2882 -0.0512
23781W        W40628  19.684   0.573   4.409  0.0791 -0.0527  0.0918
23782W        W40629  13.504   8.283  10.463  0.2598 -0.1559  0.1322
23783W        W40630  11.927   9.187   2.023  0.1194  0.0033 -0.4425
23784W        W40631  11.175   7.361  13.862  0.0857 -0.1036  0.0308
23785W        W40632  19.603   4.805  10.706  0.0085 -0.2537 -0.2466
23786W        W40633   9.998   5.861  13.870 -0.0806  0.1922  0.1421
23787W        W40634  17.777   4.201   1.490  0.0298  0.2837  0.1835
23788W        W40635  10.624   1.619  10.664 -0.2246 -0.1412  0.0298
23789W        W40636  10.849  19.045  10.046 -0.1339  0.2948  0.2519
23790W        W40637  16.908   4.709  14.208 -0.1186 -0.1832 -0.0188
23791W        W40638  10.128  13.992  11.853  0.1245 -0.0861 -0.1775
23792W        W40639   4.308  10.539   2.464  0.2098  0.0182 -0.1668
23793W        W40640  15.370  19.211  13.084  0.1440  0.4141  0.1546
23794W        W40641   2.425   3.556   9.806 -0.0610 -0.2847 -0.1899
23795W        W40642   6.537   7.562  11.943  0.1191  0.2875  0.1917
23796W        W40643  15.117   3.654  10.522 -0.2217  0.2597  0.0181
23797W        W40644  15.933   5.627   1.881 -0.0328  0.0523 -0.1839
23798W        W40645  17.923   3.091   4.298 -0.0555  0.0089 -0.0683
23799W        W40646  12.195   3.028  12.185 -0.1764 -0.0409 -0.1748
23800W        W40647   0.875   2.023   3.333 -0.0341 -0.0799  0.1871
23801W        W40648   5.889   3.554  10.293 -0.2277  0.1928  0.1851
23802W        W40649   1.667   3.954   0.298  0.1950 -0.3305 -0.2660
23803W        W40650   5.817  19.101   3.795 -0.0192  0.0422  0.2092
23804W        W40651  11.113   0.979   1.847 -0.0380 -0.2498  0.2592
23805W        W40652   1.499  16.318   4.808 -0.2585  0.1856 -0.0188
23806W        W40653  12.153  11.528  12.559 -0.0865  0.1243 -0.1735
23807W        W40654   7.350   3.419  11.389 -0.0144 -0.2365 -0.0959
23808W        W40655  16.794  16.606   1.815 -0.0734  0.1123 -0.0546
23809W        W40656  14.315  10.271   2.261  0.1176  0.0635  0.1197
23810W        W40657   7.872  10.002   4.892 -0.2754  0.1191 -0.1395
23811W        W40658  13.987  16.561  14.172 -0.1834  0.2876 -0.0960
23812W        W40659   8.821  19.788  14.305  0.5008  0.1011 -0.2823
23813W        W40660   8.092  10.682  12.808  0.3716  0.0340  0.0620
23814W        W40661   1.235  12.919  13.292 -0.1425  0.1643  0.0847
23815W        W40662  16.573   8.735   1.983  0.2294  0.0204 -0.1444
23816W        W40663   3.683   2.442  11.451 -0.1195  0.2643  0.0247
23817W        W40664  18.322  13.368   0.321 -0.2706  0.0443  0.0107
23818W        W40665  19.169   5.542  11.228  0.1325  0.0689  0.2167
23819W        W40666  18.711   0.015   0.198 -0.3154  0.3915 -0.0284
23820W        W40667   1.138   0.073  11.910  0.1883 -0.0620  0.0657
23821W        W40668  14.439   6.684  13.623  0.0713  0.0225 -0.0349
23822W        W40669   6.080   5.518   1.737  0.2712 -0.0005  0.3504
23823W        W40670  13.517  13.850  12.511 -0.1763 -0.2808  0.0421
23824W        W40671   4.468   8.880  11.625 -0.3059 -0.2368  0.3947
23825W        W40672   9.497   9.860  10.215  0.0727 -0.0572  0.0591
23826W        W40673   5.382   4.710  11.272 -0.1765  0.1341  0.1861
23827W        W40674   5.471   6.898  10.551  0.0555  0.1598 -0.0572
23828W        W40675  17.996   2.841   4.824 -0.1425  0.2026  0.3159
23829W        W40676   3.050   7.309   4.089 -0.3585  0.1647 -0.1268
23830W        W40677   3.001   5.785  10.897  0.1700 -0.0350  0.0303
23831W        W40678   9.216   5.893  10.648  0.1375  0.0954  0.1588
23832W        W40679   5.352   6.875   2.796  0.0647 -0.2604 -0.0106
23833W        W40680  16.936   0.778   4.260 -0.1133 -0.0041  0.2984
23834W        W40681  12.461   0.178   4.209 -0.2398  0.0214 -0.0398
23835W        W40682   1.566   5.661   4.198 -0.1222  0.1162 -0.0802
23836W        W40683   2.370   3.604   4.480 -0.0176  0.4435 -0.2573
23837W        W40684  15.727  10.699   3.912 -0.2876 -0.3157  0.0320
23838W        W40685  17.363  15.673  12.272  0.1110  0.1188  0.2940
23839W        W40686  16.634  13.273  13.807 -0.0116  0.2674 -0.3155
23840W        W40687  18.063  18.070   2.807 -0.2635  0.1469 -0.1269
23841W        W40688   0.763  12.185  13.486 -0.1919  0.3043 -0.1139
23842W        W40689  12.042  15.813   1.755  0.1197 -0.0030  0.0443
23843W        W40690  12.879  16.912  13.490  0.1979  0.0756  0.0433
23844W        W40691  13.192  15.818  12.134  0.5459  0.1788  0.1311
23845W        W40692  10.969   1.457   2.783 -0.1111  0.1097 -0.4534
23846W        W40693   8.130   4.318  10.613  0.0238 -0.2255 -0.1967
23847W        W40694  11.902  16.599  12.442 -0.0561 -0.4201 -0.0003
23848W        W40695  19.699  14.575  13.146 -0.0030  0.0413  0.1250
23849W        W40696   7.135  16.244  12.868  0.1716  0.0444 -0.0523
23850W        W40697  14.714   4.239   2.894 -0.0963  0.1079 -0.2391
23851W        W40698   5.751   7.748   4.523  0.0881  0.2492 -0.5188
23852W        W40699  12.952  11.150  14.196  0.1087 -0.1460 -0.0629
23853W        W40700   1.291  13.773  14.243  0.4092  0.1126 -0.1765
23854W        W40701   8.938  11.538   0.007 -0.1698  0.0787 -0.1939
23855W        W40702   4.264  17.574   4.656 -0.0616 -0.2222 -0.1485
23856W        W40703   3.634  16.451  12.908  0.0077  0.1956  0.1401
23857W        W40704   5.774  14.156   1.474  0.0125 -0.1391  0.3238
23858W        W40705   6.997   2.399   1.939 -0.1104 -0.0310 -0.1451
23859W        W40706  11.196  12.481  13.951 -0.1253 -0.0426  0.1961
23860W        W40707   9.434  16.869  13.827  0.0215 -0.0564  0.0744
23861W        W40708  15.490   1.901  12.177 -0.0563  0.0467  0.1170
23862W        W40709   5.045   6.445   3.455 -0.3154 -0.0007  0.0065
23863W        W40710   9.248   4.163   2.050 -0.1125 -0.4161 -0.1191
23864W        W40711  19.584  12.953  10.378  0.0600 -0.0341 -0.0330
23865W        W40712  10.212   3.250  11.702 -0.2170 -0.0216  0.1416
23866W        W40713   2.876   8.113  11.512  0.1020 -0.3295 -0.0683
23867W        W40714   3.645  13.254  12.088 -0.0882 -0.1828  0.2031
23868W        W40715   3.255   3.188   3.611 -0.2239  0.0915  0.1765
23869W        W40716   0.165   8.207   5.380  0.0461  0.2552 -0.0914
23870W        W40717  10.178   0.086  13.177  0.1195 -0.1707  0.4589
23871W        W40718  19.902   5.898  12.635  0.3274 -0.1210  0.2271
23872W        W40719   2.582  13.634  10.234  0.0181 -0.1283 -0.2118
23873W        W40720  18.920   6.274  11.154  0.1895  0.2464  0.1256
23874W        W40721   1.706  16.029  11.526  0.0069  0.1719 -0.2503
23875W        W40722   3.876  11.729   3.232  0.0396  0.1245  0.0898
23876W        W40723   0.847  12.727  11.157 -0.1114  0.0909 -0.2078
23877W        W40724   2.840  11.077  14.213  0.2253  0.1336 -0.0200
23878W        W40725  18.701  16.920  11.558  0.1016  0.0330  0.1058
23879W        W40726  10.982   4.600   0.819 -0.0147 -0.2561 -0.1327
23880W        W40727   5.899   6.477  10.553  0.1201  0.1983  0.3437
23881W        W40728   4.163   9.967  14.214 -0.1550 -0.0849 -0.0757
23882W        W40729   2.441   5.736   0.055 -0.1128  0.1842 -0.2286
23883W        W40730  16.749  15.231  11.845 -0.2179 -0.0502 -0.0893
23884W        W40731  19.621   7.527  10.883 -0.2865 -0.2817  0.1220
23885W        W40732  12.463  18.343  14.126  0.2594  0.0252 -0.1323
23886W        W40733   7.096   6.753   2.739 -0.1953  0.1334  0.0819
23887W        W40734   9.398   6.426   0.270  0.0607 -0.0788  0.0054
23888W        W40735  12.424   1.532   1.779 -0.0189 -0.1477 -0.1489
23889W        W40736  12.418  11.166   8.760 -0.0330 -0.0899 -0.2801
23890W        W40737   4.049  13.005  10.840 -0.3837  0.2519  0.1113
23891W        W40738   4.321  12.826  13.916  0.2656  0.3362 -0.0538
23892W        W40739  11.441  11.168   1.361  0.1352  0.0581 -0.3006
23893W        W40740  18.438   8.214  12.891  0.1751 -0.4868 -0.0195
23894W        W40741   8.755   5.226   2.854  0.2188  0.0357  0.2179
23895W        W40742   7.328  15.366  14.081  0.0814 -0.2197 -0.2292
23896W        W40743   5.451  16.033  13.096 -0.0300  0.2030  0.1760
23897W        W40744  14.178  19.664   2.773  0.0365 -0.0387  0.0108
23898W        W40745   7.162   9.765  11.123  0.4133  0.2982  0.1618
23899W        W40746  14.265   0.896  13.050 -0.1651 -0.1536  0.3220
23900W        W40747   4.342   4.590  13.325 -0.2091  0.4324 -0.0739
23901W        W40748   9.066  16.864  12.556  0.0841  0.1999  0.0247
23902W        W40749  13.637  17.558   5.052  0.1878 -0.2198  0.0841
23903W        W40750  12.906   7.464  10.128  0.0906 -0.0290  0.0362
23904W        W40751   0.279  17.350   1.930 -0.0970 -0.0218 -0.1920
23905W        W40752  11.399  13.920  11.306  0.0941  0.1745  0.1032
23906W        W40753  10.026   5.499  11.644  0.2833  0.1756 -0.2188
23907W        W40754  18.744  11.134   3.204 -0.0114 -0.0910  0.2155
23908W        W40755   1.728  11.166   9.855 -0.0012  0.1837 -0.2323
23909W        W40756  14.096   5.191   3.715 -0.0731 -0.3640  0.0644
23910W        W40757   0.733   0.070   2.779 -0.2924 -0.1179 -0.0694
23911W        W40758  17.194  16.332   2.795 -0.1644  0.4567 -0.2787
23912W        W40759  11.595   8.099  12.674  0.4968 -0.1838 -0.0900
23913W        W40760  12.013  15.612   2.834  0.3437 -0.0528 -0.5049
23914W        W40761   8.255  10.344   5.141 -0.0172  0.2486 -0.0176
23915W        W40762   4.767   0.439   3.208 -0.0387 -0.0984 -0.3939
23916W        W40763   1.470  19.097  13.234  0.1601 -0.0301 -0.0588
23917W        W40764  18.239   5.637   4.703  0.2180  0.3375 -0.0775
23918W        W40765  10.152  13.285  12.695  0.0067  0.4646  0.2110
23919W        W40766  19.231   5.463   0.368  0.2803 -0.1142  0.3221
23920W        W40767  15.892   7.279   1.739 -0.2683 -0.1756 -0.0567
23921W        W40768  14.729   9.516   9.919 -0.0059 -0.1303  0.0656
23922W        W40769  14.430  16.959   1.882 -0.2536  0.2388  0.0951
23923W        W40770   7.491   6.467  12.311  0.2864 -0.1017 -0.0927
23924W        W40771  11.623  16.068   3.025  0.1060  0.0800  0.1658
23925W        W40772   9.685  16.848  11.828  0.0839  0.5103 -0.0474
23926W        W40773  15.320   5.023   2.102  0.0103  0.1684 -0.0139
23927W        W40774   2.194   8.766   3.276  0.2848 -0.0360  0.0651
23928W        W40775  12.740  16.504  11.662  0.1558 -0.2686 -0.2056
23929W        W40776   4.966  18.772  13.993 -0.4330  0.1328 -0.0754
23930W        W40777   3.929  17.097  11.143  0.3827  0.0996 -0.3797
23931W        W40778  18.943  18.256   5.289 -0.2222  0.3030 -0.0472
23932W        W40779   1.329  14.141  13.612  0.3237  0.4019 -0.0381
23933W        W40780  11.570   5.968   3.951 -0.2608  0.0696 -0.4992
23934W        W40781  12.038   3.091  13.843  0.2514  0.1080  0.1263
23935W        W40782   2.531   1.533   0.113  0.1067 -0.0236  0.0631
23936W        W40783  12.115  10.311   0.590  0.2612 -0.1019 -0.2243
23937W        W40784  19.763  11.396   4.520 -0.0040 -0.1462  0.1404
23938W        W40785  18.154   4.018   1.780 -0.0762 -0.2217  0.2343
23939W        W40786   7.670  19.728  13.859  0.2223  0.0943 -0.0156
23940W        W40787   1.507   7.662   0.649  0.1387 -0.0775  0.1910
23941W        W40788   9.620  18.941   2.841 -0.2864  0.0603 -0.2606
23942W        W40789   3.516  10.557   0.005 -0.1278 -0.0927  0.4661
23943W        W40790  12.382   6.343  11.899 -0.0729 -0.0505  0.2476
23944W        W40791  16.036   6.458   0.595  0.0244 -0.1504  0.0408
23945W        W40792  16.581  19.518   3.032 -0.0586 -0.1818 -0.0006
23946W        W40793  15.277  16.414  10.946  0.2039 -0.0290 -0.0104
23947W        W40794  16.141  11.023  10.700 -0.0092  0.1322  0.0981
23948W        W40795   1.814   9.319   0.995  0.1327  0.0220  0.0411
23949W        W40796  15.849  16.145  13.715  0.0732 -0.2683 -0.1569
23950W        W40797  10.400  12.499  13.974  0.0867 -0.0017 -0.0825
23951W        W40798   3.144   4.920   4.044 -0.0459  0.1587  0.0400
23952W        W40799  15.540   8.948   5.000 -0.3099  0.0540 -0.2017
23953W        W40800  13.270  17.379   4.304 -0.2718 -0.0089  0.2972
23954W        W40801   7.609   8.259  12.449  0.2718 -0.1833 -0.2180
23955W        W40802   2.164  13.706   9.965  0.0708 -0.1725 -0.4156
23956W        W40803   2.543   3.824  12.030  0.2052  0.1949  0.0695
23957W        W40804   3.007   9.856   2.522  0.4617 -0.4271  0.0038
23958W        W40805  13.472   9.854  13.327 -0.0853 -0.0693  0.1932
23959W        W40806   2.091   5.053   9.993  0.0394 -0.0061 -0.2094
23960W        W40807  17.722   6.700   5.364 -0.0211  0.0089  0.2873
23961W        W40808  19.603  18.886  12.817 -0.3541 -0.3545  0.2836
23962W        W40809   6.706   8.589   4.063 -0.0881  0.0314  0.1086
23963W        W40810  16.002   5.647   2.496 -0.0562 -0.2429  0.1769
23964W        W40811  15.499  12.123  12.586  0.1581  0.0372  0.0503
23965W        W40812  12.559  15.344   3.656  0.0905 -0.1223 -0.1825
23966W        W40813  17.627  19.000  12.888 -0.0040  0.4387  0.0722
23967W        W40814   9.876   0.410   9.713  0.1771 -0.2269 -0.0679
23968W        W40815  10.200   7.096  10.438 -0.0023 -0.0155 -0.1700
23969W        W40816   0.443   7.057  11.519  0.5018  0.2158 -0.1382
23970W        W40817   1.934   2.310   5.156 -0.1523 -0.1527  0.1214
23971W        W40818  10.386   5.263   3.891  0.0784  0.0019 -0.0047
23972W        W40819   1.246   9.814   0.808 -0.0599  0.3425 -0.3568
23973W        W40820   4.843   1.224   2.987  0.0022 -0.0467 -0.3105
23974W        W40821  15.757   6.143  13.353 -0.1158 -0.1257  0.0243
23975W        W40822   6.715  13.581   5.197 -0.0592 -0.3785 -0.2869
23976W        W40823   0.049   0.368   2.205  0.0333  0.0703 -0.0644
23977W        W40824  14.083  15.731  12.919  0.0475 -0.1311 -0.0196
23978W        W40825  14.061   2.482   1.771 -0.2084 -0.1510  0.0234
23979W        W40826  15.666   4.681   1.956  0.1909 -0.0467  0.2228
23980W        W40827  17.155   7.307   0.384  0.1902  0.2595 -0.0677
23981W        W40828   6.446   4.827  12.711 -0.0497 -0.1162  0.1789
23982W        W40829  13.091   0.651   2.513 -0.5040  0.0115  0.0038
23983W        W40830  16.253   4.857  12.196  0.0599  0.1097 -0.1880
23984W        W40831   9.898   6.209   3.007 -0.0048  0.0034 -0.1474
23985W        W40832   8.807   3.548   0.746 -0.1421  0.0029 -0.1165
23986W        W40833   6.432   2.552   1.810  0.4120 -0.1699 -0.1099
23987W        W40834   9.378   5.857   1.263  0.0079 -0.4724  0.2129
23988W        W40835  12.025   2.756   2.481  0.1416 -0.0147 -0.1253
23989W        W40836  18.166  10.688   2.308  0.1365 -0.2804 -0.0248
23990W        W40837   0.271  18.163   0.679  0.3421 -0.2198 -0.1747
23991W        W40838   3.744  18.266   0.013 -0.0150 -0.1707 -0.1232
23992W        W40839   3.669  10.872  10.702 -0.0312  0.0464 -0.1219
23993W        W40840   7.176   4.153   4.679 -0.0979 -0.2461 -0.1351
23994W        W40841   4.045   7.960   3.103  0.2772  0.0909 -0.1350
23995W        W40842   0.115   1.168   1.010  0.1551 -0.1710  0.0963
23996W        W40843   9.810  15.841   3.829 -0.0759 -0.0904  0.2261
23997W        W40844  12.098  11.555   2.564  0.3202  0.2153  0.1796
23998W        W40845  15.741   9.874   1.726  0.0988 -0.4039 -0.2732
23999W        W40846  19.639   4.418   5.326 -0.1127  0.1287 -0.1287
24000W        W40847  14.908  15.937  11.360 -0.0810  0.3175 -0.4653
24001W        W40848   4.232   7.022  10.543  0.1348  0.0170  0.1696
24002W        W40849  15.844   2.105   4.842 -0.1709  0.0287  0.1776
24003W        W40850   4.012   7.743   4.949  0.1542  0.1246  0.0907
24004W        W40851  10.903  17.050   4.034 -0.0761 -0.1165  0.1093
24005W        W40852   1.460   6.871   0.428 -0.0861  0.0017 -0.1701
24006W        W40853   0.731  10.432   2.925 -0.0763 -0.2111 -0.5003
24007W        W40854  14.324  12.647   2.211  0.0736 -0.1312 -0.1120
24008W        W40855   8.895   6.539   0.121  0.1101 -0.4038 -0.1885
24009W        W40856  10.388   3.168   1.010 -0.2697  0.3001  0.1210
24010W        W40857  10.690  12.037  13.814 -0.0866  0.0680 -0.0774
24011W        W40858  16.344   7.781  13.840  0.2248 -0.1579 -0.1272
24012W        W40859  18.193   0.988  12.237  0.0008 -0.0188 -0.0248
24013W        W40860  11.517   4.398   1.523  0.1944  0.2263  0.3556
24014W        W40861  13.526  15.123  12.425 -0.0864  0.2486 -0.1377
24015W        W40862  14.930   1.509  11.287 -0.0075  0.0320 -0.5035
24016W        W40863  17.154   0.835   5.131  0.1555 -0.1900 -0.1274
24017W        W40864  17.041  16.430   4.376  0.0148 -0.1557  0.0143
24018W        W40865  12.221   4.159  10.619  0.0046  0.1915  0.0855
24019W        W40866  13.402   0.970   2.159 -0.2177  0.2560  0.0926
24020W        W40867  17.246  13.301  12.898  0.1455  0.1757 -0.0677
24021W        W40868  14.794   2.276   9.660 -0.0916  0.0143  0.0068
24022W        W40869  16.216  12.736   0.028  0.0133 -0.0481 -0.2423
24023W        W40870  17.710  16.445  10.602 -0.0489  0.0168 -0.1718
24024W        W40871  19.076   3.766  13.388 -0.3168 -0.0042  0.0168
24025W        W40872   7.889  14.551  12.408 -0.1171  0.3459  0.0607
24026W        W40873  16.028  18.799   1.363 -0.3275 -0.1961  0.1527
24027W        W40874  11.826  16.443   9.826 -0.6203  0.1791 -0.2403
24028W        W40875  17.446  15.646  13.203  0.2067 -0.3060 -0.1249
24029W        W40876  13.495   8.616  11.240  0.0601 -0.0285  0.3601
24030W        W40877   4.245  10.703  12.645  0.1657  0.4908 -0.0842
24031W        W40878   6.239  17.189  13.454  0.2056  0.1169  0.4768
24032W        W40879  19.712  18.183   4.258  0.1325 -0.0833  0.0164
24033W        W40880   2.270   4.665   1.468 -0.0572  0.3789 -0.3176
24034W        W40881   2.632  17.085   9.330  0.1805  0.5087  0.0473
24035W        W40882   0.748   1.137   3.917  0.0339  0.0522 -0.1365
24036W        W40883   0.186   1.996   4.024  0.0362 -0.3409 -0.0334
24037W        W40884   0.976  12.918  12.819  0.0722  0.0793 -0.0465
24038W        W40885  15.493   8.985  11.750  0.3159 -0.1464  0.0350
24039W        W40886   3.170   7.956   2.692  0.1258  0.1554  0.2002
24040W        W40887   0.688   0.552   0.300 -0.0560 -0.2716  0.2338
24041W        W40888   2.368  14.802  10.231  0.1799  0.2432  0.1669
24042W        W40889   8.166  16.694   2.302 -0.3929  0.0169 -0.0648
24043W        W40890  17.783   0.667  10.814  0.3375  0.4045 -0.0921
24044W        W40891  10.913  10.416  11.488  0.0221  0.1207 -0.3706
24045W        W40892   7.328   8.000   2.966 -0.3421 -0.0290 -0.0280
24046W        W40893  18.429  16.778   1.632  0.0775  0.2810 -0.0529
24047W        W40894  17.251  16.707  13.816  0.1626 -0.3386  0.1588
24048W        W40895   3.129   7.876  13.464  0.3686  0.0806 -0.1024
24049W        W40896   1.524   7.705  12.123  0.0565  0.3620  0.1324
24050W        W40897  11.729  10.611  12.058 -0.0709 -0.2594 -0.1435
24051W        W40898  12.914   2.507   2.103 -0.1358 -0.0695 -0.3542
24052W        W40899   2.711  15.989   4.223 -0.1472  0.3024  0.2195
24053W        W40900  14.307  18.438  12.447  0.0711 -0.1716  0.0704
24054W        W40901  15.166  10.895  12.750 -0.0344 -0.0678  0.1462
24055W        W40902   9.130  12.437   4.395 -0.1056 -0.1037  0.1253
24056W        W40903  19.853  11.466  10.922  0.3891  0.0369  0.0035
24057W        W40904  19.338   9.124  10.884  0.1013  0.2514  0.2064
24058W        W40905   2.894   6.924  13.381  0.0808  0.0174 -0.3470
24059W        W40906   9.408   6.246   5.307  0.5141  0.0107  0.3205
24060W        W40907  14.429   6.113  13.789 -0.5270 -0.5753 -0.1940
24061W        W40908   5.322   9.972   4.916 -0.1339  0.0165 -0.2448
24062W        W40909  14.081  19.565   4.072  0.0657  0.2590 -0.0861
24063W        W40910   8.644  10.522   3.643 -0.3889  0.4730  0.1604
24064W        W40911  11.834   5.314   1.458 -0.0471  0.0367  0.1190
24065W        W40912  13.672   6.290   0.194  0.1862  0.0431 -0.3846
24066W        W40913  13.312   9.316  10.593  0.0645 -0.2656  0.2179
24067W        W40914  16.747   8.972   1.058  0.1207  0.1331 -0.0950
24068W        W40915  12.754  12.008   3.847  0.0540 -0.1767  0.1401
24069W        W40916  17.841   4.926   4.207  0.0508  0.0246  0.1014
24070W        W40917  13.551  10.208  11.052  0.1059  0.0677  0.1716
24071W        W40918   9.628   2.667  10.651 -0.0703  0.0409 -0.2271
24072W        W40919  17.868  13.127   0.279  0.2702  0.0536  0.1738
24073W        W40920  14.887   3.891  11.892  0.2225  0.2488  0.0901
24074W        W40921  19.186   3.445  13.899  0.0303  0.2633 -0.0862
24075W        W40922   7.173   0.902   3.731  0.0764 -0.0984 -0.4051
24076W        W40923  18.464   2.266   1.999  0.0621  0.0995 -0.0274
24077W        W40924   8.950  14.555   4.395 -0.2643  0.3896 -0.1789
24078W        W40925   5.676   8.366  10.691  0.3193  0.2348 -0.0482
24079W        W40926   0.260  12.670  13.047  0.3538  0.3443 -0.1239
24080W        W40927  17.625   6.737   1.274  0.0996 -0.0919  0.0719
24081W        W40928   3.485  19.656   3.907 -0.1412 -0.1570 -0.0361
24082W        W40929   8.125  19.908   3.998 -0.0873  0.0922 -0.2247
24083W        W40930   6.060   8.610  14.297  0.1000 -0.0574 -0.1937
24084W        W40931   3.695   3.546   0.589  0.0138 -0.0061  0.0878
24085W        W40932   1.118  13.286   4.612  0.0295  0.1655  0.0909
24086W        W40933   6.226  13.997  11.374  0.2433 -0.0697 -0.2695
24087W        W40934   3.110  15.173   2.231  0.0005 -0.1196  0.3127
24088W        W40935   0.987  17.760   0.161 -0.1575  0.3967 -0.3025
24089W        W40936  16.832  12.159  12.819  0.0897  0.1539  0.0973
24090W        W40937  12.025   2.253   2.301 -0.1099 -0.2218  0.1195
24091W        W40938   6.902  17.729  11.769 -0.0068  0.1017  0.1347
24092W        W40939  10.720   8.152   0.696 -0.1367  0.0142  0.1727
24093W        W40940   9.665  16.200   4.174  0.0551  0.1526  0.1385
24094W        W40941   1.384  18.373   2.581  0.1300 -0.1487 -0.0981
24095W        W40942   8.673  17.852   1.243 -0.3740  0.1441  0.7573
24096W        W40943  14.022   8.024   5.630  0.1892  0.1977 -0.0028
24097W        W40944  19.246  10.449  11.528 -0.1915  0.4468  0.2644
24098W        W40945   3.132  12.168  10.879  0.1407 -0.4822  0.1042
24099W        W40946   6.076  12.460   5.067 -0.2042 -0.0685 -0.2460
24100W        W40947   2.467  19.438  10.809 -0.1849  0.3526  0.2442
24101W        W40948  14.248   7.023   2.383  0.0116  0.0468  0.1320
24102W        W40949  16.990   2.729   3.786  0.0521  0.2901 -0.3988
24103W        W40950  12.536  10.201  12.069  0.0397 -0.2260  0.0108
24104W        W40951  12.941   9.119   4.383 -0.1740 -0.0328 -0.0887
24105W        W40952   2.701  17.648   3.546  0.0759  0.1290 -0.0562
24106W        W40953  15.166  15.485  10.054 -0.0692 -0.4300  0.2475
24107W        W40954  16.512  11.336  12.360 -0.0964  0.0369 -0.1571
24108W        W40955  12.090   6.970   8.915 -0.1879 -0.0444 -0.0497
24109W        W40956  14.883  11.520  14.032  0.3150 -0.3614 -0.0043
24110W        W40957  17.205   8.488   1.692 -0.3134  0.0387  0.2111
24111W        W40958   6.890  16.523  12.293  0.0646  0.2425 -0.1922
24112W        W40959   9.587   0.341   2.715 -0.1634  0.2621 -0.1752
24113W        W40960  17.376   7.078  13.585 -0.2090  0.1681 -0.0789
24114W        W40961  17.741  15.818  11.174  0.0120  0.0186 -0.2400
24115W        W40962  17.241  16.688   4.815  0.2116  0.1974  0.1554
24116W        W40963   0.166   7.107   4.074  0.1657 -0.1167  0.0931
24117W        W40964  18.664   8.597   4.469 -0.2896 -0.1763  0.4097
24118W        W40965  12.429   5.028   9.969 -0.2861 -0.4529 -0.2569
24119W        W40966  15.914  18.042  12.595  0.0321  0.0817 -0.1885
24120W        W40967   7.890   8.078  10.908  0.0364  0.2132  0.1884
24121W        W40968  16.244   6.195   4.709 -0.0094 -0.0447  0.1465
24122W        W40969  11.579   2.116   1.224 -0.1776 -0.0120 -0.0374
24123W        W40970  18.157   9.176   3.076 -0.2319  0.5733 -0.0312
24124W        W40971   7.353   5.761   4.094 -0.1941  0.0152 -0.0352
24125W        W40972  10.361  13.309   8.920  0.0046  0.1968 -0.0385
24126W        W40973   3.329   6.114  10.079 -0.1121  0.0787  0.0930
24127W        W40974   0.347  19.309  12.995 -0.0953 -0.1238 -0.1905
24128W        W40975   3.943  14.929  10.204  0.0534 -0.0515 -0.1082
24129W        W40976   0.778   4.365   2.855  0.0329  0.0876  0.0778
24130W        W40977  13.814   7.324  13.592 -0.2559  0.1595 -0.1076
24131W        W40978   4.177  10.811   4.357  0.1623 -0.0163 -0.2115
24132W        W40979   0.478   6.753   3.396  0.3205 -0.2201 -0.2609
24133W        W40980  18.378  12.317   0.992  0.0959 -0.1119 -0.0445
24134W        W40981  16.403  18.152  12.375 -0.1835 -0.5106 -0.2054
24135W        W40982  19.263   7.493   3.197  0.0775  0.0616 -0.3018
24136W        W40983  13.246  13.966  13.385 -0.1236 -0.0566 -0.0927
24137W        W40984   5.358   7.925  10.506  0.0422  0.0188  0.2112
24138W        W40985   5.370  11.934  13.687  0.2875  0.3835  0.0231
24139W        W40986   9.072   0.261  13.995  0.0429 -0.1955  0.3723
24140W        W40987  15.457   2.769  10.186 -0.0368 -0.1661 -0.1362
24141W        W40988  16.270  17.116  11.177  0.0328  0.0193 -0.0408
24142W        W40989  14.133  10.895   4.558 -0.1725  0.3433  0.0915
24143W        W40990  16.426   4.413   4.223  0.2757 -0.0246 -0.2980
24144W        W40991   4.537  15.176   1.885  0.0168  0.0825  0.3346
24145W        W40992  17.294   6.888   0.096 -0.2627 -0.3784  0.1745
24146W        W40993   7.718  15.563   1.845  0.3005 -0.0104 -0.0071
24147W        W40994  10.389   9.098  12.543 -0.1246 -0.0746 -0.2571
24148W        W40995   0.613   6.647  12.366 -0.1091 -0.1987  0.1642
24149W        W40996   9.406  14.654  10.839 -0.0339 -0.1388 -0.2808
24150W        W40997  16.278  18.396  14.278 -0.0251 -0.1037 -0.1450
24151W        W40998   8.605   0.328   3.419  0.1490 -0.2311 -0.0133
24152W        W40999   4.688  11.024  13.517  0.1904  0.3801 -0.2202
24153W        W41000  17.977  15.006   3.951 -0.0268  0.1314  0.0614
24154W        W41001   6.848  11.120   3.178 -0.0009 -0.2883  0.2147
24155W        W41002  10.653   8.600   3.670 -0.0284 -0.1344  0.1012
24156W        W41003  14.529  18.772  13.796 -0.1316  0.4373 -0.0541
24157W        W41004  11.610   9.576   2.228 -0.2114  0.0673 -0.1262
24158W        W41005   7.058   1.136  13.294 -0.1224 -0.1446 -0.0407
24159W        W41006  10.392   8.349  11.801 -0.3013  0.0552  0.2094
24160W        W41007  16.899  11.026   3.086 -0.1816  0.1227 -0.3594
24161W        W41008  10.093  17.027   8.672  0.5375  0.1267  0.1867
24162W        W41009  19.203  12.109   1.320 -0.1527  0.1597  0.0210
24163W        W41010  17.586   3.670   2.881  0.2248 -0.0455 -0.1390
24164W        W41011  14.252  17.294   9.456  0.0179  0.1571 -0.1905
24165W        W41012   9.171   5.408  14.256 -0.0825 -0.3371 -0.0967
24166W        W41013  11.131   7.882   4.322  0.0246 -0.2288  0.1154
24167W        W41014  10.951  12.987  10.893 -0.1358 -0.3416 -0.0902
24168W        W41015  13.921   1.923  13.059  0.0036 -0.2136  0.0706
24169W        W41016   4.414  14.310  12.833 -0.0321  0.4499  0.1318
24170W        W41017   6.775  10.874  10.604 -0.2150  0.3229 -0.2174
24171W        W41018  13.556  11.272  13.392 -0.0983 -0.2229 -0.1173
24172W        W41019   5.865   1.481   3.635 -0.0500 -0.0919 -0.1818
24173W        W41020  14.641   9.550  13.562  0.1828 -0.0945 -0.1106
24174W        W41021   1.047   4.732   8.987 -0.3708 -0.3180  0.4064
24175W        W41022   2.300  14.413   4.921  0.1193  0.1867 -0.4214
24176W        W41023  18.633   0.805  12.417 -0.3926  0.1328 -0.1534
24177W        W41024  15.301   8.592   0.158  0.1066 -0.0733  0.3149
24178W        W41025   3.811   2.959  10.006  0.1011 -0.0664 -0.0990
24179W        W41026   3.143   3.704  11.650 -0.2588  0.1127 -0.5003
24180W        W41027   4.486   6.399   3.116  0.1432  0.2304 -0.1790
24181W        W41028  14.287   6.934   4.790  0.1768  0.2099  0.3385
24182W        W41029  10.955  19.389  13.133  0.2836  0.2032  0.1983
24183W        W41030  15.358   6.424   2.082  0.1872 -0.0298  0.1579
24184W        W41031   2.870   9.247  14.285 -0.2003 -0.0558 -0.0565
24185W        W41032   6.162   8.057   8.754 -0.1404 -0.0368 -0.1204
24186W        W41033  12.522   7.042  10.146  0.0786 -0.2259 -0.5624
24187W        W41034  19.692  16.546  12.075 -0.1582  0.2272  0.1752
24188W        W41035   7.292  14.210   2.973  0.0419 -0.0161  0.1094
24189W        W41036  19.125   9.808  13.956 -0.1942  0.1595  0.3828
24190W        W41037   2.753   7.476  10.252  0.1296 -0.0784  0.1155
24191W        W41038   9.743   6.442  11.189  0.0904 -0.0575  0.0102
24192W        W41039   7.483  18.005   4.509 -0.3286  0.0732 -0.0844
24193W        W41040   3.273   2.951  13.640  0.3538  0.1314 -0.2207
24194W        W41041   0.621   1.344  14.122  0.3346  0.1772 -0.0554
24195W        W41042   4.277  11.756   0.561  0.0056 -0.1352  0.0613
24196W        W41043   6.261  18.312  11.374 -0.0838 -0.2248 -0.0861
24197W        W41044  19.050  19.495   3.318  0.1611 -0.1083 -0.1096
24198W        W41045  14.853  12.348  12.001 -0.0119  0.0734  0.1663
24199W        W41046  15.227  14.478  12.712  0.1086 -0.0569  0.0503
24200W        W41047   9.213  17.125  12.934 -0.0807 -0.0577  0.3042
24201W        W41048  17.817   7.564  14.239 -0.0171  0.1715  0.1684
24202W        W41049   9.578  15.522  14.028 -0.1696 -0.1152 -0.0790
24203W        W41050  10.970  15.553   1.433 -0.0723  0.0536 -0.6273
24204W        W41051   1.702   1.835   1.110  0.1413 -0.0548  0.1054
24205W        W41052  17.935  15.548   1.750  0.2053 -0.0227  0.0554
24206W        W41053  11.793   4.970  11.716  0.0562 -0.1582 -0.0468
24207W        W41054  12.517   4.854  10.609  0.0856 -0.2948  0.0384
24208W        W41055   8.070  14.942  12.832 -0.0888  0.0532  0.2265
24209W        W41056   5.838  13.683  13.245 -0.0454 -0.0776  0.1938
24210W        W41057  13.545   3.143   0.113 -0.2834  0.2225  0.3642
24211W        W41058   3.414  11.331   1.253  0.2384 -0.2319  0.0757
24212W        W41059   5.360   7.740  11.472 -0.0154 -0.1045 -0.0627
24213W        W41060  12.183   2.694   1.559 -0.3030 -0.2921  0.2696
24214W        W41061   0.634   9.601  13.420 -0.1847  0.3132  0.1006
24215W        W41062   3.768  13.207   4.051 -0.0009  0.1410 -0.1566
24216W        W41063  16.085  17.813  14.130 -0.1264  0.2181  0.2954
24217W        W41064   6.716  16.698   2.550 -0.2357  0.3843  0.1230
24218W        W41065   7.924  15.873   3.712 -0.2280 -0.2742 -0.0551
24219W        W41066   3.676  17.303  10.674 -0.0496 -0.3974 -0.2728
24220W        W41067  17.011  18.368   1.018 -0.1855  0.3130 -0.1338
24221W        W41068   1.501   5.202  10.531 -0.4352  0.1615  0.0719
24222W        W41069  19.755  12.495   9.240 -0.1083  0.1684 -0.1679
24223W        W41070   2.438  11.909   9.894 -0.2092  0.0496 -0.0849
24224W        W41071  18.009  10.120  13.735 -0.1530  0.0026  0.0422
24225W        W41072  12.223   2.553   0.197  0.0585  0.4089  0.2412
24226W        W41073   4.192   1.970   2.240  0.4189 -0.3525  0.2977
24227W        W41074   2.661  18.104   1.002  0.2700 -0.4843 -0.0691
24228W        W41075  13.873   2.632   1.322  0.1314  0.1263  0.0591
24229W        W41076  18.006   0.453  10.297 -0.2948 -0.1033 -0.1395
24230W        W41077   0.976   2.783   3.176  0.0045 -0.0003  0.2651
24231W        W41078   0.105   7.404  11.947  0.2966  0.0182  0.0322
24232W        W41079  18.954  10.361  14.160  0.0979  0.0834 -0.1608
24233W        W41080   6.172  11.418  10.301  0.0127 -0.0106  0.0730
24234W        W41081  17.469   5.843  12.165  0.0262 -0.1707 -0.0376
24235W        W41082  17.832  12.200   0.109 -0.0144 -0.2114  0.1188
24236W        W41083   8.847   0.302   5.236  0.1789  0.0974 -0.1531
24237W        W41084  18.632  12.361  12.657  0.5485 -0.0953 -0.0418
24238W        W41085   8.957  14.174   2.048 -0.0372  0.2294 -0.2174
24239W        W41086  19.775  17.162   3.123  0.1021  0.0079 -0.2143
24240W        W41087  17.455   8.031   0.773 -0.0008 -0.1620  0.0134
24241W        W41088   3.311   0.572   2.342 -0.1416  0.5783 -0.0897
24242W        W41089   1.101   6.250  13.851 -0.1951  0.3250 -0.0983
24243W        W41090   4.945  18.861  12.173 -0.2748 -0.1213 -0.0742
24244W        W41091   7.012  19.000   2.428 -0.0612  0.1128  0.1926
24245W        W41092  10.305  19.488  11.637  0.0681  0.1123  0.0487
24246W        W41093   7.847   3.528   4.320 -0.0377 -0.1723 -0.3994
24247W        W41094  12.621  16.763   3.902  0.0327 -0.2466  0.0997
24248W        W41095   4.544   5.195  11.473 -0.1949 -0.2424 -0.1676
24249W        W41096  16.968  14.674  10.776  0.0132  0.1206  0.0423
24250W        W41097  15.191  16.949  10.155 -0.1830  0.0799 -0.0402
24251W        W41098  16.383   0.939   3.282 -0.2411 -0.1778 -0.0744
24252W        W41099   6.375   7.679  10.334 -0.1471  0.1036 -0.3822
24253W        W41100   1.612   1.362   0.582 -0.0010 -0.0397 -0.1282
24254W        W41101  11.268  12.494   1.700 -0.2116 -0.0495  0.0340
24255W        W41102  10.525  10.170  14.018 -0.0223  0.0801  0.2358
24256W        W41103   8.861   9.561   0.109  0.1210 -0.0226  0.0327
24257W        W41104   8.789  13.190  11.568  0.4147  0.1244  0.0293
24258W        W41105   9.733   8.962   4.489 -0.0734  0.1454  0.3583
24259W        W41106  17.129  15.200  13.969  0.0423 -0.1672  0.0838
24260W        W41107   4.122   1.725  10.095 -0.2091  0.2814 -0.2302
24261W        W41108  15.121   0.473   4.175 -0.0826  0.0662  0.0036
24262W        W41109  14.568   1.433   4.934  0.3800 -0.1461 -0.2352
24263W        W41110   1.035  13.478   2.469 -0.1051 -0.1460  0.1966
24264W        W41111  18.504   9.692  11.923  0.0068 -0.7231  0.3568
24265W        W41112  19.712  16.071   2.884 -0.0629  0.0663  0.1565
24266W        W41113   8.265  13.916  13.960  0.3275 -0.0145 -0.1059
24267W        W41114  13.477  19.439  11.784 -0.0546 -0.0450  0.1757
24268W        W41115  16.357  15.157   4.303 -0.1784 -0.0487  0.2866
24269W        W41116   3.435   0.738  10.384  0.0464  0.3634 -0.1129
24270W        W41117  12.454   6.197   0.407 -0.1216  0.1237  0.2119
24271W        W41118  10.433  14.330   3.308  0.0357  0.0194 -0.0201
24272W        W41119  15.470   3.249   3.059 -0.1061  0.3099  0.0382
24273W        W41120  12.917   9.117  10.326 -0.0205  0.1273 -0.3250
24274W        W41121  16.066  19.889   2.391  0.2171 -0.3209  0.1821
24275W        W41122   0.918   3.627   9.699  0.0710  0.0206  0.0735
24276W        W41123   4.610   4.485  11.920  0.0510 -0.4983 -0.0602
24277W        W41124   0.199   1.019  13.836 -0.2153  0.1452 -0.1749
24278W        W41125   3.277   8.237   0.703 -0.1454  0.0326 -0.4513
24279W        W41126   4.019  16.882  12.248 -0.0901 -0.2631  0.2648
24280W        W41127  15.743  10.581   5.135 -0.2504 -0.1162  0.1932
24281W        W41128  13.448  17.726  10.718  0.0114 -0.1445 -0.3387
24282W        W41129  15.396   6.996   2.813  0.1948 -0.1759 -0.3326
24283W        W41130   7.519   9.804   0.450  0.0214 -0.0979 -0.4116
24284W        W41131   9.200  15.856  12.901  0.0931 -0.1033  0.0257
24285W        W41132  13.338   2.993   2.734 -0.0542 -0.2927  0.1740
24286W        W41133  12.394   3.012  11.743 -0.0133  0.1269  0.5849
24287W        W41134  11.055  12.962  11.407 -0.0758  0.2526  0.0288
24288W        W41135  18.236  15.465  10.846 -0.0692 -0.0603  0.0433
24289W        W41136   7.017  10.149  10.209 -0.1453  0.1993  0.2454
24290W        W41137   9.764  12.077  11.862  0.1043  0.3926 -0.0355
24291W        W41138   5.059  16.015   3.110  0.3396  0.0902  0.3230
24292W        W41139  12.538  15.367   2.790  0.0280 -0.1815  0.2283
24293W        W41140  16.689   2.990  13.479  0.0282  0.1063  0.2352
24294W        W41141  11.284  15.083  13.585  0.2844 -0.2119  0.3434
24295W        W41142   6.518  11.462   3.260 -0.2307  0.0900 -0.0472
24296W        W41143  15.434  12.828   3.971  0.0552  0.1880  0.2221
24297W        W41144   2.432  10.461   3.219  0.2868 -0.0444  0.2567
24298W        W41145  15.600  18.752   4.674 -0.1008 -0.2602 -0.1061
24299W        W41146   0.595  19.307  13.921  0.0431  0.2120 -0.0891
24300W        W41147   1.287  15.230  11.291 -0.0381  0.0858  0.2215
24301W        W41148  13.616  15.139   1.788 -0.2163 -0.1888 -0.0378
24302W        W41149   6.565   2.483  13.270  0.4163  0.2270 -0.4733
24303W        W41150  16.517   7.835   3.195  0.0436  0.0800  0.3178
24304W        W41151  18.784  15.622  13.272  0.1724 -0.1622 -0.1467
24305W        W41152   9.571  11.926   1.818  0.2192  0.0473 -0.0757
24306W        W41153  14.748   2.261   3.588  0.1004  0.0743 -0.0782
24307W        W41154  16.592   2.916  12.408  0.3834  0.0906 -0.0707
24308W        W41155   3.256   7.824   4.263  0.0591  0.2961 -0.2105
24309W        W41156   4.901   5.475  13.522 -0.0707 -0.0362 -0.3391
24310W        W41157   6.945  13.636  12.359  0.2221 -0.3037  0.0261
24311W        W41158  18.295  19.146   6.022 -0.1202  0.5403  0.0516
24312W        W41159  16.517   4.690   0.234  0.0717  0.1237 -0.0170
24313W        W41160   6.591  12.050  10.920  0.1814 -0.3150  0.0200
24314W        W41161   1.547   1.473   4.111 -0.1319 -0.1917 -0.2580
24315W        W41162  19.061  14.449   2.659 -0.1039  0.1415  0.3063
24316W        W41163  17.856  12.566  12.065 -0.4684 -0.1175  0.1775
24317W        W41164   7.298   2.372   1.384 -0.0184  0.0139 -0.0512
24318W        W41165  12.412  17.633   4.406 -0.0953 -0.1420 -0.1309
24319W        W41166  19.531  16.179   1.567 -0.0183 -0.2278 -0.2367
24320W        W41167   7.856  13.702   2.763  0.2761 -0.1311 -0.0846
24321W        W41168   5.696  19.152  12.922  0.0304 -0.0450  0.1634
24322W        W41169  19.461  13.554  12.654  0.2082 -0.2546 -0.1503
24323W        W41170  19.617   7.887   2.190 -0.3908  0.1912 -0.4657
24324W        W41171  19.212   6.530   3.359  0.1561 -0.0219 -0.2610
24325W        W41172   9.321  14.319   3.506 -0.1665 -0.1069 -0.2998
24326W        W41173  14.660  16.812  12.102  0.2550 -0.0774  0.0944
24327W        W41174  14.265  17.029  10.301 -0.2619 -0.0279  0.2997
24328W        W41175   2.280  11.181   0.298  0.2879 -0.0787 -0.0621
24329W        W41176   0.680   7.147   2.388 -0.0424 -0.2017 -0.2170
24330W        W41177  18.294  13.344  10.974  0.2673 -0.1003  0.2766
24331W        W41178   2.241   6.147   4.944 -0.2902  0.1618  0.2003
24332W        W41179   1.831   2.291   0.756 -0.1372 -0.0454  0.0755
24333W        W41180   8.889   9.945   4.922  0.0836  0.2969  0.1584
24334W        W41181  17.281  18.502   2.670  0.0275 -0.1788 -0.0075
24335W        W41182   7.027   9.375   3.346  0.2373 -0.3021  0.2693
24336W        W41183   1.088   0.473   9.602  0.1244  0.1988 -0.1516
24337W        W41184   2.988   8.134  10.460  0.1932  0.1603 -0.1069
24338W        W41185   9.289  14.034   3.983 -0.1469  0.0850 -0.0341
24339W        W41186   2.300  12.069  12.531 -0.0852 -0.3074  0.2253
24340W        W41187   5.642  18.753   0.992  0.0269 -0.0118 -0.1333
24341W        W41188  17.894  18.967   2.498 -0.1924  0.0697 -0.0930
24342W        W41189  19.857  18.859  14.243 -0.1475  0.0902  0.1430
24343W        W41190   3.567  11.580  11.331  0.1228 -0.1728 -0.1468
24344W        W41191  16.914   3.975   1.481  0.0506 -0.1369  0.1657
24345W        W41192  13.015  13.833   0.884 -0.2555  0.0018 -0.0264
24346W        W41193   9.041   3.842  10.389 -0.3243  0.1907  0.2105
24347W        W41194  11.336  19.308   4.361 -0.3832 -0.1809  0.0335
24348W        W41195  15.144   4.669  14.293 -0.0642 -0.0138 -0.1188
24349W        W41196  17.895  17.188  10.367 -0.0336  0.0449 -0.0728
24350W        W41197   9.301   8.125   0.484 -0.4581  0.3085  0.2915
24351W        W41198  10.173  11.981  13.788  0.0276  0.0390  0.0569
24352W        W41199  11.813  13.970   1.597 -0.1266  0.0231  0.0348
24353W        W41200  13.525   9.764  10.565  0.0998  0.0786  0.0044
24354W        W41201  11.955  14.630  11.376 -0.3670  0.1192 -0.1198
24355W        W41202   7.537   2.145  13.599  0.1121 -0.3089 -0.0476
24356W        W41203  10.295  15.933   3.617  0.1921  0.0630 -0.2764
24357W        W41204   3.490   7.810   9.855 -0.1309  0.1704 -0.2345
24358W        W41205   9.812   8.076   0.477 -0.1396  0.0492  0.0229
24359W        W41206  15.320   7.980  12.892  0.2389  0.2899 -0.0642
24360W        W41207   4.577   6.992   0.561 -0.1098  0.1232 -0.1795
24361W        W41208   2.731   7.912   1.417 -0.0189  0.1773 -0.4008
24362W        W41209  18.142  15.852  12.944  0.2350 -0.3720 -0.0171
24363W        W41210  15.355  11.277  11.214 -0.2144  0.1671  0.2747
24364W        W41211   6.265   3.516  13.437 -0.2609 -0.1411  0.0062
24365W        W41212   6.221  17.551   2.833  0.1346 -0.0445 -0.4418
24366W        W41213   9.838   8.626   1.835  0.0731 -0.0429  0.5238
24367W        W41214   8.927  16.281  12.805  0.0127  0.2827  0.1303
24368W        W41215  13.607   6.906  10.583  0.1766  0.1073  0.1152
24369W        W41216  12.638  15.477  10.078  0.0062 -0.0579 -0.0565
24370W        W41217   4.465  16.947   2.380 -0.0231  0.1921  0.2034
24371W        W41218  15.124   2.580   3.977 -0.2431 -0.0717  0.2993
24372W        W41219  11.924  19.560  10.681 -0.0677 -0.0313  0.1644
24373W        W41220  18.788   4.115   3.537  0.4060  0.0873  0.0226
24374W        W41221   0.660   8.135   2.538 -0.1187  0.2939  0.0609
24375W        W41222   3.686   9.135   0.799  0.4706 -0.4750 -0.1024
24376W        W41223  18.287   7.902   4.634  0.0714 -0.1831 -0.3220
24377W        W41224   1.908   2.488   3.613 -0.2192  0.3183  0.0733
24378W        W41225   3.459  12.035   3.325  0.1839 -0.1558  0.2366
24379W        W41226  17.944   8.434  11.427  0.1001  0.3031  0.3790
24380W        W41227   8.525  10.599  12.560  0.1377  0.1747  0.2513
24381W        W41228   0.622  19.336   0.891 -0.3133  0.1456  0.0693
24382W        W41229   1.423   7.030  11.745 -0.0531 -0.0033  0.2973
24383W        W41230  15.246   5.488   5.084  0.0095 -0.3141  0.1153
24384W        W41231  15.157   0.974   3.903  0.0693 -0.0103 -0.4145
24385W        W41232   4.906  12.339   0.822  0.3073  0.0501 -0.1030
24386W        W41233  14.925  16.053  14.063 -0.1153  0.4704 -0.1139
24387W        W41234   1.507  12.825   0.841  0.0698 -0.5005  0.1332
24388W        W41235   6.698   4.443  13.492 -0.0506 -0.0571 -0.1913
24389W        W41236  14.802   3.889   4.697  0.2113 -0.2469  0.0760
24390W        W41237  14.424  10.442   3.867  0.1748 -0.0389  0.2614
24391W        W41238  18.926   8.045  11.384  0.0146 -0.2838 -0.2461
24392W        W41239  17.185   6.366  12.946  0.0286  0.1047  0.3646
24393W        W41240   2.156   2.609  10.313  0.0518 -0.3716  0.1643
24394W        W41241   0.511  15.761   4.273  0.1785  0.2427 -0.0778
24395W        W41242   7.754  14.098  11.211 -0.2488 -0.0112  0.1470
24396W        W41243   4.102  12.488   4.089 -0.0376  0.1066 -0.0745
24397W        W41244  18.452  12.352  13.923 -0.0507  0.0820  0.2428
24398W        W41245  17.134   1.233   1.467  0.1983 -0.0462  0.0785
24399W        W41246   5.984  16.774  12.526  0.3015 -0.1866  0.1703
24400W        W41247  18.979  12.104  13.729 -0.3721  0.0867  0.0776
24401W        W41248   4.631  18.500  12.121  0.0912 -0.0271 -0.0238
24402W        W41249   6.695  17.417  13.957  0.0298  0.1154 -0.0246
24403W        W41250  11.944  18.696   9.648  0.1554  0.3540 -0.0197
24404W        W41251  11.631  15.538  12.360  0.0629 -0.0644  0.0297
24405W        W41252  11.787  18.281  10.465  0.2895 -0.0624 -0.1290
24406W        W41253   7.983  18.547   9.687 -0.1798 -0.1951 -0.2303
24407W        W41254  14.263   6.224   3.592  0.0865  0.3455 -0.2617
24408W        W41255   3.391  11.083   2.048 -0.2373 -0.0130  0.0893
24409W        W41256  17.893  18.456   9.280  0.0310  0.2384 -0.1943
24410W        W41257   9.241   2.696  13.558  0.0239  0.0803  0.0812
24411W        W41258   4.915  13.543  12.569  0.2576 -0.2986  0.0718
24412W        W41259  17.887  12.172  13.658 -0.3016 -0.1552 -0.2775
24413W        W41260   8.930  13.994   3.278  0.0267 -0.0344  0.0662
24414W        W41261  13.008  10.874   0.668 -0.3803 -0.1451  0.2190
24415W        W41262  17.056  13.143  14.204 -0.1383 -0.0208 -0.5518
24416W        W41263   2.263  14.356   0.273  0.3941 -0.0492  0.0950
24417W        W41264   4.637   8.230   1.169 -0.0369 -0.2649  0.1850
24418W        W41265   3.529  14.549   2.299  0.0070  0.1362 -0.1879
24419W        W41266   7.290   4.276   3.901 -0.2240 -0.1206 -0.2385
24420W        W41267  17.479   1.115  12.304 -0.1388  0.0707 -0.1398
24421W        W41268  15.636  15.560   2.581  0.0576  0.0471  0.2877
24422W        W41269  16.617   6.462  13.843  0.0111 -0.0352  0.1069
24423W        W41270   9.673   5.459   4.801 -0.2681  0.1587  0.2525
24424W        W41271  13.725  16.356  13.124  0.0212 -0.1588  0.0158
24425W        W41272  15.558  16.230   3.658  0.0779 -0.1773 -0.0512
24426W        W41273  10.561  15.706   2.262 -0.1015 -0.1487  0.5278
24427W        W41274   2.884   0.349  13.140  0.1455  0.0007 -0.0957
24428W        W41275   8.183   6.709   3.167 -0.1017  0.1721  0.0608
24429W        W41276   3.058  19.126  14.097 -0.0442 -0.1327  0.0362
24430W        W41277   8.826   6.936  14.117 -0.0127  0.2391 -0.1024
24431W        W41278  18.039  15.316   2.565  0.2357 -0.2315  0.0405
24432W        W41279  11.807   5.978  13.313 -0.1971  0.2919 -0.1083
24433W        W41280   8.555   8.812   3.627  0.1101 -0.1281 -0.1011
24434W        W41281   3.635   5.482   3.606 -0.3579 -0.0030 -0.1215
24435W        W41282   8.315   2.766   4.173  0.0970  0.0103  0.2737
24436W        W41283  14.448  17.927   4.615 -0.3187 -0.2771 -0.1021
24437W        W41284  18.968  11.205  13.483  0.0856  0.1679  0.0450
24438W        W41285  14.616   6.751   3.500 -0.1522 -0.3317 -0.0879
24439W        W41286  18.046   6.051  12.261 -0.0634 -0.0643  0.0873
24440W        W41287  14.155  12.345  11.196 -0.2537  0.0028 -0.1466
24441W        W41288   0.851  14.553   0.070  0.0541 -0.1103  0.1200
24442W        W41289  11.992   9.383  11.906 -0.1364  0.2632 -0.1772
24443W        W41290  11.530  18.415   1.748  0.2891  0.1471 -0.3137
24444W        W41291   2.277   5.563   1.494 -0.2107 -0.2503  0.2185
24445W        W41292  12.204   0.994   2.995 -0.1562  0.0902  0.0383
24446W        W41293  12.017   3.717  10.487 -0.1814  0.0544  0.1641
24447W        W41294   2.534   1.109   4.613  0.3292  0.1985 -0.1794
24448W        W41295  13.874  18.255   3.090  0.1530  0.1449 -0.0506
24449W        W41296  15.346  18.325   3.336 -0.3315  0.1007  0.0741
24450W        W41297   7.329  13.015   9.131 -0.0417 -0.1307 -0.0309
24451W        W41298   1.404   2.661  11.334 -0.0999 -0.1307 -0.1303
24452W        W41299  11.772   0.980   3.228  0.0194  0.1300 -0.1963
24453W        W41300   7.683  15.854  10.852  0.4192 -0.2006 -0.0763
24454W        W41301  11.067  12.814   0.525 -0.2076 -0.0744 -0.0794
24455W        W41302  18.338   3.961   9.986 -0.1963  0.5901 -0.2649
24456W        W41303  14.778   2.541  13.619 -0.2220 -0.0007 -0.1339
24457W        W41304  10.866  12.036  11.341  0.1167  0.2545 -0.0281
24458W        W41305   8.265  17.578   0.098 -0.0659 -0.0572  0.2270
24459W        W41306   9.522  18.084  10.266 -0.1389 -0.0637 -0.0906
24460W        W41307  14.289  18.663   4.276 -0.5106 -0.1128  0.0371
24461W        W41308   9.798  18.106  13.896 -0.4819  0.1334 -0.3071
24462W        W41309  15.546   7.862   2.220  0.0224 -0.1175 -0.1167
24463W        W41310  18.144  13.147  12.501 -0.0364  0.0034 -0.1916
24464W        W41311   2.472   2.976   1.784  0.0923  0.2646 -0.0238
24465W        W41312  11.989  19.890   3.732  0.0358  0.2446 -0.1503
24466W        W41313  15.812  19.321  11.049 -0.2198 -0.0403  0.2464
24467W        W41314  19.010   0.438   4.392  0.0142 -0.2225  0.4556
24468W        W41315   4.195  15.126  14.014  0.1221 -0.2005 -0.0742
24469W        W41316   2.136   7.330  11.737  0.3032 -0.0863 -0.0978
24470W        W41317   0.061  17.751   1.462 -0.0256 -0.2485 -0.0375
24471W        W41318  10.988  10.002   0.573 -0.2813  0.1181  0.1051
24472W        W41319   3.651  18.171   1.894 -0.3079 -0.0444 -0.0405
24473W        W41320  17.862  14.120  10.347  0.2033 -0.1866 -0.1836
24474W        W41321   0.622   2.854  11.171  0.1207  0.0537  0.2463
24475W        W41322  19.495   0.233   0.940  0.0341  0.0081 -0.0573
24476W        W41323   9.158  19.092   3.092 -0.0391  0.1356  0.2844
24477W        W41324  17.515  13.132  13.885 -0.0331 -0.3136 -0.0237
24478W        W41325   2.332   2.910  14.194 -0.1732  0.0638 -0.1560
24479W        W41326   5.587   2.414  13.511  0.0953 -0.3887  0.1450
24480W        W41327   9.382   8.803   1.784  0.0812 -0.1404  0.0230
24481W        W41328   1.616  12.255  12.778 -0.1948 -0.1501  0.0214
24482W        W41329  10.850  10.560  13.515  0.2432  0.3358 -0.0747
24483W        W41330   6.912   2.765   0.510 -0.0484  0.1196  0.0285
24484W        W41331   9.098   9.571   4.658  0.0021 -0.1845 -0.0892
24485W        W41332  13.871  13.586   4.356  0.0754  0.0590  0.0090
24486W        W41333  15.147   6.398  12.171  0.0432 -0.1431 -0.2270
24487W        W41334   0.845   7.334  12.445  0.0763  0.0419  0.0821
24488W        W41335   8.065  11.268  10.570 -0.0813  0.2865 -0.3055
24489W        W41336   6.687   1.543  13.253  0.1027  0.1753 -0.0712
24490W        W41337   6.833  14.778  10.691 -0.0823  0.1148 -0.1616
24491W        W41338   4.833   0.470  14.017  0.1114  0.0016 -0.0245
24492W        W41339   1.311  14.791   1.357  0.0902 -0.2199 -0.6424
24493W        W41340   4.295  10.885  13.918 -0.1162 -0.1789  0.3161
24494W        W41341   1.304   1.057  11.954 -0.3174 -0.1757 -0.0266
24495W        W41342   3.860   0.105   3.676  0.0973 -0.0040 -0.0970
24496W        W41343  11.544   1.586   4.055  0.0729 -0.3063  0.0853
24497W        W41344  16.362   0.905   2.675 -0.0023  0.0556  0.0960
24498W        W41345   8.219  10.074  12.043  0.1099 -0.1152 -0.3042
24499W        W41346  15.980   4.945  10.998  0.1049  0.0748  0.0677
24500W        W41347  14.846   3.806   1.737  0.0625 -0.3030 -0.3257
24501W        W41348  17.574  10.744  11.859  0.0354  0.1656 -0.0588
24502W        W41349   6.532   2.022  13.045 -0.0567  0.2541 -0.1475
24503W        W41350  12.295   1.054   2.516 -0.2609  0.0459  0.1093
24504W        W41351   2.958   3.432   2.489  0.2383  0.0500  0.1313
24505W        W41352  14.800  14.322   0.019 -0.0504 -0.1556 -0.2497
24506W        W41353   1.616   4.715  10.468 -0.2753  0.1104 -0.0135
24507W        W41354   9.799   2.420   2.063  0.1466 -0.1819 -0.0520
24508W        W41355  13.619   0.794  14.244  0.4373 -0.1155  0.2758
24509W        W41356   9.095  17.191  10.111 -0.1257  0.1741  0.1917
24510W        W41357   9.329  10.348   1.939  0.0773 -0.2244 -0.1317
24511W        W41358  15.471  17.068   5.121  0.1369 -0.1449  0.5305
24512W        W41359   8.968   7.821   1.334  0.4629 -0.0175 -0.0852
24513W        W41360   2.960   4.952  11.381  0.1480 -0.3868  0.2985
24514W        W41361   4.525   4.951   0.020  0.0344  0.0950 -0.3831
24515W        W41362   6.007   6.545   5.004 -0.1630  0.3592  0.4309
24516W        W41363  16.152  17.367   9.346 -0.0470  0.1872  0.0856
24517W        W41364   0.536  16.622  11.330  0.1873 -0.1313 -0.1732
24518W        W41365   0.394   8.583   2.525  0.2769  0.2838 -0.0757
24519W        W41366  14.869  13.853   3.377  0.0484 -0.0233 -0.0190
24520W        W41367  12.770   6.413  14.285  0.1126 -0.0564 -0.0291
24521W        W41368  17.104  17.178   4.192 -0.1814 -0.0896 -0.2036
24522W        W41369  15.517   4.296  10.558  0.0971 -0.3516 -0.2864
24523W        W41370   1.368  10.374  10.062  0.3141  0.0282 -0.3914
24524W        W41371   0.029  13.053  14.020 -0.1593 -0.0054  0.0298
24525W        W41372   3.304   5.554  10.134 -0.0131 -0.2943 -0.4023
24526W        W41373  15.491  12.327   4.871 -0.2013  0.1277  0.4066
24527W        W41374   5.903   0.403  10.912 -0.1185 -0.0067  0.2997
24528W        W41375   7.141   0.956  12.647 -0.1666 -0.0703 -0.4192
24529W        W41376  15.922  15.885   2.266  0.0114  0.0069 -0.1153
24530W        W41377  14.148  12.287  12.871  0.2242 -0.1571 -0.0124
24531W        W41378  10.523  13.693   4.362  0.0108  0.3402 -0.1301
24532W        W41379   0.624  10.191   2.531  0.3815  0.5527  0.2728
24533W        W41380   9.350  12.383  10.537  0.0324 -0.1638  0.1548
24534W        W41381  12.961  14.834  10.713  0.2627 -0.4093  0.0623
24535W        W41382  13.041   8.758  14.073  0.0902  0.3705 -0.0078
24536W        W41383   0.276   5.688   0.082  0.1304  0.4259 -0.1739
24537W        W41384   8.333   8.343   0.038 -0.1539  0.2146  0.1777
24538W        W41385  15.613   7.235  12.334  0.1034  0.1988  0.0492
24539W        W41386   0.000   7.201  11.223 -0.1578  0.2156 -0.1427
24540W        W41387  11.417  16.057   0.642 -0.1335  0.1849  0.1307
24541W        W41388   0.590   3.440  13.647 -0.1886 -0.0611 -0.3271
24542W        W41389   3.851   8.259  14.161 -0.0630  0.2300  0.3675
24543W        W41390   8.521  11.421  11.071  0.1721  0.0886  0.1564
24544W        W41391   4.305   4.213   2.971  0.0392  0.3719 -0.1453
24545W        W41392   1.798  15.213  10.870  0.0909  0.0905 -0.0334
24546W        W41393  13.718   5.559  13.571  0.2292 -0.2443 -0.0561
24547W        W41394   1.424   7.517  13.411 -0.1159 -0.1038  0.2795
24548W        W41395   2.150   1.616   1.992 -0.0150 -0.1768 -0.2287
24549W        W41396  19.224  12.849   4.655 -0.0614 -0.0004 -0.2467
24550W        W41397  12.373  18.591   4.440  0.1775 -0.0273  0.2134
24551W        W41398   6.326   1.486  12.585 -0.3272  0.0105 -0.0695
24552W        W41399   4.251   7.766  11.053  0.3668 -0.1206 -0.0325
24553W        W41400  14.397  12.504  10.197  0.4224  0.0330  0.1908
24554W        W41401  15.395  11.447   2.843  0.0296  0.0477 -0.1323
24555W        W41402   0.456  13.907   3.299  0.3095  0.1276  0.0245
24556W        W41403   0.392  17.070  11.463  0.0987  0.2226 -0.3778
24557W        W41404  18.309  13.716  12.116 -0.0076 -0.0156  0.0055
24558W        W41405  11.239  17.508   0.314 -0.0617 -0.0489  0.2089
24559W        W41406  11.871  18.443   4.338 -0.1760 -0.0997 -0.0356
24560W        W41407   5.328   3.935   1.452 -0.0015 -0.0391 -0.0273
24561W        W41408  11.701   1.031   3.779  0.2683 -0.3128 -0.2007
24562W        W41409   1.432   6.376   0.515  0.2408  0.0033 -0.0050
24563W        W41410  18.019  14.813   3.437  0.0968  0.0355  0.1002
24564W        W41411   7.133   9.329  13.856  0.5757  0.2329  0.0238
24565W        W41412   6.238  13.251   2.849  0.0373 -0.0946 -0.0227
24566W        W41413   1.726   9.031   4.230 -0.2051 -0.1251  0.0012
24567W        W41414  11.751  14.006   0.788 -0.1071 -0.0100 -0.0321
24568W        W41415   2.784   4.071  13.712 -0.0596  0.1334 -0.0985
24569W        W41416   9.998   3.012   0.745  0.3359  0.2061 -0.1013
24570W        W41417   6.871   7.708   1.938 -0.0408 -0.3531 -0.0825
24571W        W41418  16.710   0.505   0.407 -0.1307  0.2436  0.0177
24572W        W41419  19.379   9.626  11.858 -0.2184 -0.1014  0.0944
24573W        W41420   7.043  14.840   4.018  0.4952 -0.0954  0.0294
24574W        W41421  13.721  18.392  14.034 -0.1275 -0.2527 -0.0133
24575W        W41422  15.584   3.125  11.134 -0.0011  0.1253 -0.3516
24576W        W41423  14.005   5.427   2.270  0.3705 -0.1345 -0.4817
24577W        W41424   0.694   6.245   0.877  0.3068 -0.1111 -0.0298
24578W        W41425   4.796   3.941  11.244  0.1028 -0.1864  0.1519
24579W        W41426   0.202   7.384   2.643 -0.0056 -0.2215  0.0891
24580W        W41427  12.036   2.340   3.832  0.1585 -0.2360  0.0482
24581W        W41428   5.304   4.986   0.266  0.1658 -0.4186 -0.1822
24582W        W41429   0.768   1.291  13.363  0.2953 -0.1264  0.1732
24583W        W41430  13.364   0.997  12.421  0.2218  0.0002 -0.1995
24584W        W41431  14.456  14.661   1.941 -0.1797  0.1427  0.4380
24585W        W41432  11.145  12.212   2.789 -0.1293  0.3251  0.3008
24586W        W41433  15.204   5.418  12.315 -0.0748 -0.3018 -0.0335
24587W        W41434  15.915  15.359   4.003 -0.0856 -0.1023 -0.1192
24588W        W41435  11.286  11.138   0.376  0.0901  0.0534  0.2017
24589W        W41436   1.489   3.370   1.075  0.2651 -0.0505 -0.1634
24590W        W41437   3.525  17.715  14.207  0.3362  0.1792 -0.0315
24591W        W41438   6.251  18.510   1.463  0.0560  0.1224 -0.2845
24592W        W41439  15.598   9.071  10.087  0.0482  0.0114  0.3163
24593W        W41440  16.728  13.467   0.107  0.2892 -0.1217  0.3595
24594W        W41441   5.169  14.557   2.052  0.0676  0.0392  0.0776
24595W        W41442  19.148  17.903   1.762 -0.1959  0.3229  0.0372
24596W        W41443   1.562   5.581  11.053  0.1932  0.0167  0.0064
24597W        W41444   6.281  10.054  13.214  0.1104  0.0033  0.2183
24598W        W41445  14.384   0.186  12.380  0.1576 -0.1393  0.0292
24599W        W41446  12.515  12.277  13.105  0.0315  0.2033 -0.0688
24600W        W41447  10.929   6.480   0.816 -0.1866  0.0330 -0.1323
24601W        W41448  17.228   0.285   0.357 -0.1620 -0.1254  0.2195
24602W        W41449   1.382  14.438  10.390  0.0699 -0.0344 -0.2664
24603W        W41450  14.127  14.590  12.403  0.0310 -0.0154 -0.3058
24604W        W41451  10.245  13.797  10.132 -0.1109  0.0398  0.0052
24605W        W41452  14.982  18.501  10.245  0.1998 -0.2554  0.2775
24606W        W41453   7.078   6.765  12.273 -0.0576  0.3577 -0.4351
24607W        W41454   1.803  14.620   1.187  0.2060  0.0048 -0.0424
24608W        W41455  12.471   1.585  10.393  0.1841  0.0773 -0.1304
24609W        W41456   2.432  11.095  13.182  0.2107  0.0495  0.0855
24610W        W41457   7.920  18.936  13.959 -0.0279 -0.0505  0.2066
24611W        W41458   5.516   8.209  11.519  0.0989 -0.0557  0.0998
24612W        W41459   8.940   4.473   0.031 -0.1630 -0.0686 -0.3566
24613W        W41460  18.038  17.044  12.978  0.0290  0.5671  0.0440
24614W        W41461   2.301   7.639   2.923  0.1993 -0.0442  0.1934
24615W        W41462   8.429  17.104   2.512 -0.2839 -0.1236 -0.0794
24616W        W41463   9.611   3.848   4.348  0.1820 -0.3105 -0.2170
24617W        W41464  18.441  17.294   5.235 -0.0929 -0.1367 -0.2115
24618W        W41465   1.476  12.639  12.323  0.2666 -0.1262  0.2302
24619W        W41466   5.294  11.920   0.838 -0.1589  0.1186  0.3387
24620W        W41467   1.463   7.322   9.995 -0.0880 -0.1109 -0.0902
24621W        W41468   8.182  19.900  12.926  0.0301  0.0467 -0.2388
24622W        W41469   7.152   8.661   8.859 -0.0818 -0.0408 -0.2342
24623W        W41470   8.051  13.965  11.702  0.2637  0.0782 -0.0213
24624W        W41471  16.879  17.293  12.281  0.0353 -0.2805  0.0815
24625W        W41472   8.287   8.612   2.439 -0.0192  0.1415 -0.3392
24626W        W41473   2.647  16.842   4.771  0.0135 -0.0559  0.0977
24627W        W41474  15.531  17.763  13.032  0.0095  0.1877  0.0207
24628W        W41475  13.886   1.198   3.038 -0.1313  0.0565  0.0221
24629W        W41476  14.998  19.266  12.498  0.3197 -0.1979 -0.4566
24630W        W41477   5.145   2.122   0.905  0.0664 -0.2305  0.2383
24631W        W41478  16.565   5.619   3.212 -0.3099 -0.1635 -0.2191
24632W        W41479   1.280   8.547   9.440 -0.2181  0.0607 -0.1473
24633W        W41480  18.807   6.377  14.040 -0.2113 -0.2930 -0.2051
24634W        W41481   4.315   0.805  10.283  0.0346  0.2637 -0.0343
24635W        W41482   7.071   9.343   2.844 -0.3270  0.1202 -0.4005
24636W        W41483  19.589   5.140   3.867 -0.1636 -0.2168  0.0526
24637W        W41484   6.899  16.207   0.944  0.1642 -0.0576 -0.1482
24638W        W41485  17.467   3.275  11.836  0.0168 -0.2683 -0.3710
24639W        W41486   8.486  10.729   0.297 -0.1043 -0.0465  0.0575
24640W        W41487  15.610   3.322   1.492 -0.0238  0.1730 -0.1309
24641W        W41488  15.327   5.741  13.523  0.3417  0.0553  0.0847
24642W        W41489   2.337   4.739  13.347  0.2091 -0.4214 -0.0455
24643W        W41490   5.540  10.974  13.659  0.1975  0.0600  0.0197
24644W        W41491  12.943   1.106   1.915 -0.1527  0.0295 -0.1109
24645W        W41492  19.883  11.637  11.411 -0.1792 -0.1209 -0.3104
24646W        W41493  16.984   8.358  10.673 -0.0952  0.0409  0.0974
24647W        W41494   6.208   1.390  13.593 -0.1827  0.4670  0.1924
24648W        W41495   1.295  10.429   0.857 -0.0632  0.2215  0.2793
24649W        W41496   7.058   7.775   3.842  0.1202  0.0525 -0.1253
24650W        W41497  19.209  17.798   2.305 -0.0417  0.2674  0.1430
24651W        W41498  17.014   5.844   4.638 -0.1776  0.0114  0.1987
24652W        W41499   7.188   0.278  10.960 -0.0391 -0.0706 -0.0250
24653W        W41500  15.994  10.692  13.210  0.0813 -0.0699  0.1175
24654W        W41501  15.159   6.679   3.835  0.2088  0.0398  0.1200
24655W        W41502   9.442   6.492  13.555 -0.1690 -0.1791 -0.2519
24656W        W41503  12.246   6.565   0.025 -0.0064  0.3188  0.2171
24657W        W41504   9.764  16.973  11.127  0.1254  0.1716  0.3057
24658W        W41505  19.795   0.073  10.150  0.1438 -0.0232  0.1637
24659W        W41506   2.989  17.111   2.026  0.2764 -0.0539 -0.1935
24660W        W41507   8.194  14.436  13.654  0.2387  0.0448  0.1959
24661W        W41508   1.550  19.705   4.000  0.1563 -0.1600 -0.2208
24662W        W41509   9.969   2.849   2.243 -0.2349  0.2066  0.1921
24663W        W41510   0.448   1.077   2.684  0.0392  0.0907 -0.0771
24664W        W41511   1.407  15.529  10.930  0.2143  0.0722 -0.1734
24665W        W41512   9.401  14.523   3.019 -0.2841 -0.1170  0.0295
24666W        W41513  12.092   9.686   2.423  0.0090 -0.4467 -0.0912
24667W        W41514  15.343   9.830  10.979 -0.0193  0.0652  0.0740
24668W        W41515   2.702  11.214  11.812  0.1252  0.0101 -0.2943
24669W        W41516  13.914   2.005  13.667  0.2115 -0.1059 -0.1611
24670W        W41517   0.026  14.283   3.466  0.0961  0.1160 -0.1381
24671W        W41518  15.326   7.337   3.912 -0.0066 -0.0519 -0.0579
24672W        W41519  12.492  13.094   3.936 -0.0448  0.1745  0.0441
24673W        W41520   5.809  11.818   3.733 -0.0049  0.2745 -0.2087
24674W        W41521   9.813   4.435   1.776  0.0298  0.3511  0.0526
24675W        W41522  15.907   4.371   3.690 -0.1178  0.3072  0.0439
24676W        W41523  17.299   0.239  12.400  0.0782  0.1687 -0.0937
24677W        W41524  18.299  10.034  10.859 -0.2586 -0.1422  0.1322
24678W        W41525   0.940   7.501   2.695  0.1058 -0.0975  0.1241
24679W        W41526  19.023   2.986  10.807 -0.1536 -0.2759  0.2359
24680W        W41527  19.148   2.220  11.042  0.0609 -0.0799  0.1642
24681W        W41528   9.860   3.510   4.630 -0.2509 -0.2476 -0.0394
24682W        W41529  18.552  13.773  14.003 -0.3938 -0.2748 -0.1535
24683W        W41530   3.183   5.330   3.380  0.1832  0.0645  0.0197
24684W        W41531   0.023   7.486   1.115 -0.0389 -0.3831  0.2494
24685W        W41532  11.735   0.249  13.258  0.1692  0.3173  0.1748
24686W        W41533  15.866   0.419   1.367 -0.1114 -0.1688 -0.1739
24687W        W41534  19.549  11.177  11.183  0.0579 -0.0155 -0.0239
24688W        W41535   6.688  13.478   2.806  0.2168  0.1713  0.2321
24689W        W41536   8.633  12.783  13.362  0.3846  0.0078 -0.2656
24690W        W41537   0.890  12.451   3.460 -0.0475  0.0424  0.1860
24691W        W41538   3.758  10.878  11.198 -0.1599  0.1642  0.0214
24692W        W41539   7.306   7.601   0.845 -0.3458 -0.1556 -0.2451
24693W        W41540  11.964  14.184  13.264  0.0105  0.1099 -0.1865
24694W        W41541   5.884  19.131  12.409  0.3030 -0.0324 -0.5196
24695W        W41542   5.101   6.084   1.392 -0.1768  0.1005  0.1251
24696W        W41543   4.809  17.386   2.388  0.2216  0.0753 -0.0656
24697W        W41544  19.373  17.368  12.337  0.0019  0.1066 -0.1786
24698W        W41545  13.160  10.588   1.561 -0.2109  0.1044  0.0596
24699W        W41546   6.088   6.098   2.303 -0.0533  0.1827  0.2392
24700W        W41547  16.644  13.068   4.877  0.1756 -0.0638  0.3462
24701W        W41548   7.235   0.678  13.452 -0.4477  0.1522 -0.1551
24702W        W41549  14.679   2.542  12.227  0.1798 -0.3134  0.1844
24703W        W41550   9.058  17.047   0.547 -0.0318  0.0624 -0.1326
24704W        W41551   2.013  12.191  11.768 -0.1050 -0.1184  0.1227
24705W        W41552   9.310   1.746  12.702 -0.2469  0.0946 -0.1932
24706W        W41553   4.532   9.849  10.169 -0.0367 -0.2453 -0.0748
24707W        W41554  13.337   7.149  11.317  0.3482  0.0670  0.3237
24708W        W41555  18.540   3.752   4.781  0.0935  0.1850 -0.3302
24709W        W41556  11.123   1.502   3.239 -0.0470  0.1739 -0.1337
24710W        W41557  10.987   8.526   2.485  0.0310  0.2367 -0.0526
24711W        W41558  13.262   8.261   4.543  0.3191  0.0964  0.0169
24712W        W41559  16.385   7.119  11.461  0.2102 -0.0350  0.1582
24713W        W41560  13.509   8.352  12.542 -0.3144  0.0391  0.1101
24714W        W41561   7.815  10.615   0.314  0.1030 -0.3208 -0.3362
24715W        W41562  12.542  10.387  11.048 -0.3616 -0.3587 -0.1707
24716W        W41563   0.089  13.826  11.280  0.2686  0.0170 -0.0592
24717W        W41564   5.309   5.007  10.357  0.0427 -0.1952  0.1433
24718W        W41565   7.796   9.034  11.989  0.0962 -0.1018  0.0888
24719W        W41566   5.034   3.538  12.310 -0.2977  0.3277  0.1322
24720W        W41567   1.766   3.106  13.929 -0.0940 -0.0825  0.0196
24721W        W41568   3.317   2.814   1.140 -0.0336  0.0157  0.3310
24722W        W41569  11.237   1.021   3.384 -0.1824  0.2802 -0.3621
24723W        W41570  15.207   0.109   1.763 -0.2477  0.1581  0.1420
24724W        W41571   9.126  19.874  10.970  0.0450 -0.2408 -0.1716
24725W        W41572   5.169  12.539  10.233  0.1125  0.0932  0.2522
24726W        W41573  16.335  19.213   9.186  0.2436 -0.0848 -0.5320
24727W        W41574  15.670   3.133  10.398  0.2509  0.0518 -0.1927
24728W        W41575  17.213  14.101  10.895 -0.1098  0.1242 -0.1593
24729W        W41576  15.241   3.023   4.712 -0.0384  0.0075 -0.1809
24730W        W41577  17.166  19.240  12.706 -0.1183  0.2457  0.1046
24731W        W41578   5.358  15.150   0.381 -0.2644 -0.2094  0.3238
24732W        W41579   8.258   4.599   3.713  0.0962 -0.0621 -0.1535
24733W        W41580  18.257   8.855   4.501  0.0278  0.0955 -0.0278
24734W        W41581   5.515  18.234  13.180  0.3826 -0.0802 -0.2065
24735W        W41582   6.637  16.233  12.605 -0.2048 -0.0204 -0.2501
24736W        W41583   3.040  14.655   4.234 -0.0638 -0.0350  0.0960
24737W        W41584  15.777  14.719  12.986 -0.0266  0.0417  0.2768
24738W        W41585   3.693  12.701  11.958  0.0284  0.0968  0.1723
24739W        W41586  11.087  17.494  10.887  0.2821 -0.2205  0.0552
24740W        W41587  10.913   6.751   9.930 -0.1297 -0.0101 -0.1853
24741W        W41588   6.969   1.783   2.106 -0.6182  0.0633  0.2357
24742W        W41589   4.984   1.094   3.494 -0.3124 -0.0011 -0.0150
24743W        W41590   7.543   2.925   2.887  0.0225 -0.1557 -0.1942
24744W        W41591  11.587   6.436  11.602  0.1501  0.1486 -0.1311
24745W        W41592  11.954   7.965  10.811  0.0042  0.0501 -0.2154
24746W        W41593  14.590  18.256   1.454 -0.2699 -0.0318 -0.1466
24747W        W41594   5.438  13.811   1.405  0.2470 -0.1702  0.3026
24748W        W41595   9.425   4.566   2.196  0.2144 -0.0720  0.4828
24749W        W41596   5.823  15.792   4.299  0.2718 -0.2043 -0.3740
24750W        W41597   7.267   2.305  10.922 -0.1379  0.2303 -0.2491
24751W        W41598   5.419   8.565  13.784  0.1121 -0.0886  0.0747
24752W        W41599  18.305   1.677  13.657  0.1059 -0.2079  0.1260
24753W        W41600  17.621  16.572  12.152  0.0230 -0.1784 -0.0634
24754W        W41601  10.377  19.127   2.995  0.1490 -0.0621 -0.0402
24755W        W41602  18.744  17.380   2.893  0.0301 -0.0025 -0.3254
24756W        W41603   9.734   9.923  12.837  0.1774 -0.1132 -0.2276
24757W        W41604  11.067  13.843   0.074  0.1996  0.1245  0.0480
24758W        W41605   8.271   1.543   0.635  0.1553  0.3246 -0.0939
24759W        W41606   5.790   5.762  13.675 -0.2613  0.1324  0.4274
24760W        W41607  16.849  14.240   1.873 -0.1702 -0.1602 -0.0459
24761W        W41608   7.208  12.904  12.947  0.2265  0.0102 -0.0183
24762W        W41609  10.597  17.012   1.176  0.4000  0.1517 -0.1171
24763W        W41610  18.724   7.650  11.111  0.1302 -0.2431 -0.1471
24764W        W41611  15.600  18.178   2.915  0.1762 -0.2254  0.1987
24765W        W41612  11.714   9.863  11.990 -0.0969 -0.1668  0.2425
24766W        W41613   1.399  12.867  11.886 -0.1002 -0.2723  0.2005
24767W        W41614   8.230  18.461   2.541  0.0025  0.0553 -0.0991
24768W        W41615  14.945   8.287   5.358  0.0620  0.0178 -0.0506
24769W        W41616  15.126  14.814  13.053  0.0771  0.0605  0.0487
24770W        W41617   0.766  18.059   3.368  0.0999  0.3920 -0.0835
24771W        W41618   4.929   0.378  13.110 -0.1641  0.3675  0.3891
24772W        W41619   8.223   6.200  13.931 -0.0753 -0.0144 -0.1907
24773W        W41620   0.845   3.494   1.804 -0.0781 -0.0919  0.1808
24774W        W41621  19.778  12.942   4.000 -0.1308 -0.1395  0.2052
24775W        W41622   1.081   6.921   3.848  0.1081  0.0837 -0.2716
24776W        W41623   0.630   2.178   2.013  0.3266  0.2251  0.0331
24777W        W41624  19.799  12.826  11.151 -0.2208  0.1277 -0.0934
24778W        W41625   0.396   1.787   2.254 -0.1886  0.0473  0.0094
24779W        W41626   5.344  19.649  10.297 -0.4217  0.1808  0.2392
24780W        W41627  15.634   6.978   1.201 -0.0518 -0.1653 -0.1281
24781W        W41628   4.009  16.637  11.590 -0.2750  0.2160  0.0766
24782W        W41629   3.851  11.439  10.721 -0.0856  0.0688 -0.0120
24783W        W41630   2.350  13.312  10.555 -0.0682 -0.2897  0.2421
24784W        W41631   6.815   3.087   2.493 -0.0478 -0.2599 -0.0790
24785W        W41632   4.859  16.976  11.174 -0.0700  0.0836  0.0057
24786W        W41633   7.350   1.975   1.793 -0.1343  0.0985 -0.1233
24787W        W41634   8.866   8.931  13.808 -0.1367 -0.2151 -0.4193
24788W        W41635  16.563  14.655  13.852  0.2953  0.1696 -0.4321
24789W        W41636  16.534   7.274  13.788 -0.1514  0.0892 -0.3874
24790W        W41637  19.166  17.849   4.152  0.0471  0.1158 -0.3192
24791W        W41638   6.716   1.503   3.240  0.2770 -0.0537 -0.3100
24792W        W41639  16.749   5.348  13.268 -0.0913 -0.0475 -0.2710
24793W        W41640   0.492   4.222   3.610  0.1261 -0.0059  0.1603
24794W        W41641   2.467  19.180  11.726  0.3313 -0.2838  0.2664
24795W        W41642   0.800  18.492  12.950 -0.1093  0.0385 -0.1501
24796W        W41643  14.568  11.750  12.717 -0.0398  0.1494 -0.3418
24797W        W41644  15.753  13.333   4.247  0.1759 -0.2901  0.1061
24798W        W41645  14.807   2.576   1.471  0.0628  0.3529 -0.0528
24799W        W41646   9.651   6.933   9.763 -0.1039  0.0216 -0.1642
24800W        W41647   8.666  10.820  13.586  0.0862  0.1305 -0.0972
24801W        W41648  14.271   5.665  10.681  0.0945 -0.0510 -0.3290
24802W        W41649   0.510   7.881  11.795  0.0267 -0.0148 -0.0138
24803W        W41650  18.425   3.937   4.333 -0.1817 -0.3038 -0.0060
24804W        W41651   3.280   3.167   0.778  0.1108 -0.0584  0.2386
24805W        W41652   0.219  13.823   0.598  0.0821 -0.0560 -0.1166
24806W        W41653   2.971   0.525   3.613  0.0857  0.0442 -0.0350
24807W        W41654  17.128  10.458   0.737  0.1455  0.1364  0.2073
24808W        W41655   0.073   7.138   3.575  0.0444  0.0876 -0.1165
24809W        W41656   0.596   0.757  11.227 -0.0921 -0.1481 -0.1233
24810W        W41657   0.574  18.003   1.164 -0.0197  0.1399  0.0331
24811W        W41658   9.424   0.458   1.101  0.1670  0.4250 -0.0521
24812W        W41659  16.221   7.514  13.462 -0.0209 -0.0284 -0.0653
24813W        W41660  11.772  13.417  12.132 -0.3814  0.0826 -0.3075
24814W        W41661   2.722  14.191   4.257 -0.0738  0.1634  0.0150
24815W        W41662   6.514   7.404   1.490  0.0776 -0.0722  0.2790
24816W        W41663  10.312  11.324  13.256  0.0583 -0.0675 -0.2720
24817W        W41664  15.828  11.426  12.009  0.2475  0.2261  0.1335
24818W        W41665  11.927  18.381   2.015 -0.3256 -0.2960  0.0506
24819W        W41666   0.976   0.657   3.932  0.1654  0.1926  0.1711
24820W        W41667  16.919   1.122   9.386 -0.2098  0.0939 -0.4313
24821W        W41668  11.310   9.012  12.913  0.2279  0.0987  0.2977
24822W        W41669   7.672   7.006  11.783 -0.1480 -0.0951  0.3257
24823W        W41670   2.669   9.631   2.887  0.3797 -0.1865 -0.3985
24824W        W41671   3.018  18.813   0.301 -0.1370  0.1202  0.0803
24825W        W41672  17.311  18.385   4.554  0.1214  0.0091  0.0436
24826W        W41673   9.747   7.756  13.530  0.0997  0.0192 -0.0141
24827W        W41674  11.518   0.987   1.113 -0.0924 -0.2324  0.0110
24828W        W41675   5.713   8.924   2.591  0.0090  0.1852  0.1058
24829W        W41676  13.795  16.082   3.456 -0.0255  0.3444 -0.1422
24830W        W41677   9.610   6.852  10.239  0.1069  0.3378  0.2010
24831W        W41678  13.841   9.728  13.064 -0.0368 -0.1866 -0.2289
24832W        W41679   2.755  16.217   1.513  0.0325 -0.1005 -0.0678
24833W        W41680  12.025  18.394   3.032 -0.2150 -0.1747 -0.1557
24834W        W41681  19.684  14.689  10.914 -0.1613  0.3746  0.0074
24835W        W41682  15.466  17.171   2.744  0.4919  0.1996  0.1467
24836W        W41683   9.123   3.798   1.704  0.0806  0.4043 -0.0759
24837W        W41684  19.519  15.809  14.262 -0.0140 -0.0560 -0.1487
24838W        W41685   7.493   0.643   0.486  0.5182  0.2744 -0.2392
24839W        W41686  14.402   3.913   1.965  0.0107 -0.3062 -0.0369
24840W        W41687   8.902   1.009   0.428 -0.1448  0.2644 -0.4098
24841W        W41688  12.264   3.847   2.812  0.0311  0.0891  0.0736
24842W        W41689   9.094  18.920   0.787 -0.0552 -0.0302  0.1444
24843W        W41690   1.005  19.056   1.912 -0.0729  0.1979  0.0329
24844W        W41691  14.706   0.530  10.743  0.3186 -0.2161  0.1868
24845W        W41692   4.954   6.898  12.376 -0.0750  0.2053  0.1420
24846W        W41693   1.043   8.369   1.330  0.0455  0.1835  0.2753
24847W        W41694   2.234   4.721   2.005  0.2886  0.1056 -0.0977
24848W        W41695   6.787   7.214  12.343 -0.2475 -0.1739  0.5358
24849W        W41696  11.987  13.445   1.155 -0.0039 -0.0246 -0.2497
24850W        W41697  19.248   4.824   2.465 -0.0713  0.2851  0.1476
24851W        W41698  18.999   7.716   5.019  0.4599 -0.1091 -0.0625
24852W        W41699  18.277  14.077   4.041 -0.3373  0.0240 -0.1514
24853W        W41700   2.467   3.695   1.708  0.0238  0.0975 -0.1916
24854W        W41701   0.970   2.005   3.961 -0.0782 -0.0760  0.1516
24855W        W41702  10.204   6.053   0.418 -0.3438 -0.0709  0.2571
24856W        W41703  14.551   8.888  12.188 -0.2323 -0.0389 -0.0744
24857W        W41704   4.322  12.514   3.633 -0.0702  0.2170  0.0361
24858W        W41705  10.210  14.310   0.059  0.0234  0.2194  0.1077
24859W        W41706  17.616   4.016  11.851  0.1401  0.0099 -0.0273
24860W        W41707  10.706   7.430   4.224 -0.1348  0.1505 -0.0055
24861W        W41708   6.579   6.700  13.243 -0.0872  0.0076 -0.3529
24862W        W41709  17.156   0.476  11.563 -0.3956 -0.1048  0.1552
24863W        W41710   1.151   3.069  11.151  0.0264 -0.0057 -0.1478
24864W        W41711  10.678  10.585   5.021 -0.3377 -0.2489 -0.1991
24865W        W41712  11.860   9.583   2.873 -0.1010 -0.0148 -0.1935
24866W        W41713   6.521   4.618   1.539 -0.0212  0.3207  0.1828
24867W        W41714  15.721  13.664   1.349 -0.1340  0.0659  0.1554
24868W        W41715  11.114   6.839   0.245  0.0238 -0.1101 -0.2370
24869W        W41716   3.325  18.517  10.827 -0.1113 -0.0021 -0.0331
24870W        W41717  17.716  11.953  10.896 -0.0503 -0.0357 -0.3954
24871W        W41718   1.710  18.303  12.202 -0.3386  0.0357 -0.2627
24872W        W41719  10.463   8.540   3.236  0.1411 -0.2964 -0.1606
24873W        W41720   7.587   2.873  11.385  0.0785  0.3420  0.0225
24874W        W41721   7.926  16.672   1.843  0.0539  0.0781 -0.0788
24875W        W41722   2.294   4.436   9.984 -0.3393 -0.3492  0.4298
24876W        W41723   5.732  17.133  11.747 -0.0436 -0.4484  0.1918
24877W        W41724   9.557   2.917  11.066 -0.0539  0.1464 -0.2051
24878W        W41725   5.738  13.412   1.257  0.0067 -0.1501 -0.0366
24879W        W41726   2.824  16.407  13.676 -0.0404  0.3325 -0.0891
24880W        W41727  12.272   3.767   1.719 -0.2738 -0.1599  0.1231
24881W        W41728  18.696   2.131  12.372 -0.0978 -0.1267  0.3941
24882W        W41729  13.672  10.945   1.634 -0.1505  0.0902  0.1064
24883W        W41730   3.448   5.960  12.342  0.0432  0.0756  0.1905
24884W        W41731   0.147  12.503  11.699  0.0925  0.0049 -0.2071
24885W        W41732   2.135  13.412   1.452  0.2279 -0.2277  0.3763
24886W        W41733   4.030  16.748   4.666  0.0382 -0.2044 -0.1063
24887W        W41734   4.663   9.950   3.174  0.1261 -0.1194  0.0593
24888W        W41735   8.163  17.696   1.169 -0.1530  0.1409  0.1847
24889W        W41736  18.255  17.105  11.773  0.0847  0.3921 -0.1857
24890W        W41737   0.093  15.378   1.438  0.1292  0.1788  0.0989
24891W        W41738  16.653  19.599  13.912 -0.1252 -0.1048  0.1969
24892W        W41739   3.799  11.186  12.200 -0.2003 -0.0389  0.1544
24893W        W41740  15.508  13.496   4.705 -0.0467 -0.0333 -0.0992
24894W        W41741  16.199   8.499  11.270  0.4320  0.3649 -0.0932
24895W        W41742   6.832   0.508  11.272 -0.2302 -0.1233 -0.0028
24896W        W41743  19.628   5.756  10.538  0.0008  0.0090 -0.0553
24897W        W41744  15.075  18.466   0.263  0.0363 -0.3427 -0.2076
24898W        W41745  10.593   0.131  12.781  0.0885  0.0073  0.1085
24899W        W41746   5.234   8.141  10.066 -0.0900  0.1487  0.2286
24900W        W41747  11.142  13.298   4.737  0.0194  0.1627  0.2921
24901W        W41748  10.956  13.479   2.332  0.1020 -0.1026  0.1341
24902W        W41749  16.743  15.712   4.617 -0.0725  0.0006  0.1229
24903W        W41750  16.490   0.935   3.997 -0.2614 -0.2019  0.1414
24904W        W41751   8.765   1.184   0.963  0.0647  0.0611 -0.1867
24905W        W41752   0.884  10.017   4.013 -0.0355  0.1119  0.1842
24906W        W41753  17.480   5.202   2.693 -0.0860  0.0973 -0.1154
24907W        W41754   7.698   0.060   1.746  0.1163  0.0718  0.0207
24908W        W41755   9.104  13.495   3.983  0.2456  0.1425 -0.1822
24909W        W41756   2.415  18.761   5.094  0.0874  0.2916 -0.1109
24910W        W41757   8.252   1.450  12.756 -0.0675 -0.0345 -0.1382
24911W        W41758   9.890   8.065   3.921 -0.5423 -0.1224  0.1948
24912W        W41759   4.495  19.223   1.758 -0.0713  0.0546  0.0277
24913W        W41760  17.909   1.316   5.306  0.3333 -0.0697  0.1981
24914W        W41761   1.877  10.846   2.712  0.1467 -0.2366  0.1337
24915W        W41762  16.237   4.300   2.762 -0.2161  0.1883  0.0055
24916W        W41763  10.587  13.038  11.627  0.0251 -0.2306 -0.0631
24917W        W41764  10.599   5.774   0.110 -0.2209 -0.3645  0.1496
24918W        W41765   1.125   6.421   2.190 -0.1308 -0.1798 -0.2568
24919W        W41766   3.292  17.464   0.517 -0.1324 -0.1322  0.1248
24920W        W41767  12.366   1.560   5.034  0.1448 -0.0374  0.1064
24921W        W41768  13.685   6.027  13.385 -0.1578  0.2163 -0.0816
24922W        W41769  14.914  10.366   0.903  0.3639  0.0808 -0.3186
24923W        W41770   1.447  12.950   4.704  0.0595 -0.0986 -0.0601
24924W        W41771   1.745   7.911   4.890  0.1165 -0.1135 -0.0703
24925W        W41772   7.537   5.809   2.403  0.1201 -0.0310  0.0181
24926W        W41773  18.153  18.413   3.230 -0.3554  0.2867 -0.1170
24927W        W41774   9.538  11.831  14.106 -0.1811 -0.3905 -0.1188
24928W        W41775   5.250  13.397  12.040  0.1016  0.1560 -0.0417
24929W        W41776   6.573  15.938  13.523  0.0719  0.0819  0.2518
24930W        W41777   1.082  11.178  12.491  0.2661  0.0385 -0.1660
24931W        W41778  14.016   2.787   0.745  0.3577  0.3299 -0.0903
24932W        W41779   5.832  12.977   5.322 -0.0157 -0.1022  0.3834
24933W        W41780   6.550   7.643  14.216  0.0495 -0.0499 -0.2743
24934W        W41781   9.388  16.297   1.264 -0.0925 -0.2517 -0.2911
24935W        W41782  12.048  16.387  10.486 -0.0331 -0.0592  0.2904
24936W        W41783  14.116  14.297   5.408 -0.2378 -0.0266 -0.0022
24937W        W41784   4.198   7.163  13.044  0.3549  0.0260 -0.2775
24938W        W41785   2.643   5.386   8.554  0.0783 -0.0989  0.4381
24939W        W41786   8.285  12.294   0.215 -0.1313 -0.3028 -0.0077
24940W        W41787  15.818  16.268   4.669  0.4198 -0.1445  0.2328
24941W        W41788  11.509  12.450  12.285  0.1712 -0.1682 -0.3117
24942W        W41789   4.297  11.070  11.434 -0.1731  0.5244 -0.0251
24943W        W41790  18.942   7.196   4.493  0.0411 -0.2837 -0.0215
24944W        W41791   4.019   8.529   0.191 -0.0501 -0.0526  0.0454
24945W        W41792  18.710  15.092   0.287  0.0046  0.0497  0.0020
24946W        W41793   1.766   2.047   4.787  0.1243  0.1911 -0.1941
24947W        W41794  11.628  16.034   0.184 -0.0777  0.3667 -0.1462
24948W        W41795  10.229   8.258  12.365 -0.2771  0.0194 -0.0067
24949W        W41796  14.446  16.742   2.869  0.3598  0.3222  0.2670
24950W        W41797  12.728  10.730   4.191  0.0197 -0.3267  0.0526
24951W        W41798   2.840  14.914   0.867  0.0234 -0.0661  0.0581
24952W        W41799   2.094  19.551  11.612  0.1386 -0.0829 -0.1665
24953W        W41800   9.063   5.731   4.070 -0.1363  0.2533 -0.0235
24954W        W41801   8.200  13.092  10.464 -0.2075  0.1082 -0.1195
24955W        W41802   4.815   4.049   3.062 -0.1657 -0.6258 -0.0180
24956W        W41803  13.009   8.005   0.689  0.0936 -0.3250 -0.0230
24957W        W41804   1.549   2.682   0.038  0.0508  0.1675  0.2802
24958W        W41805   0.602  12.012   2.829 -0.2980 -0.2191 -0.2846
24959W        W41806  10.677  12.661   2.775 -0.1519  0.1193  0.0770
24960W        W41807  13.681  19.887   3.902  0.0192 -0.2499 -0.1930
24961W        W41808   0.900   6.943   1.432 -0.0836 -0.0564 -0.2483
24962W        W41809   3.880  15.529  10.780  0.0304 -0.0911  0.0843
24963W        W41810  13.152   6.058  10.237 -0.0244 -0.0223 -0.1579
24964W        W41811   0.112   1.319   5.194 -0.0112  0.1123  0.4900
24965W        W41812  13.158   3.496  12.870  0.0030 -0.0168 -0.0672
24966W        W41813  11.311   3.613  12.997 -0.4740 -0.0256  0.0553
24967W        W41814  16.743   1.033   0.626 -0.1770  0.2338 -0.3188
24968W        W41815   2.406  12.155   2.730  0.0362  0.1619  0.0646
24969W        W41816   3.246  13.213   2.569  0.0922 -0.0279 -0.1980
24970W        W41817   7.707   8.194  11.475  0.0113  0.0365  0.3242
24971W        W41818  12.712  11.132   0.340  0.1906 -0.0799 -0.2584
24972W        W41819  15.063  15.241   1.447 -0.1012  0.2808 -0.2354
24973W        W41820   4.943  13.107  10.085 -0.0020  0.4664  0.2846
24974W        W41821   5.695  18.635   2.202 -0.0949  0.3219  0.1627
24975W        W41822  17.762  17.617   1.830  0.0415  0.1134  0.0059
24976W        W41823  11.914  12.145  14.152 -0.0213 -0.2935  0.1214
24977W        W41824  17.531   5.473   3.511  0.1704  0.2429  0.2284
24978W        W41825  19.714   0.192   2.717  0.2036 -0.0292  0.0316
24979W        W41826   1.513  13.956  11.010  0.0110 -0.0001 -0.1326
24980W        W41827   3.865  13.654  11.801 -0.0811 -0.0686  0.2488
24981W        W41828  10.950   0.668   2.236 -0.0078 -0.0260 -0.1459
24982W        W41829  13.940  18.156  10.630 -0.1359  0.2372 -0.0745
24983W        W41830  19.233  16.033   1.122 -0.2184 -0.3926 -0.0342
24984W        W41831  15.717  10.988  14.040  0.1530 -0.1647  0.1754
24985W        W41832  16.728  11.796  13.149  0.2134  0.0921 -0.1089
24986W        W41833   7.295  15.567  10.095  0.2118  0.0413 -0.0656
24987W        W41834   2.233  19.277   1.806 -0.1681  0.0176 -0.1467
24988W        W41835   8.596  13.261   2.176  0.2187 -0.0387 -0.1131
24989W        W41836   3.075  14.361  13.507 -0.2770  0.2823 -0.0376
24990W        W41837  17.925   2.986  10.376 -0.3172  0.0091  0.1396
24991W        W41838  14.772   7.160  14.013 -0.3663  0.2857 -0.0187
24992W        W41839   2.109   5.727  11.217  0.2607  0.0721  0.1271
24993W        W41840  18.846  12.411   0.107  0.3836 -0.1550 -0.0538
24994W        W41841   4.399  19.125   2.422  0.0899  0.0885 -0.3249
24995W        W41842   7.183  11.575  13.234 -0.2193 -0.1392  0.0645
24996W        W41843   7.231   0.349   1.158  0.2140 -0.1159 -0.4113
24997W        W41844   8.320   9.012   9.476 -0.4511  0.0028  0.1560
24998W        W41845   8.460   6.616  11.216  0.1206  0.2111 -0.3245
24999W        W41846  10.694  15.328   0.464  0.0090  0.0219  0.4306
25000W        W41847  13.951  19.614  11.852 -0.1285  0.4450  0.1277
25001W        W41848  14.298  13.201  10.937  0.2977 -0.0389 -0.3412
25002W        W41849  18.581   5.558  12.892 -0.0351 -0.0873  0.2275
25003W        W41850  10.423   8.728  12.222  0.0985 -0.2331 -0.4237
25004W        W41851  18.933  17.830   2.738  0.0829  0.1128  0.3020
25005W        W41852   9.084  18.887  10.342  0.2186 -0.0291  0.2030
25006W        W41853  10.509   7.906   2.756 -0.0311  0.0225  0.0021
25007W        W41854   1.194  14.055   0.432  0.2263 -0.2868 -0.0439
25008W        W41855  16.092   5.745   3.066  0.1524 -0.0990 -0.0224
25009W        W41856   6.035   2.183   1.772 -0.0382 -0.1537 -0.1636
25010W        W41857  19.844   4.857   4.425 -0.2021 -0.1693  0.0775
25011W        W41858   1.124  15.216   2.850 -0.1336 -0.0236 -0.2850
25012W        W41859   9.487   1.475  13.230  0.0641 -0.3426 -0.2872
25013W        W41860   2.351  10.901  10.577  0.1004 -0.0592 -0.1843
25014W        W41861  18.070  18.588  11.586 -0.2801  0.1242 -0.4030
25015W        W41862  12.849  15.622   1.208  0.3687 -0.2669 -0.0275
25016W        W41863   1.985  19.608  12.099  0.1575  0.2354  0.0738
25017W        W41864  11.362  14.575  13.710 -0.0633 -0.1247  0.3362
25018W        W41865  13.148  12.880  13.627 -0.1481  0.0158  0.5272
25019W        W41866  15.242  12.663   5.150  0.2780 -0.1773 -0.1919
25020W        W41867   5.794   9.856  10.440 -0.1318 -0.1304  0.0457
25021W        W41868   0.161  12.835   0.555 -0.0518 -0.1350 -0.1041
25022W        W41869   5.923  17.229   0.028  0.1600 -0.0087  0.1862
25023W        W41870   1.997  10.037   2.209  0.2087 -0.0859  0.0523
25024W        W41871  18.626   7.468   5.257 -0.1093  0.5753  0.1449
25025W        W41872   1.862   9.656   1.820  0.0407  0.0614 -0.0452
25026W        W41873   3.201  12.654   0.995  0.1984 -0.0023 -0.1060
25027W        W41874  13.452   6.385  10.738  0.2470 -0.2146  0.0681
25028W        W41875  16.765  11.174   3.823 -0.4306 -0.0829 -0.0813
25029W        W41876  11.835   6.224  12.028 -0.0219 -0.0105 -0.1296
25030W        W41877   1.659  10.327   2.724  0.2302  0.3539  0.6590
25031W        W41878   2.320  12.397   5.654 -0.1094  0.1103  0.2405
25032W        W41879   6.759   7.700  12.860  0.3388 -0.2140  0.1257
25033W        W41880  16.543   4.485   3.735 -0.2164 -0.0172  0.3746
25034W        W41881   2.437  14.435   9.807 -0.2156 -0.1791 -0.1902
25035W        W41882   4.640   2.960   1.416 -0.0224 -0.1112 -0.4790
25036W        W41883  13.788  18.316  12.239  0.0472 -0.1997 -0.1215
25037W        W41884  15.227  13.471  11.872  0.0964  0.1175 -0.3901
25038W        W41885   0.031  18.729   4.491 -0.1462 -0.2419  0.1207
25039W        W41886   7.621   4.894  11.986 -0.0012  0.0276 -0.0007
25040W        W41887   1.391   8.386  11.310 -0.1214 -0.0189  0.0804
25041W        W41888   0.895  10.514   1.651  0.2931 -0.0397  0.2794
25042W        W41889  12.330   1.909   3.798 -0.0364  0.0741 -0.0632
25043W        W41890  16.200  15.246   0.610  0.1266  0.3829  0.2578
25044W        W41891   1.101  15.322  10.562 -0.1343  0.1755  0.0569
25045W        W41892   3.218  13.111   1.265 -0.1114 -0.1666 -0.0486
25046W        W41893  19.093   9.338  10.501  0.1289  0.0476  0.0963
25047W        W41894  12.365  19.647   3.475  0.0910 -0.0438 -0.1458
25048W        W41895   7.212  10.950   4.871 -0.3241 -0.0686 -0.0941
25049W        W41896  17.065   3.418   2.160 -0.0404 -0.4295  0.1679
25050W        W41897  11.949  17.239  13.419  0.0945  0.0688 -0.2525
25051W        W41898   7.034  15.824  12.597  0.3307  0.0532 -0.1486
25052W        W41899   2.226   9.841   2.663  0.2489  0.1749  0.0554
25053W        W41900  19.474  10.981   4.563 -0.0547  0.1032 -0.3137
25054W        W41901  15.639  18.096  13.403 -0.0290  0.1397 -0.0946
25055W        W41902   8.464   9.949  13.272  0.1324  0.3622  0.0808
25056W        W41903  17.020   2.497   5.630 -0.4024  0.0113  0.1608
25057W        W41904   7.176   5.859  10.138  0.2363  0.0802  0.3418
25058W        W41905   4.921   0.928  10.522  0.0275 -0.0214 -0.2091
25059W        W41906  18.379  12.002   1.442 -0.0895 -0.1105 -0.0029
25060W        W41907   9.624   2.350   3.433 -0.0254  0.1211 -0.1350
25061W        W41908   1.772  14.354   2.951  0.0514 -0.2484  0.2074
25062W        W41909  15.704   9.834  13.382  0.3698  0.0112  0.4538
25063W        W41910   5.642   0.512   1.396  0.1024  0.1185 -0.1810
25064W        W41911  10.456  16.975   0.206  0.0890  0.1899 -0.1243
25065W        W41912  12.399  19.695  10.436  0.2032  0.0726 -0.1312
25066W        W41913  18.705   0.797   4.144  0.0627  0.0026 -0.1082
25067W        W41914  13.589   8.257   1.187  0.4362  0.2585 -0.0513
25068W        W41915   6.331  11.926   5.109 -0.0835  0.1042 -0.3218
25069W        W41916   6.669  11.658  13.814  0.1405 -0.0400  0.0572
25070W        W41917   1.239   3.527   5.225 -0.1081 -0.1006 -0.1866
25071W        W41918  11.285   0.140   9.570 -0.1554  0.1434 -0.0327
25072W        W41919   3.161  12.771   4.137  0.0231  0.2563 -0.5166
25073W        W41920   4.451   2.489  13.806  0.3024  0.1951 -0.2219
25074W        W41921   5.746  19.655   0.019 -0.1138  0.0840 -0.2318
25075W        W41922   8.419  11.638   9.566  0.0675  0.0398 -0.2255
25076W        W41923   2.361  15.143   3.101 -0.3888  0.1534  0.1874
25077W        W41924   2.189  13.910  14.185  0.1880  0.1359  0.0553
25078W        W41925  12.891   2.661   2.658  0.0360  0.1066 -0.2395
25079W        W41926   1.070  16.157   2.999  0.1722 -0.0936 -0.2688
25080W        W41927   5.244  17.947   1.261  0.0528  0.0451 -0.0950
25081W        W41928   5.320   9.121  10.292 -0.0427 -0.2158 -0.0702
25082W        W41929  19.274   1.273   9.561 -0.1021  0.1187 -0.2463
25083W        W41930   2.051  13.257  10.131  0.0783 -0.0991 -0.0837
25084W        W41931  13.338   3.921  13.683 -0.1325 -0.3185 -0.0475
25085W        W41932   3.654  13.088  11.146 -0.1009 -0.1105 -0.0353
25086W        W41933  15.946   6.886   0.279 -0.2005  0.4252  0.1523
25087W        W41934   2.026  12.972   1.622 -0.0777 -0.0602  0.0757
25088W        W41935   6.077  14.537   1.113  0.2442  0.0047  0.3380
25089W        W41936  18.013   7.497   4.566 -0.4302  0.0797 -0.2397
25090W        W41937  18.745   6.729  12.026 -0.2139  0.2437  0.0334
25091W        W41938   5.830   3.767  13.388 -0.0882  0.0295  0.2829
25092W        W41939  15.920  12.267  13.419 -0.2133 -0.2668 -0.2804
25093W        W41940  16.804  13.241  12.514  0.0298  0.1018  0.0400
25094W        W41941   4.778   3.053  12.365 -0.5673  0.0313 -0.0948
25095W        W41942  15.452   0.228   5.059  0.0358  0.4366 -0.0852
25096W        W41943  14.639   0.964  11.520 -0.2072 -0.0416  0.1202
25097W        W41944   8.616   5.985   2.703 -0.0407  0.3013  0.4158
25098W        W41945  15.998   1.786   2.499 -0.0100  0.4094  0.0165
25099W        W41946   4.408   6.897  13.503 -0.0041  0.2247  0.0782
25100W        W41947  11.455  19.110   1.091  0.0347 -0.1430 -0.2325
25101W        W41948  18.026  19.515  14.082  0.3626  0.0865  0.1753
25102W        W41949  15.011  16.801   1.298 -0.0429  0.1710 -0.2250
25103W        W41950  14.470  10.474  13.805  0.1336  0.0997  0.1022
25104W        W41951   2.346   6.339   0.467  0.1805  0.3163 -0.1267
25105W        W41952  10.538  17.563   3.613 -0.1849  0.1895 -0.0246
25106W        W41953   7.798  12.019   3.456  0.2019 -0.0406  0.0356
25107W        W41954   2.942   8.019   2.177  0.1358  0.1508 -0.0564
25108W        W41955   6.181   3.008   3.399  0.1965 -0.5020 -0.2082
25109W        W41956  17.603   1.465  10.964 -0.1611 -0.0760  0.2162
25110W        W41957  16.706  15.026  13.466  0.1670  0.0367 -0.0083
25111W        W41958  13.666  15.829   1.533  0.1944 -0.0560  0.0181
25112W        W41959  16.779  10.986  11.019  0.2509 -0.2025  0.0107
25113W        W41960   6.944   2.772  14.285 -0.1572 -0.1360  0.1269
25114W        W41961   5.787   7.960  12.776  0.0213  0.2748  0.0668
25115W        W41962   1.646   0.659   1.776 -0.2428 -0.1547 -0.0926
25116W        W41963   6.231   7.895   0.345  0.0283  0.3505  0.1047
25117W        W41964  15.151   7.165   2.440  0.1291 -0.0097  0.2587
25118W        W41965  11.965   5.804   1.677 -0.2748 -0.1922  0.0266
25119W        W41966  17.550   1.904   1.791 -0.2605 -0.3455  0.1239
25120W        W41967   5.141  11.952   0.350 -0.1137  0.0774  0.0438
25121W        W41968  15.084   6.597   2.459 -0.1957  0.3108 -0.3575
25122W        W41969   0.510  10.022   9.804  0.1783  0.5406 -0.0182
25123W        W41970  18.355  12.477  13.081  0.2561  0.0098 -0.2301
25124W        W41971  12.657  12.440  14.086 -0.2761  0.0183  0.1094
25125W        W41972  18.441  18.191   5.083  0.1601 -0.2236  0.0166
25126W        W41973  15.392   5.100  11.818  0.0329 -0.2038  0.0221
25127W        W41974   6.579  11.771  12.929 -0.1094 -0.1742  0.1872
25128W        W41975   4.896   4.128   9.588 -0.2884 -0.2162  0.3109
25129W        W41976   0.983  19.744   5.071  0.1311 -0.3661 -0.2230
25130W        W41977   7.681  14.368  10.308  0.1261  0.3566  0.3164
25131W        W41978  14.734   8.568  10.925  0.1328 -0.1253  0.0144
25132W        W41979  12.919   5.353  13.131  0.3035  0.3693 -0.0664
25133W        W41980   0.977   7.179  14.128  0.1090 -0.0882 -0.3546
25134W        W41981   3.317   4.003  13.496  0.2889 -0.1489  0.0040
25135W        W41982   9.530   5.839   4.280  0.0450 -0.0309  0.2967
25136W        W41983   8.029   0.160  12.469 -0.1464  0.3781 -0.0480
25137W        W41984   5.118  13.077   4.656 -0.0314 -0.2200  0.4919
25138W        W41985  12.278  12.397   3.069 -0.1519  0.1552 -0.4359
25139W        W41986  11.002   5.350   1.476 -0.0653  0.0166 -0.3346
25140W        W41987  16.766   9.121  12.535  0.1311 -0.0740 -0.0870
25141W        W41988  18.992  10.786  10.642 -0.2535  0.1457 -0.2391
25142W        W41989  16.259  13.025  11.861  0.1379  0.0380  0.1484
25143W        W41990   4.146   6.132   1.068  0.1845 -0.4892  0.0705
25144W        W41991   9.063   0.742   4.456  0.0159  0.0411  0.1920
25145W        W41992   5.275  18.883   2.363 -0.2969  0.3687 -0.0352
25146W        W41993  14.371  11.783   4.343 -0.0053 -0.0697 -0.2622
25147W        W41994   1.205   3.591   1.467 -0.2213  0.0420  0.3047
25148W        W41995   9.790  15.725   0.311  0.2176  0.0063 -0.1628
25149W        W41996  17.984   6.095  10.591 -0.1194 -0.1197 -0.1479
25150W        W41997   1.093  18.266   1.272 -0.1998  0.0659 -0.1734
25151W        W41998   5.949   2.127   4.301 -0.1220 -0.1978 -0.0544
25152W        W41999   4.867  14.620   1.627 -0.0999 -0.1716 -0.3040
25153W        W42000  18.465  19.630  12.663  0.0112  0.1913 -0.0704
25154W        W42001   0.371  17.424   3.303 -0.2762  0.0584  0.2323
25155W        W42002  11.673   6.690  13.681 -0.0293 -0.2615  0.0597
25156W        W42003   0.388   2.076   3.067 -0.1413  0.0262  0.3523
25157W        W42004  15.497   9.461   4.666  0.0926 -0.0501  0.1439
25158W        W42005   0.080   0.332  12.104 -0.1482 -0.0441 -0.1406
25159W        W42006   6.005   9.639   0.651 -0.0714 -0.0721  0.2156
25160W        W42007   4.808   4.706  13.461 -0.3816 -0.0715 -0.0197
25161W        W42008   0.733   1.897   2.684 -0.3461  0.3570 -0.1829
25162W        W42009  16.181  12.572   0.949 -0.0934  0.3384  0.0886
25163W        W42010   3.523   9.257   1.779  0.1056  0.1912  0.1192
25164W        W42011  13.509   8.551  14.001  0.1686 -0.5368 -0.2674
25165W        W42012   5.014  17.474  11.181 -0.4932 -0.0865 -0.2376
25166W        W42013  16.250  15.266  12.104 -0.2726  0.1138 -0.0975
25167W        W42014   7.486   0.144  12.316  0.1983  0.1456  0.0200
25168W        W42015  12.372   9.199   3.679  0.2739  0.2528 -0.0773
25169W        W42016  11.312  19.362   2.572  0.0288 -0.1400 -0.2390
25170W        W42017   0.223  15.541   0.533  0.1668  0.1004  0.0200
25171W        W42018   2.579   9.786  12.408  0.1409  0.0586  0.1153
25172W        W42019   2.252  18.942   2.298  0.1671 -0.0833 -0.0412
25173W        W42020   7.289  13.030  13.665 -0.3147 -0.0428  0.0242
25174W        W42021   3.963   2.283  13.781 -0.1165  0.1584  0.3102
25175W        W42022  16.801  16.625  13.578 -0.1587 -0.4008  0.1803
25176W        W42023   6.707   1.082   0.730 -0.1564  0.0144 -0.1565
25177W        W42024   5.849   1.340  10.477  0.1279 -0.5004  0.1187
25178W        W42025   3.821  17.379  12.130 -0.0349 -0.2853  0.1536
25179W        W42026   1.987   9.663   3.526 -0.2836 -0.1711  0.3015
25180W        W42027  18.165   6.323  11.414  0.2907 -0.0106 -0.3884
25181W        W42028  11.288  13.485   1.982  0.0844  0.1144 -0.0760
25182W        W42029  19.464   9.016   4.815  0.3754 -0.1828  0.3451
25183W        W42030   2.838   4.675   0.354  0.2188  0.1238  0.2799
25184W        W42031  19.094  15.750   2.567 -0.2217  0.1606  0.3310
25185W        W42032  10.552  13.790   9.728  0.2736  0.1266  0.0219
25186W        W42033  12.809   9.798   1.204 -0.0878 -0.1434 -0.0659
25187W        W42034  16.205  16.894  11.875 -0.2477  0.0576  0.1504
25188W        W42035  16.949   7.998  11.317  0.2033  0.3536  0.0027
25189W        W42036   6.849  13.383   1.383  0.3206  0.0968 -0.0801
25190W        W42037  15.036  10.958   0.668 -0.0693 -0.1334 -0.1579
25191W        W42038  14.993  13.131  11.053 -0.2488  0.3173  0.0700
25192W        W42039   0.109  16.534   0.859 -0.0492 -0.1459  0.1571
25193W        W42040  18.925   5.023   2.155  0.0213 -0.0189  0.0712
25194W        W42041  12.452  19.065   4.696  0.1153  0.2052  0.1886
25195W        W42042   9.190  12.370   0.478  0.2755  0.1615  0.0266
25196W        W42043   8.132  15.389   2.778 -0.1770  0.0332  0.0427
25197W        W42044  11.414  14.106   2.401 -0.2679 -0.0339 -0.0098
25198W        W42045  12.596   0.859   1.095  0.1700  0.4238  0.0256
25199W        W42046   6.066  10.782  11.107  0.0386 -0.0434  0.0132
25200W        W42047   9.770   1.731  10.370  0.2381 -0.1028  0.2910
25201W        W42048  17.637   1.959   4.107  0.0884  0.0309  0.1888
25202W        W42049   1.513   1.217  13.770  0.1440  0.1451 -0.1066
25203W        W42050  12.456  17.998  11.582 -0.3039  0.2204  0.0403
25204W        W42051   2.190  14.330   0.820 -0.0111 -0.1097  0.1803
25205W        W42052  15.248  19.043   1.627  0.0041 -0.3519  0.0600
25206W        W42053   1.465   4.447   0.168  0.0672 -0.2465  0.0169
25207W        W42054  14.425  17.620  12.770 -0.0023  0.1533  0.4325
25208W        W42055  17.545  13.602   4.497  0.0351 -0.5115  0.2255
25209W        W42056   4.578   4.140  14.215  0.0549  0.1809 -0.0728
25210W        W42057   4.955   2.667  13.461  0.1745  0.0362  0.0407
25211W        W42058   0.470  17.308  11.982  0.3452 -0.2597 -0.0449
25212W        W42059  15.089   1.503   3.159  0.0461 -0.1762 -0.0776
25213W        W42060  18.591   4.966   9.860  0.1443 -0.0804  0.0401
25214W        W42061   3.213  14.773   3.157 -0.2612 -0.3741  0.1544
25215W        W42062   9.457  15.104   3.016  0.1747  0.1799 -0.0903
25216W        W42063  17.824  17.145   3.083  0.0458 -0.0127  0.3981
25217W        W42064  19.878  14.116  13.828 -0.3466 -0.1032 -0.3741
25218W        W42065   5.552   9.395  12.554 -0.0880  0.1347  0.0976
25219W        W42066   9.719  15.299   0.673 -0.1313 -0.0775  0.0086
25220W        W42067   6.833  11.481   1.249  0.0122 -0.1749  0.0829
25221W        W42068  19.737  10.868  13.260  0.0055 -0.0942 -0.0109
25222W        W42069  12.980  15.836  10.121 -0.1947 -0.1633 -0.1519
25223W        W42070  15.422   5.717   0.750 -0.1381 -0.0173  0.1028
25224W        W42071   8.770   2.476   4.003 -0.0674 -0.3722 -0.0924
25225W        W42072  10.750   0.810  10.358  0.4047  0.0338  0.3365
25226W        W42073   3.348  15.577   0.870  0.0239 -0.4109  0.2123
25227W        W42074   6.246  17.640   1.546 -0.1574 -0.1099 -0.0425
25228W        W42075   0.470  12.884   1.787  0.3567  0.2608  0.4616
25229W        W42076   3.004   8.638  11.506 -0.0339 -0.1294 -0.1959
25230W        W42077  16.602   9.707   0.042  0.2265 -0.0243  0.2998
25231W        W42078  12.291   9.005   9.136 -0.0279 -0.1523  0.0242
25232W        W42079  15.421  13.750  12.806 -0.3108 -0.0022 -0.3468
25233W        W42080   0.319   6.468  11.635  0.1518  0.0505  0.1101
25234W        W42081   6.316  19.046  12.738 -0.2280  0.0050 -0.5076
25235W        W42082  15.059   3.477   2.385  0.3670  0.1311  0.0486
25236W        W42083  15.314  12.712  10.264 -0.0968 -0.0595 -0.3085
25237W        W42084  11.667  18.869   1.948 -0.0329  0.0095 -0.0070
25238W        W42085   4.816   7.081   3.925 -0.3703  0.0148 -0.4688
25239W        W42086  13.775  11.595   2.721  0.1809  0.4098 -0.1376
25240W        W42087  18.563  14.619  11.541  0.2751 -0.0105  0.2254
25241W        W42088   1.848  11.111   4.330  0.1085 -0.3186  0.4396
25242W        W42089  13.842  14.976  14.140 -0.1915  0.0947 -0.0995
25243W        W42090   8.912  13.348   2.541  0.0413 -0.4212  0.0715
25244W        W42091   1.904  17.812   3.286  0.1109 -0.0495  0.0431
25245W        W42092  18.868   9.837   1.533 -0.2174 -0.0449  0.1506
25246W        W42093  14.741   1.318   4.503 -0.0745 -0.2865  0.2800
25247W        W42094   1.723  18.668  10.678  0.0203  0.1422 -0.1785
25248W        W42095  10.886  18.872   3.231 -0.1705 -0.0261  0.2644
25249W        W42096  10.225  15.584   1.892 -0.1665 -0.2034 -0.0118
25250W        W42097  10.045  15.281   3.753 -0.2585 -0.2033 -0.1363
25251W        W42098  11.570  16.849  10.632 -0.1552 -0.0421  0.3906
25252W        W42099  19.567  17.497   9.490  0.4814 -0.1725 -0.2215
25253W        W42100  18.697  11.493  12.150 -0.1330 -0.0146 -0.2687
25254W        W42101   9.470  17.659  10.154  0.0337  0.0262  0.0226
25255W        W42102  14.286  16.198  10.873 -0.1467 -0.0337  0.0578
25256W        W42103  10.854   3.640   0.598  0.1975 -0.0198 -0.0204
25257W        W42104   4.421  11.705  11.229 -0.1852 -0.3759  0.1856
25258W        W42105   3.680   0.022   0.496  0.1022  0.1428  0.1796
25259W        W42106  13.406  19.035  12.990 -0.0498  0.2027  0.1359
25260W        W42107  15.262   7.061  12.040 -0.3299 -0.5149  0.1851
25261W        W42108   1.306  18.924  11.661 -0.0778 -0.0259  0.1568
25262W        W42109   4.372   7.617   2.135 -0.3617 -0.0613 -0.2246
25263W        W42110   6.837   2.461  12.134  0.0131  0.0000 -0.1399
25264W        W42111   6.814   9.535   0.698 -0.1083  0.1801 -0.1495
25265W        W42112   2.531  19.719  11.799 -0.0714 -0.1151  0.0009
25266W        W42113  15.850  11.120   1.842 -0.0952  0.2414 -0.0678
25267W        W42114  15.423   9.478   0.310 -0.2881  0.1741 -0.2554
25268W        W42115   2.050   6.689  13.391  0.0068  0.0701 -0.0035
25269W        W42116   4.985  11.606   3.788 -0.0154 -0.0035  0.0510
25270W        W42117   1.591   4.103   4.499  0.4198 -0.0005 -0.1252
25271W        W42118  16.866   2.925  10.476 -0.0024 -0.0853  0.0505
25272W        W42119  12.339  13.278   0.283 -0.1656  0.0143  0.2870
25273W        W42120   7.131   0.033   2.206 -0.1247  0.0503 -0.0551
25274W        W42121   3.027   5.310  13.560 -0.2234 -0.2131 -0.2385
25275W        W42122  14.208   1.494   2.758 -0.1851  0.1646  0.0035
25276W        W42123   2.917   8.744   0.167 -0.0744  0.1061 -0.0282
25277W        W42124  10.527  16.862   2.181  0.2827  0.5406  0.4080
25278W        W42125   9.992   8.512  11.436 -0.0788  0.2314 -0.0897
25279W        W42126   2.587  19.494  12.248  0.1181  0.2998 -0.1829
25280W        W42127  12.453   7.769   1.806 -0.2803  0.0537 -0.0102
25281W        W42128  12.223  19.282   1.851 -0.1143  0.1860  0.2902
25282W        W42129   8.792   3.390   4.533 -0.4127  0.1659  0.3325
25283W        W42130  19.253   7.451   2.245  0.0267  0.1253  0.0133
25284W        W42131  13.262  12.339   8.899  0.1414  0.1472  0.0835
25285W        W42132   7.324   5.788   0.453 -0.1595 -0.0932 -0.1844
25286W        W42133   4.377   0.609   2.352 -0.0270  0.1136  0.0742
25287W        W42134  15.952   7.121   0.724  0.1103  0.3122 -0.3822
25288W        W42135   9.822  14.293   0.457  0.0055 -0.0232 -0.0153
25289W        W42136   0.465  11.763   1.147  0.0870 -0.1623 -0.2605
25290W        W42137   8.258   9.719  12.850  0.0550 -0.2269 -0.0152
25291W        W42138  18.755   5.208  12.057  0.0833 -0.2273  0.0909
25292W        W42139  15.043  17.709   0.358  0.1369  0.0138 -0.3128
25293W        W42140  11.109   7.051  10.341  0.0385  0.0493 -0.1960
25294W        W42141   3.074   6.886   4.501 -0.0507  0.2220  0.1729
25295W        W42142   2.239  10.948  13.601  0.0769 -0.1208  0.2661
25296W        W42143  11.764  11.253  12.707 -0.0042 -0.3045 -0.1444
25297W        W42144   1.100  19.453  13.082 -0.1899 -0.3822 -0.1341
25298W        W42145   8.998   5.762   2.084  0.0913 -0.1100  0.0002
25299W        W42146  13.968   5.063   2.662  0.1165 -0.0145 -0.0395
25300W        W42147   6.968   1.751  11.905  0.0987  0.1435  0.1110
25301W        W42148   3.632   5.783  13.618 -0.3268  0.1663  0.0739
25302W        W42149   8.740  18.104  11.990  0.3445 -0.2259 -0.1424
25303W        W42150   4.914   9.042   1.592 -0.2272  0.1525 -0.2084
25304W        W42151  16.203  17.373  10.724  0.3124  0.1717  0.1615
25305W        W42152   8.914  15.597   3.456 -0.3648  0.0709 -0.3325
25306W        W42153   3.096   1.671  11.400 -0.0948 -0.0194 -0.1948
25307W        W42154  19.256   8.452  11.155 -0.1226 -0.1069 -0.2609
25308W        W42155   1.519   3.255  12.979  0.3518  0.2601  0.3317
25309W        W42156  12.203  11.493   0.442 -0.1639  0.1766 -0.1697
25310W        W42157   3.210   3.496  10.708 -0.1959  0.2645 -0.4892
25311W        W42158   9.127   0.052   3.729 -0.0057 -0.1935 -0.0291
25312W        W42159  17.853   7.163  11.933 -0.0509  0.1499  0.0592
25313W        W42160  17.246   3.862  12.245 -0.0088  0.0089  0.1783
25314W        W42161  18.274  17.632  13.511 -0.1556 -0.0314 -0.2747
25315W        W42162   0.652   2.828   1.340 -0.2253  0.1605  0.0313
25316W        W42163   8.471   1.576   4.689 -0.0397  0.3452 -0.1719
25317W        W42164   0.471  13.414   3.506 -0.0242  0.3050 -0.0128
25318W        W42165  18.016   7.782  13.354 -0.0344 -0.2388 -0.1293
25319W        W42166  19.310  15.052   3.761  0.0866 -0.1965 -0.0086
25320W        W42167  14.863   8.987  11.513 -0.2251  0.2593  0.1366
25321W        W42168   0.726  19.281   3.851 -0.0403 -0.0638  0.0879
25322W        W42169   6.148  17.187   1.794 -0.1718  0.0001 -0.0124
25323W        W42170   5.423   5.997   2.775  0.1104  0.1260  0.0162
25324W        W42171  15.204   1.337  10.909  0.0843  0.2523 -0.2030
25325W        W42172  17.963  19.695   0.745  0.2681  0.3211 -0.0395
25326W        W42173  15.634  14.174  12.669 -0.1155 -0.3694 -0.0203
25327W        W42174  10.072   9.549   3.075 -0.2763 -0.1092 -0.1069
25328W        W42175  11.876   8.417   1.396  0.1140  0.1552 -0.0707
25329W        W42176  12.207  10.964   4.235 -0.1196 -0.2275  0.1580
25330W        W42177  18.514  15.900   0.208  0.0742 -0.0312 -0.2150
25331W        W42178   5.974   2.488  13.989  0.0111 -0.0530 -0.1074
25332W        W42179  13.055   5.839   3.156  0.3089 -0.0651  0.1984
25333W        W42180   5.321  11.426  12.339 -0.0201  0.0609 -0.4044
25334W        W42181   1.846  17.064  13.411  0.1918 -0.3917  0.3355
25335W        W42182  11.172   1.902   1.883  0.0943  0.4673  0.0740
25336W        W42183   7.358   1.301   2.403 -0.0482  0.2000 -0.1796
25337W        W42184   8.416   6.079  12.656  0.4405 -0.2558  0.0569
25338W        W42185  16.705   5.512   4.222 -0.1968  0.0540  0.0529
25339W        W42186  12.684  16.471   9.881  0.1051  0.0517 -0.0777
25340W        W42187   7.247  17.465   9.631  0.2584  0.1757 -0.0728
25341W        W42188   9.973  15.236   9.225  0.0787 -0.0919  0.2505
25342W        W42189  19.640  11.088   9.943 -0.1128  0.3851  0.3377
25343W        W42190  19.628  14.357  10.269  0.1550  0.1359 -0.0074
25344W        W42191  18.657  18.612   4.942 -0.0277 -0.1890  0.0837
25345W        W42192  13.520   9.573   1.957 -0.0935  0.2473 -0.0838
25346W        W42193   0.135  16.396   9.893 -0.3985  0.0694 -0.1046
25347W        W42194   9.256  18.650  13.200  0.1526 -0.3507  0.1263
25348W        W42195   2.343  12.967  13.878 -0.2152 -0.2473 -0.0106
25349W        W42196   5.385   7.139   5.038  0.3847  0.1059  0.1364
25350W        W42197   1.968   9.528   2.304 -0.0239 -0.0517 -0.1275
25351W        W42198  10.578   4.133   1.536 -0.0457 -0.0449  0.0587
25352W        W42199   0.124   6.543   2.200  0.0609  0.1181  0.0199
25353W        W42200  19.291  13.537  13.530  0.2960  0.0490  0.0354
25354W        W42201   6.059   8.318   9.618 -0.2332  0.2609  0.0126
25355W        W42202  10.886  17.807   0.243  0.0753  0.1353  0.2752
25356W        W42203  12.817  16.410  13.253  0.0475  0.2776  0.0531
25357W        W42204   7.225  14.114  10.172  0.2249  0.0822 -0.0974
25358W        W42205  13.217   8.379   3.501  0.0976  0.0211  0.4439
25359W        W42206   7.334   4.917   1.303 -0.3804  0.2893 -0.0805
25360W        W42207   8.648  18.302  11.266  0.1465 -0.2886 -0.3826
25361W        W42208   9.232  16.685   0.050  0.0010 -0.0393  0.0128
25362W        W42209  15.884  10.031  10.678 -0.0005  0.0040  0.2551
25363W        W42210   8.406  16.388   1.806 -0.1986 -0.1082  0.0154
25364W        W42211  18.517   9.839   4.643 -0.3009 -0.0041 -0.3839
25365W        W42212   4.174   2.873  12.453  0.1046  0.1321 -0.0353
25366W        W42213  12.857   7.516   0.630 -0.1360  0.1461  0.0556
25367W        W42214  10.429  14.858   1.331  0.1400 -0.1478 -0.0587
25368W        W42215   8.460   1.531  10.995  0.0581  0.2501  0.0710
25369W        W42216  12.111  14.633   0.324  0.2154  0.2614  0.2117
25370W        W42217   1.881  11.022   3.563  0.0284 -0.2360  0.0882
25371W        W42218  17.402   7.937  12.512  0.3655  0.2719  0.0575
25372W        W42219  17.890   4.939   1.862 -0.1986  0.1748 -0.0461
25373W        W42220   8.421   2.160   2.171  0.0379 -0.0119 -0.1945
25374W        W42221   3.533   6.764   3.191 -0.3477 -0.0057  0.2963
25375W        W42222  12.064   9.226   0.032 -0.4448  0.2547 -0.0565
25376W        W42223  17.208  10.075   3.244 -0.0581 -0.1133 -0.0075
25377W        W42224   5.046   7.274  12.084  0.2682  0.2300  0.0534
25378W        W42225   7.646  12.364   1.840  0.3205 -0.1707 -0.2289
25379W        W42226  17.565   3.792   0.158 -0.4938 -0.0585  0.1855
25380W        W42227  11.359  16.489   4.404  0.3085  0.2564  0.2577
25381W        W42228   6.950  14.666   9.642 -0.0934 -0.1009 -0.0232
25382W        W42229  17.916   0.779   0.870  0.0388  0.1130  0.1813
25383W        W42230  14.092   0.707   4.124  0.0722  0.0411 -0.0314
25384W        W42231   4.723   1.847   0.165  0.0559 -0.4540  0.2799
25385W        W42232   4.224  14.047  11.835 -0.0283  0.1871 -0.1100
25386W        W42233   5.759   3.853   4.362 -0.0360 -0.0061 -0.2354
25387W        W42234  18.909   2.156   3.989  0.0957  0.0572  0.3845
25388W        W42235  17.547   8.684  12.015 -0.1999 -0.0266  0.0198
25389W        W42236   7.633   0.958   1.106  0.0432 -0.1030  0.1752
25390W        W42237  19.928  10.903   0.600  0.0533 -0.1952  0.3819
25391W        W42238   4.140  14.954   3.013 -0.0839 -0.0409 -0.1728
25392W        W42239  12.326  15.225   2.255 -0.3367 -0.0505  0.0184
25393W        W42240   5.335   3.441   4.566  0.2092  0.2268  0.0158
25394W        W42241  17.692  13.932   1.503 -0.1512  0.2983 -0.2230
25395W        W42242  13.538   5.672   4.391  0.0783  0.1789 -0.2041
25396W        W42243   2.859   9.773  10.559 -0.3462 -0.1590  0.1493
25397W        W42244  16.150   3.922  10.222 -0.2178 -0.1665  0.2176
25398W        W42245  16.716   0.079   3.710 -0.2249 -0.1095 -0.4504
25399W        W42246   8.066   0.787  13.226  0.2274  0.1457 -0.3754
25400W        W42247   1.581   3.012   3.001  0.1342 -0.0500 -0.0037
25401W        W42248   4.904  10.544  11.920 -0.1034  0.1147 -0.0137
25402W        W42249   1.510  19.283   2.770 -0.0253 -0.0594  0.4288
25403W        W42250   8.338   5.711   0.103  0.2314  0.2100  0.2240
25404W        W42251  11.157  10.088   0.113 -0.0829 -0.2013  0.3144
25405W        W42252   3.092   3.873   2.083  0.0248 -0.3989 -0.1604
25406W        W42253   9.235   2.900  12.340  0.1342 -0.3690  0.0941
25407W        W42254  19.391  15.235  11.712  0.0706 -0.0283  0.1797
25408W        W42255  18.168  13.867  11.296 -0.1208 -0.4147  0.1979
25409W        W42256  11.104   9.913   1.448 -0.0844  0.0988  0.1486
25410W        W42257   8.919  14.052   0.440  0.3003 -0.2238  0.0424
25411W        W42258  14.602  17.788   1.330 -0.2115  0.0970  0.0648
25412W        W42259  10.040  18.912  11.990 -0.0953  0.2999 -0.0385
25413W        W42260   4.673  13.185   1.411 -0.1740 -0.0580 -0.1040
25414W        W42261  13.449  11.244   0.859 -0.0776 -0.3608 -0.3178
25415W        W42262  14.368  15.336   4.511 -0.0196  0.0114  0.2775
25416W        W42263   2.255  12.585  14.157  0.0152  0.3117  0.1947
25417W        W42264  10.737   5.668  12.297 -0.3969 -0.3958 -0.1088
25418W        W42265   7.924  13.255   4.215 -0.1214 -0.3604 -0.0130
25419W        W42266  18.277  17.743   4.000  0.1267 -0.0619 -0.2988
25420W        W42267  13.219  13.244   2.488 -0.2731 -0.0187  0.0225
25421W        W42268   7.233  19.706   3.231  0.0095 -0.3608  0.3535
25422W        W42269   8.454  11.525  14.234  0.1807  0.1170 -0.0229
25423W        W42270  13.415   0.910   2.786 -0.0871 -0.0003 -0.3570
25424W        W42271  10.556  14.503  13.371  0.0489  0.1229 -0.5856
25425W        W42272   5.810  12.654   4.100  0.1097  0.0286 -0.1252
25426W        W42273   7.363   7.884   9.403  0.1286 -0.4483  0.2188
25427W        W42274  18.678  14.419  10.826 -0.2427  0.0377  0.2034
25428W        W42275  13.858   4.719   3.600  0.0645  0.2254  0.0410
25429W        W42276   0.741  11.465  10.021  0.0307 -0.0893 -0.0937
25430W        W42277   0.027   3.787  10.919  0.1328  0.0138 -0.2590
25431W        W42278   4.155  13.865  12.823  0.2470  0.3730 -0.0030
25432W        W42279   7.473   1.943  13.089 -0.3217  0.0254 -0.0624
25433W        W42280   4.206   6.646   0.596  0.2966 -0.0211  0.0808
25434W        W42281  16.847   1.244  13.511 -0.3846  0.0286 -0.2346
25435W        W42282  19.171  15.198   0.046 -0.1291  0.5173  0.1872
25436W        W42283  13.494  11.003   3.617 -0.2787 -0.1029 -0.1702
25437W        W42284   6.043   8.542   2.578 -0.2370 -0.2802 -0.0574
25438W        W42285   0.016  15.633  10.925  0.0604  0.0355 -0.2035
25439W        W42286   8.700  15.262  10.222  0.3367  0.0917 -0.0534
25440W        W42287  16.405  12.428  12.607  0.3568  0.4006  0.1986
25441W        W42288  19.113   7.239   2.775  0.0412  0.2846 -0.1972
25442W        W42289  18.226  17.817  11.633 -0.3705  0.0981 -0.1684
25443W        W42290   7.891   4.441  13.338  0.1442  0.0155 -0.1032
25444W        W42291   2.953  13.749  13.145  0.2956 -0.1306 -0.0699
25445W        W42292  19.045  10.926   4.077 -0.0203 -0.3861  0.0277
25446W        W42293  12.301  12.316   2.148 -0.0615  0.2437 -0.0932
25447W        W42294  15.613  13.002   8.927 -0.1298 -0.0751 -0.0936
25448W        W42295   7.900   7.159   3.068  0.0819 -0.0026  0.0183
25449W        W42296   7.721  11.910  11.005  0.1787 -0.0155  0.2884
25450W        W42297  11.789   0.399   2.476 -0.2442 -0.0157  0.0447
25451W        W42298  11.327  15.248  10.969 -0.2049  0.0523 -0.2006
25452W        W42299  13.302   3.255  11.857  0.3008 -0.1387  0.1148
25453W        W42300   4.709   0.142   3.584  0.0352  0.3911  0.1297
25454W        W42301  10.884   5.048   1.055 -0.0253 -0.1610  0.0142
25455W        W42302   5.732   6.690  13.535 -0.2790 -0.3409 -0.1446
25456W        W42303   0.628  14.973  10.667 -0.2042  0.1216 -0.2305
25457W        W42304  18.864   2.882   5.600 -0.3624 -0.0453 -0.2798
25458W        W42305   0.286   0.300   2.788  0.1065  0.1237  0.0224
25459W        W42306   9.790  18.538   3.014  0.3987 -0.0915  0.1177
25460W        W42307  14.945   9.766   1.089 -0.1962 -0.1354 -0.2178
25461W        W42308   0.517   0.934   9.958  0.0455  0.1455 -0.2963
25462W        W42309   1.589  14.146   2.559  0.0557  0.5677  0.0938
25463W        W42310   1.239  15.256  14.002  0.1840  0.1588 -0.1802
25464W        W42311   9.238  15.518  12.344  0.3252 -0.0237  0.1212
25465W        W42312   5.051  11.134   3.558 -0.3003 -0.1873 -0.0801
25466W        W42313  15.880   6.109  10.547  0.0921 -0.1765  0.1957
25467W        W42314  14.810   6.420   1.313 -0.1287 -0.3247  0.2054
25468W        W42315  19.236  18.682   2.478  0.0412  0.1377  0.0721
25469W        W42316   1.240   1.633   1.714 -0.2938 -0.3015 -0.0164
25470W        W42317  18.430   8.699   1.849 -0.1087  0.0046 -0.0709
25471W        W42318  14.501   7.662  13.066  0.1223 -0.0118  0.1810
25472W        W42319  10.000   2.538  10.940 -0.0949 -0.1077  0.3229
25473W        W42320   7.708   9.465   1.894 -0.0853 -0.2278 -0.1157
25474W        W42321   6.617   8.151  10.024  0.2939  0.0221 -0.2152
25475W        W42322  13.448  18.186   9.819 -0.1054  0.1794 -0.1647
25476W        W42323   3.718   3.243  14.051  0.0652  0.0029  0.0914
25477W        W42324  18.691   0.119  12.994 -0.0481  0.0008  0.0832
25478W        W42325   9.568   9.064   2.169 -0.1039 -0.0448  0.3407
25479W        W42326  18.162  11.655  12.151  0.1429  0.1406 -0.1239
25480W        W42327   5.237  12.812   0.808  0.0608 -0.0760 -0.1277
25481W        W42328   1.598   8.110   3.495 -0.3065  0.0441 -0.0782
25482W        W42329   6.178   5.361  11.975 -0.1411  0.1609  0.1510
25483W        W42330  15.318   2.734   3.130 -0.0645 -0.0029 -0.2907
25484W        W42331   4.921   5.489   5.062 -0.2852  0.6057  0.2473
25485W        W42332  13.550  11.294   9.960  0.6379 -0.3381 -0.0667
25486W        W42333   6.107   1.260   4.330  0.2619  0.2048  0.3086
25487W        W42334   9.462  11.081  10.118  0.1108 -0.0465  0.0588
25488W        W42335   5.115   8.304  13.483 -0.0401  0.3830 -0.4326
25489W        W42336   8.494   0.093   1.255 -0.1377  0.2593 -0.0323
25490W        W42337  14.894   1.083   2.890 -0.0107 -0.1260 -0.3208
25491W        W42338  13.928   0.240   2.588 -0.1250 -0.1713  0.0661
25492W        W42339  19.813   6.330  11.513 -0.0098  0.3367  0.0435
25493W        W42340   7.085   8.423  11.588 -0.1064 -0.2791 -0.1690
25494W        W42341   3.446  10.378  12.445 -0.3606  0.0742  0.0810
25495W        W42342   5.814  11.289  14.250  0.0337  0.4215  0.0962
25496W        W42343   8.635  14.262   4.059  0.1548  0.1380 -0.1875
25497W        W42344   9.453  16.527   9.996 -0.4516 -0.0599  0.3269
25498W        W42345  15.700  16.201   0.291 -0.3980  0.1662  0.2222
25499W        W42346   3.931   2.486   2.460  0.4629 -0.0521 -0.0307
25500W        W42347  12.309   8.955  12.700  0.1005  0.0627 -0.0586
25501W        W42348  16.852   2.404  13.320 -0.2240  0.1702  0.0401
25502W        W42349   3.078  19.283   2.313 -0.2187 -0.1554  0.1884
25503W        W42350  13.826  17.078  12.570 -0.0003  0.0196  0.0402
25504W        W42351   2.784   8.593  12.837 -0.2531  0.6863  0.2992
25505W        W42352   9.546   8.293   5.263  0.3182  0.1810  0.2254
25506W        W42353  16.885  18.755  13.295 -0.1453 -0.0396 -0.0389
25507W        W42354  15.469   7.442  13.137  0.3548 -0.0656 -0.1007
25508W        W42355   5.188   7.736   4.137 -0.1361  0.3339 -0.1687
25509W        W42356  17.201   3.459  12.629 -0.0367 -0.0963 -0.2496
25510W        W42357   6.710  17.635   2.667 -0.0479 -0.0066 -0.2068
25511W        W42358  19.779  14.094   0.341 -0.3836  0.0315 -0.0483
25512W        W42359  14.250   1.696  13.775 -0.1510  0.0415 -0.0913
25513W        W42360  17.565   5.520   9.399 -0.1268 -0.2498 -0.2220
25514W        W42361  19.452   4.414   2.340  0.0362  0.3093  0.0308
25515W        W42362   9.323  15.332   3.457 -0.0707 -0.3981 -0.0579
25516W        W42363  19.726  17.293   2.619  0.2705 -0.0948  0.1192
25517W        W42364   5.975  13.119  13.139 -0.1262  0.1082 -0.0237
25518W        W42365  14.111  13.093   3.574  0.1325 -0.0512  0.0199
25519W        W42366  13.720   6.672  14.222  0.0828  0.2473 -0.0660
25520W        W42367   3.364   0.682  10.911  0.1481 -0.3480  0.2735
25521W        W42368   0.099  12.052  13.749  0.1547  0.0529  0.3592
25522W        W42369   9.292  10.034   5.259  0.2522  0.3717  0.1763
25523W        W42370   7.111  19.306   9.929 -0.0077 -0.4744 -0.2496
25524W        W42371   1.442  13.893   1.923 -0.0534 -0.2378 -0.0472
25525W        W42372  19.158  12.166  10.767 -0.0427 -0.0351 -0.0320
25526W        W42373  15.531   8.250   2.606  0.0758 -0.2018 -0.0030
25527W        W42374  12.791  14.470  11.500 -0.1948 -0.3077 -0.0277
25528W        W42375   0.979  17.102  13.605 -0.0979 -0.0087 -0.2214
25529W        W42376  19.280  13.083  13.289 -0.0501 -0.0586  0.2020
25530W        W42377   0.203  13.751   2.073 -0.2151  0.2256  0.0962
25531W        W42378   2.264  16.020  11.027 -0.2165  0.2260  0.1145
25532W        W42379   9.186   2.093  13.869 -0.3196 -0.0616 -0.3331
25533W        W42380  12.280   6.124   3.935 -0.0814  0.2269  0.1692
25534W        W42381   2.757   4.164  11.744  0.2891 -0.0460 -0.1196
25535W        W42382  17.360   1.141   2.529 -0.0420  0.0907 -0.1415
25536W        W42383  15.024  16.307   2.198  0.1250 -0.0161 -0.3054
25537W        W42384  13.095  19.427  13.239 -0.0024 -0.2563 -0.0926
25538W        W42385  16.215  11.376   4.059  0.1216 -0.0708 -0.2520
25539W        W42386  15.079   2.110   4.155 -0.0029  0.3136 -0.4621
25540W        W42387   4.462  19.001   9.472 -0.4881  0.0363  0.1919
25541W        W42388  19.793   8.563  13.630  0.2318  0.1952 -0.0125
25542W        W42389   1.974   6.691  12.886 -0.2096 -0.0062  0.2215
25543W        W42390  11.867  10.579   2.403  0.0129 -0.0803  0.0136
25544W        W42391   3.587   9.796   8.795  0.0345  0.2280 -0.0487
25545W        W42392  14.414   5.540  12.895  0.1343  0.1735 -0.1065
25546W        W42393   3.599  17.729  11.853  0.0630 -0.4042  0.1356
25547W        W42394   0.261  15.649   2.005  0.1401 -0.0705  0.4341
25548W        W42395   0.567   2.732  13.069 -0.0892 -0.1533  0.0094
25549W        W42396   9.802   5.609  13.461  0.0552  0.0259 -0.1022
25550W        W42397  14.771  12.636  11.349 -0.1769 -0.1700 -0.1677
25551W        W42398  15.990   2.325   5.354 -0.0463 -0.3391  0.0512
25552W        W42399   1.063   5.667  10.595 -0.1611 -0.0844 -0.2232
25553W        W42400   0.092   2.693  13.740 -0.0169 -0.0856 -0.0478
25554W        W42401   0.585  14.463  11.527  0.3292  0.0891 -0.0820
25555W        W42402  12.578   5.992   0.989 -0.0517  0.1021 -0.2437
25556W        W42403   3.187   2.399   4.230  0.2737  0.1561 -0.2203
25557W        W42404   0.815  15.918   9.651 -0.1649 -0.2104 -0.1451
25558W        W42405  10.719   8.974  11.827 -0.0537 -0.0059 -0.0729
25559W        W42406   0.104   6.358   2.727 -0.2205  0.1317  0.2679
25560W        W42407  14.877  12.701   1.783 -0.3009 -0.1211  0.1144
25561W        W42408  12.923  17.664  10.691 -0.0687 -0.5023  0.2388
25562W        W42409   3.558  13.261  10.268 -0.4123  0.2203 -0.1136
25563W        W42410   8.629  16.450   2.366 -0.2305  0.4439  0.2401
25564W        W42411  15.390   6.509   4.861 -0.3814  0.1957 -0.0286
25565W        W42412  19.500   5.761  12.377  0.0176  0.0281  0.1280
25566W        W42413   7.092   0.032  11.933  0.1743 -0.0682 -0.0795
25567W        W42414  14.833  12.473  10.428  0.1013  0.0217  0.1960
25568W        W42415   4.549  12.553   4.372 -0.0723 -0.3247  0.0218
25569W        W42416  14.775   8.458   1.105 -0.1878 -0.0449  0.1263
25570W        W42417  13.707   0.381   4.286 -0.2202 -0.1305 -0.0463
25571W        W42418  14.790  14.599   4.007 -0.3361 -0.1932 -0.0602
25572W        W42419   6.987  10.808  13.186 -0.0066  0.1888 -0.3842
25573W        W42420  13.769  17.495   4.177  0.0557 -0.1364 -0.4823
25574W        W42421  14.951  16.626   2.768 -0.2885 -0.0955 -0.0899
25575W        W42422   6.229   3.925   4.234 -0.3080 -0.1360 -0.4213
25576W        W42423   9.621  19.475   0.902 -0.0113  0.0927 -0.0544
25577W        W42424  19.172  13.712   3.758 -0.1771 -0.1435  0.0661
25578W        W42425  18.486  11.657  12.655  0.0133  0.1886  0.1789
25579W        W42426  13.340   4.967   9.514 -0.1057  0.1416 -0.2843
25580W        W42427   8.714   7.156   1.858 -0.1798 -0.0839 -0.0135
25581W        W42428   1.087   3.130   1.610 -0.0256  0.2878  0.1275
25582W        W42429   1.818   8.900   4.698 -0.0259 -0.2213 -0.2995
25583W        W42430   2.133  19.118  10.070 -0.0381 -0.3622  0.2097
25584W        W42431   6.282   1.206   1.826 -0.1955  0.1158  0.3060
25585W        W42432  14.294   9.798  11.556  0.2071  0.0482 -0.0049
25586W        W42433   5.470   8.898  10.715  0.1387 -0.0232  0.1750
25587W        W42434   1.229  14.219   3.565  0.1627 -0.4155 -0.1669
25588W        W42435  10.252   6.419   3.764  0.0606 -0.0822  0.0777
25589W        W42436   3.152  18.871   1.406 -0.2342  0.1286 -0.1399
25590W        W42437  13.681   4.825   0.324 -0.0691 -0.0441 -0.2427
25591W        W42438  16.363   1.068   4.542 -0.3647  0.2499 -0.4703
25592W        W42439   9.032  15.703  10.422  0.1108 -0.0856  0.3101
25593W        W42440   2.809   4.142   1.634  0.0784 -0.4027  0.2552
25594W        W42441   5.993   1.527  11.480  0.2291 -0.1426  0.2371
25595W        W42442   3.809  16.261  13.535 -0.1271 -0.2297 -0.0104
25596W        W42443   1.337   1.001  13.339  0.0675  0.0079  0.1586
25597W        W42444  15.433   3.037   0.673 -0.1443 -0.0535 -0.0259
25598W        W42445  17.656  18.994  11.514  0.2371 -0.3805 -0.2190
25599W        W42446  17.124   8.380  13.676 -0.2743 -0.0149  0.0350
25600W        W42447   3.341   7.279  11.557 -0.1461 -0.2202 -0.0142
25601W        W42448   9.864  13.906  11.425  0.1933  0.2010  0.2585
25602W        W42449  17.338  10.231  11.808 -0.1284  0.3827 -0.1991
25603W        W42450   4.867  13.141  11.352 -0.0630 -0.0769 -0.1178
25604W        W42451   1.925  12.054  14.308 -0.1151  0.0699 -0.2933
25605W        W42452   2.539   9.636  10.210  0.4370  0.0845  0.4220
25606W        W42453  14.207  16.138  13.215  0.1907 -0.1971  0.1464
25607W        W42454   4.743  17.569  12.565 -0.1286  0.0034  0.1649
25608W        W42455  16.734  16.946   2.673  0.1995 -0.3661  0.1391
25609W        W42456   0.425   0.709  12.786 -0.0330 -0.2283  0.0116
25610W        W42457   4.956   3.024   1.032  0.0597 -0.2603 -0.0022
25611W        W42458   5.684   7.090   1.467  0.0669  0.0573 -0.1303
25612W        W42459   7.123  15.799  11.156 -0.2255 -0.5400  0.1606
25613W        W42460   3.930  16.352  10.155 -0.0671 -0.2241  0.0656
25614W        W42461   8.281   5.009   1.208 -0.0350 -0.0293 -0.1503
25615W        W42462   1.231  15.900  12.264 -0.0544  0.0060 -0.1047
25616W        W42463  15.873  19.192   1.087  0.0311  0.1574 -0.1457
25617W        W42464   7.926   7.893   2.956 -0.1068  0.1447  0.0279
25618W        W42465   5.902   3.598   2.488  0.2613  0.1046  0.0066
25619W        W42466   6.039  14.336   3.967 -0.1552 -0.1383 -0.0974
25620W        W42467   9.975  18.079   4.748 -0.4101  0.1327 -0.3417
25621W        W42468   1.405   6.789  11.271  0.0666 -0.2830 -0.1672
25622W        W42469   5.992  16.328   1.776  0.1417 -0.2086 -0.2580
25623W        W42470   7.741   6.251   2.557  0.1418  0.1796  0.0134
25624W        W42471  17.682  17.500   3.466 -0.0771  0.1544 -0.1339
25625W        W42472  10.420  11.329   9.834  0.4100  0.0107  0.3294
25626W        W42473   4.313   1.569  10.890  0.1510 -0.1069 -0.0393
25627W        W42474  16.876   7.806  13.825 -0.2390  0.0754 -0.0470
25628W        W42475   3.219   6.166   1.578 -0.3071  0.0846 -0.1977
25629W        W42476   0.942   9.775   1.395  0.2243 -0.0727 -0.3407
25630W        W42477   9.263   5.916   0.060 -0.0108 -0.2362 -0.3109
25631W        W42478  18.806   5.673   0.296  0.3248 -0.1455  0.0008
25632W        W42479  12.659  12.306   1.763 -0.3022  0.0549  0.1156
25633W        W42480  12.619  12.871   0.988  0.3104 -0.0924 -0.2291
25634W        W42481  14.964  16.013  12.336 -0.0734  0.1451 -0.1823
25635W        W42482   4.618  10.123  12.822  0.0624 -0.1921  0.0078
25636W        W42483  16.238   9.295  11.029  0.4326  0.0196 -0.1043
25637W        W42484  18.923   0.883   3.733  0.0376  0.0330  0.0225
25638W        W42485  13.953  10.238  11.344  0.0336 -0.1029  0.2001
25639W        W42486   3.145  18.260  13.401 -0.0827 -0.2040  0.3001
25640W        W42487  12.547  17.730   2.345  0.3710  0.2137 -0.4695
25641W        W42488  17.901   5.604   5.073 -0.0129  0.0341  0.2124
25642W        W42489  16.036   9.764  14.265  0.0661 -0.1923  0.2428
25643W        W42490  19.059  13.933  14.211  0.4632 -0.2982  0.0966
25644W        W42491  15.877  10.269   0.592 -0.0599  0.3898  0.1381
25645W        W42492  14.310  11.526  13.940  0.1425  0.0088 -0.2210
25646W        W42493  12.256  16.368  10.046  0.1671  0.1796  0.0142
25647W        W42494  12.265   5.288  10.888  0.1440 -0.1344 -0.1009
25648W        W42495   4.933   6.788   5.027  0.1201  0.1809  0.0143
25649W        W42496  11.979   3.845  11.903  0.1616  0.1134 -0.3184
25650W        W42497   6.384  17.523  10.107 -0.1323 -0.0951 -0.0564
25651W        W42498   3.523  16.037  13.180  0.0639  0.0712  0.4795
25652W        W42499   7.615  18.938   1.332 -0.0756  0.0643  0.0435
25653W        W42500   5.251  17.363   4.130  0.2018 -0.2951 -0.0353
25654W        W42501  15.239  15.952   0.881 -0.1424 -0.3086 -0.1791
25655W        W42502  10.325   9.329  13.725 -0.0826  0.0631  0.1315
25656W        W42503  16.320  19.125   0.835 -0.1791 -0.0686 -0.1287
25657W        W42504   8.530   5.776  10.524  0.0392  0.2062 -0.2113
25658W        W42505  18.247   7.286   1.778 -0.2112  0.1748 -0.1048
25659W        W42506  10.775   8.995  13.069 -0.0184  0.2396  0.0859
25660W        W42507   2.207   6.517   4.539 -0.0001  0.1451  0.0978
25661W        W42508   1.694   4.720   2.239 -0.0915 -0.2740 -0.2259
25662W        W42509  12.538  11.501  11.918 -0.1020  0.0973  0.1861
25663W        W42510   5.687   9.307  14.259 -0.0091 -0.0819 -0.0948
25664W        W42511   0.545  12.584  10.602 -0.0429 -0.0551  0.1691
25665W        W42512   4.485   5.877   3.177  0.5077 -0.1149 -0.3271
25666W        W42513  14.844   9.158  10.396 -0.4167 -0.1700 -0.0868
25667W        W42514   6.113  12.747  12.384 -0.0941  0.0778  0.0948
25668W        W42515   8.810   9.330   3.668 -0.0909 -0.5573 -0.1802
25669W        W42516   5.184   0.079   4.612  0.0645  0.1926 -0.3643
25670W        W42517  13.836   1.508   1.583 -0.2424  0.1714  0.1637
25671W        W42518   3.703  10.085  14.079  0.3029 -0.0065 -0.1016
25672W        W42519  19.737  10.597  10.222 -0.4005 -0.0136 -0.2214
25673W        W42520   5.465   3.045  13.127  0.2680 -0.1391  0.3959
25674W        W42521   5.378   3.997   0.246  0.0803  0.2338 -0.2347
25675W        W42522   4.079  14.997  10.717  0.0351 -0.0766 -0.1237
25676W        W42523   7.596  18.545  12.957  0.1750  0.1433  0.3251
25677W        W42524  16.688  15.307   2.832 -0.4779 -0.3928 -0.2173
25678W        W42525   8.440  19.535   1.251  0.2802  0.1619 -0.1939
25679W        W42526   9.144   6.137   0.877  0.0538  0.2337 -0.0963
25680W        W42527   3.598  10.382   1.631  0.4482 -0.3195  0.2911
25681W        W42528  16.056   9.958   4.097 -0.0048  0.0308 -0.2183
25682W        W42529  10.084  15.017   1.013 -0.3532 -0.3804 -0.1678
25683W        W42530  16.490   8.589  11.977  0.1669 -0.2265  0.2260
25684W        W42531  19.253  10.295   0.657  0.0656  0.2384  0.0918
25685W        W42532   8.501   2.003   1.676 -0.0988 -0.1049 -0.1512
25686W        W42533  17.256  12.860  12.449 -0.1165 -0.0658 -0.0613
25687W        W42534   6.424  14.282   2.996 -0.2533  0.3286  0.0239
25688W        W42535   4.875  14.761   2.467  0.1093 -0.0084  0.1564
25689W        W42536   0.176  18.699  10.036 -0.1318  0.0359 -0.5032
25690W        W42537  10.693   0.350   9.155 -0.1598  0.0171 -0.3105
25691W        W42538   2.759  17.306  13.597  0.2177  0.0993  0.0055
25692W        W42539  18.545  11.164   0.772 -0.2946  0.0165  0.0630
25693W        W42540  17.506  13.101   2.022 -0.0565 -0.3009 -0.0929
25694W        W42541   7.663  12.973   0.831  0.1719 -0.1746  0.1276
25695W        W42542   4.134   2.292  13.315 -0.0682 -0.1915  0.0854
25696W        W42543   6.525   9.206  12.734  0.0111  0.5056 -0.0142
25697W        W42544  11.294   9.321  11.335  0.2025 -0.1016 -0.1414
25698W        W42545   3.939   3.749  10.620  0.3060 -0.0178 -0.1226
25699W        W42546   1.861   9.969   3.946 -0.1792 -0.0181 -0.1174
25700W        W42547  13.840  13.469   1.767  0.0524 -0.1398 -0.3305
25701W        W42548   0.208  17.298   9.989 -0.0495  0.0166  0.2248
25702W        W42549   4.169  15.019   1.615 -0.0306 -0.1380  0.1916
25703W        W42550   2.935   2.622  10.170  0.0850 -0.2942  0.0812
25704W        W42551  12.437   3.296   2.395  0.1422 -0.0025  0.0944
25705W        W42552   2.156  10.923   1.741 -0.0476  0.0665 -0.1945
25706W        W42553   2.840  16.769  10.416 -0.2430 -0.1644 -0.1455
25707W        W42554  13.088   9.520  12.541  0.0520  0.0623  0.0262
25708W        W42555   4.287  14.120   2.662  0.2135  0.0248 -0.0996
25709W        W42556   2.684  19.081  10.457 -0.1657  0.5180 -0.0313
25710W        W42557   2.087   9.934  12.887 -0.0104 -0.3398 -0.2144
25711W        W42558   8.263  11.959  11.084 -0.1215  0.1462  0.3252
25712W        W42559   1.041  14.828  10.404  0.1134  0.3872 -0.1875
25713W        W42560  19.810  18.004  12.736  0.0303  0.1146 -0.0632
25714W        W42561   1.009  17.029   0.251 -0.1868 -0.1445 -0.1933
25715W        W42562  18.261   7.051  10.708  0.0944  0.1435  0.1035
25716W        W42563  11.405  11.710   0.146 -0.2069 -0.3176  0.0940
25717W        W42564  15.203   5.953   2.284 -0.0415  0.1809 -0.4650
25718W        W42565  12.765   3.027   4.713  0.1456  0.1771 -0.0309
25719W        W42566  19.606   5.427  14.281 -0.1285  0.0222 -0.6270
25720W        W42567  18.674  17.689   3.472  0.0279  0.0427  0.0341
25721W        W42568   4.347   2.476  10.566 -0.0768  0.0756  0.2461
25722W        W42569  19.694  13.698  11.745 -0.2824  0.1057 -0.0711
25723W        W42570  19.512  12.824   2.114 -0.0251  0.1961 -0.0971
25724W        W42571   9.606   3.267   0.976  0.3213 -0.0053 -0.0291
25725W        W42572   6.083  16.148   2.530  0.3043  0.3112 -0.0984
25726W        W42573  12.203  16.741   4.213  0.2255 -0.1617 -0.1076
25727W        W42574   9.494  10.668   1.509 -0.0445  0.1053  0.1764
25728W        W42575   7.787  13.767   0.624 -0.2825 -0.2489 -0.1011
25729W        W42576   7.553  12.014  13.537  0.0678  0.0047 -0.2534
25730W        W42577  10.725   6.051  13.396  0.0661  0.2683  0.1477
25731W        W42578   3.688   7.530  13.548  0.1685 -0.2421  0.1160
25732W        W42579  18.880  19.430   4.535  0.1002 -0.0118  0.2161
25733W        W42580   6.867   5.967   2.949  0.0677  0.0971  0.1942
25734W        W42581   6.019   2.726  10.703 -0.2773 -0.0751 -0.1394
25735W        W42582  19.170   5.307   4.431  0.2318  0.0284 -0.3584
25736W        W42583   1.706   9.297   1.518  0.0913  0.1444  0.1758
25737W        W42584  16.934  13.554   1.120 -0.0285  0.2907 -0.1244
25738W        W42585  10.055   5.846   0.881 -0.1757 -0.1303 -0.1108
25739W        W42586   3.631   9.885   2.466  0.0094 -0.3602 -0.0806
25740W        W42587  10.523   5.104  13.961 -0.3064  0.4462 -0.0661
25741W        W42588   3.419   8.170   3.846 -0.0065 -0.2188 -0.3207
25742W        W42589  14.983   8.845   2.270  0.0251  0.0159 -0.2073
25743W        W42590  17.186   8.584  11.146  0.0776  0.1212  0.1724
25744W        W42591  19.526   0.870  11.219  0.0771 -0.0157  0.2654
25745W        W42592   6.139  16.949  12.053  0.1944  0.0194  0.0878
25746W        W42593   9.294  13.627  10.332  0.1872  0.0974  0.1249
25747W        W42594   6.662  16.694   0.664 -0.1361 -0.3617  0.1580
25748W        W42595   5.623   7.499   1.729  0.2201 -0.0994 -0.3032
25749W        W42596   3.949  14.906   3.542  0.0240 -0.1985 -0.0130
25750W        W42597   3.260  11.002   3.769 -0.2267 -0.1503  0.0784
25751W        W42598  12.097  18.816  11.658  0.1546  0.1308 -0.0948
25752W        W42599   9.457  16.685   1.636 -0.0607  0.0857  0.4245
25753W        W42600   2.299  15.968   1.604  0.0101 -0.1250 -0.1225
25754W        W42601   8.024   3.273   1.748  0.2570  0.0796  0.0764
25755W        W42602  11.001  18.424  11.164 -0.0867 -0.0428 -0.0544
25756W        W42603  17.799   6.426  10.988  0.2207 -0.1757  0.4232
25757W        W42604  14.021   9.310  11.499 -0.1405  0.0077 -0.1590
25758W        W42605   1.212   1.422  14.269 -0.1152  0.0228 -0.1777
25759W        W42606  15.438   3.522   4.142  0.0562  0.0496  0.0157
25760W        W42607   5.193   3.646   3.125  0.2305  0.0702  0.2107
25761W        W42608   5.900  19.753  12.251  0.0434 -0.2945 -0.0276
25762W        W42609   9.613  10.652   2.281  0.3591  0.1347  0.1988
25763W        W42610   3.943  10.422   3.651  0.1772 -0.0510  0.0451
25764W        W42611  14.392   1.816  13.315  0.1197 -0.3636 -0.1633
25765W        W42612   3.782   5.891  11.540  0.0418  0.0425  0.1204
25766W        W42613  14.971  15.544   4.709 -0.1734 -0.3787 -0.2120
25767W        W42614  17.909  10.880   5.051  0.0123 -0.4754 -0.3004
25768W        W42615   3.096   7.659  11.558  0.1204  0.1802  0.0428
25769W        W42616   7.328  18.184   2.224  0.1415  0.5462  0.0707
25770W        W42617  10.529  15.483   3.700  0.0476  0.0424  0.0653
25771W        W42618   4.402  11.740   3.409  0.0258  0.0656 -0.0120
25772W        W42619  14.804   5.408  11.631 -0.0058  0.4102  0.1633
25773W        W42620   4.958   2.419   4.503 -0.0225 -0.1574  0.0473
25774W        W42621  11.915  12.930  11.513  0.2262 -0.4053 -0.2250
25775W        W42622  13.343   2.848  11.506  0.1203  0.0230 -0.0330
25776W        W42623   4.869   0.697   1.333  0.1284 -0.1447 -0.1823
25777W        W42624  12.005   6.483   4.829 -0.1877 -0.0130  0.0212
25778W        W42625  13.587   6.511   1.763 -0.0352 -0.1574  0.3520
25779W        W42626   1.596   8.693   2.662  0.1500 -0.0590 -0.0085
25780W        W42627  15.341  11.363   2.082  0.3521  0.4067 -0.0253
25781W        W42628   5.327  19.082   3.921  0.2507 -0.1655 -0.0378
25782W        W42629   5.965  11.234  13.775 -0.5215 -0.0638  0.5056
25783W        W42630   0.819  12.634   0.005  0.1326  0.2007  0.0367
25784W        W42631  11.434   9.697   0.239  0.1146  0.0188  0.0858
25785W        W42632  11.460   4.053   2.632 -0.1296 -0.1248  0.2592
25786W        W42633  14.192  17.205  12.863 -0.0904 -0.1186 -0.0788
25787W        W42634   2.458  18.133   3.660  0.1277  0.2650  0.2848
25788W        W42635  12.095  18.757   3.885  0.2235 -0.4039 -0.1970
25789W        W42636  11.053   1.600   4.956  0.0844 -0.1062 -0.1067
25790W        W42637  15.094   6.058   0.865 -0.0048 -0.1836  0.0149
25791W        W42638  11.698  14.774   3.570 -0.1576  0.1137  0.1941
25792W        W42639   1.028  12.959  11.561 -0.1050 -0.1124 -0.1322
25793W        W42640   4.866  11.468   3.201  0.2698 -0.3271  0.0884
25794W        W42641  15.735   3.192   9.894  0.2106 -0.1554 -0.4032
25795W        W42642  17.056   7.849   3.078  0.3640  0.0047 -0.0004
25796W        W42643  18.108   5.227   2.708  0.0431  0.5683  0.1461
25797W        W42644  11.773   7.124  12.853  0.0344  0.1570  0.0730
25798W        W42645   4.475   2.888  12.872 -0.0466  0.0303 -0.2973
25799W        W42646  18.417  12.824  11.150 -0.1242 -0.1770  0.2081
25800W        W42647  14.916  15.890   9.296  0.0002 -0.0609 -0.0069
25801W        W42648   8.005   7.175   2.348  0.5030 -0.0179 -0.0209
25802W        W42649  10.875   3.921  10.842 -0.0842 -0.0178  0.1067
25803W        W42650   9.916   4.376   3.316 -0.1289 -0.3623 -0.0113
25804W        W42651  14.681  13.796   2.436  0.1153 -0.3334  0.2550
25805W        W42652  12.678  18.829  10.852 -0.0426  0.1869 -0.0346
25806W        W42653  14.962  10.243  12.948 -0.1748 -0.0187 -0.2900
25807W        W42654   8.131  19.693   9.978 -0.1796  0.1321  0.1087
25808W        W42655   3.772   4.011  10.164 -0.1154  0.0266  0.5562
25809W        W42656  13.519   5.172  12.090  0.0336  0.0591  0.1342
25810W        W42657   7.305   4.650   4.710 -0.0312 -0.0882  0.0885
25811W        W42658   6.673   9.768  12.491  0.0601 -0.0344 -0.0389
25812W        W42659   5.876   5.777   4.112  0.2239 -0.0301  0.2986
25813W        W42660  19.154   2.688  14.189  0.3592 -0.0555  0.0240
25814W        W42661   5.540  12.769  10.443  0.1970 -0.4948  0.0822
25815W        W42662  10.451   2.196   2.807 -0.1558  0.1535  0.3179
25816W        W42663   8.813  12.629   3.087 -0.0331 -0.0131  0.3528
25817W        W42664   6.160   3.089  12.971 -0.0353 -0.2915 -0.0078
25818W        W42665   4.909  19.824   1.923  0.0525  0.0221  0.2354
25819W        W42666  10.978  10.345  12.028  0.2045 -0.1893  0.1226
25820W        W42667   7.067  17.444   2.902  0.2081 -0.0607 -0.2030
25821W        W42668   9.106  17.643  11.553 -0.0177 -0.1919 -0.0049
25822W        W42669  18.167   0.369  13.067 -0.0323  0.0233  0.3273
25823W        W42670   2.978  18.430   1.880 -0.0706 -0.3315  0.0502
25824W        W42671   3.309   3.152  12.056 -0.1866  0.1111  0.2285
25825W        W42672  13.470  11.256   4.288  0.0256  0.0788 -0.0828
25826W        W42673   3.550   4.571   1.582 -0.1403  0.2472 -0.1296
25827W        W42674   6.343   4.851   0.491 -0.2857  0.2205 -0.2507
25828W        W42675   8.435   4.838   2.542 -0.0036 -0.0431  0.0272
25829W        W42676  12.227   4.056  11.551 -0.2520  0.2952 -0.0812
25830W        W42677  17.394  12.785  13.393  0.1674  0.0556  0.2701
25831W        W42678  15.243  12.444   2.053  0.0258 -0.0853  0.0981
25832W        W42679   6.515  11.130  13.765  0.2178  0.0132  0.2373
25833W        W42680  13.802   4.772   4.816  0.0583  0.2663 -0.0835
25834W        W42681   6.501   7.183   4.379 -0.5006  0.0584 -0.1383
25835W        W42682   5.313  14.858  11.268  0.1620  0.0823  0.0777
25836W        W42683  12.735   6.825   9.731  0.3368 -0.0710 -0.1262
25837W        W42684   7.501   6.303   1.515 -0.0842  0.1257  0.2416
25838W        W42685   9.509   3.890  10.122 -0.0936 -0.1598  0.0682
25839W        W42686  14.560   8.070   0.104  0.0771 -0.1349  0.2655
25840W        W42687   3.912   5.058  10.689  0.3885  0.1067 -0.2644
25841W        W42688  18.679   5.451  11.355  0.4825 -0.2346  0.3961
25842W        W42689   1.273  12.072   2.735 -0.3243  0.1723  0.0555
25843W        W42690  10.739  19.101  11.475 -0.0943  0.1826 -0.0214
25844W        W42691   5.711   6.633  11.660 -0.1468 -0.3069  0.1479
25845W        W42692   1.859   3.771   0.963 -0.2062  0.1025 -0.0657
25846W        W42693  10.359   6.357  12.631 -0.0744 -0.3519  0.3067
25847W        W42694  10.664   7.743   3.201 -0.2616 -0.2138  0.2693
25848W        W42695  10.420   2.842  10.976  0.0750 -0.0484 -0.4357
25849W        W42696  10.326   0.387   0.726  0.1152 -0.2025 -0.1071
25850W        W42697   4.577  10.039   0.630 -0.1805  0.0158 -0.1662
25851W        W42698  12.250  19.104   2.771  0.2574  0.0761 -0.0991
25852W        W42699  17.785  17.041   1.161  0.1597  0.0053 -0.0315
25853W        W42700  12.702  15.995  12.250  0.0557 -0.0537 -0.1278
25854W        W42701   2.001  15.924   1.107  0.1009  0.0338  0.1332
25855W        W42702  17.146  13.865   5.206  0.0032 -0.0441 -0.1972
25856W        W42703   5.888  13.196  12.483 -0.2721 -0.0790 -0.1620
25857W        W42704   6.196   2.848   0.827  0.0506  0.0214  0.1781
25858W        W42705   6.122  12.631   9.222  0.3533 -0.0889  0.1970
25859W        W42706  13.873   7.728  11.065  0.0235 -0.0318 -0.2837
25860W        W42707  15.237   3.647   1.960 -0.0576 -0.0768 -0.2384
25861W        W42708  15.822   2.901   3.355  0.2148 -0.1104  0.0461
25862W        W42709  19.631   0.958   1.249 -0.0089 -0.2228  0.3098
25863W        W42710   5.779  15.662   3.821  0.0861 -0.1172 -0.3376
25864W        W42711  17.012   0.199  12.815  0.3285 -0.1249  0.1572
25865W        W42712  18.266   6.869   0.459  0.1750  0.0926  0.0256
25866W        W42713  19.450   8.865  12.368  0.0241  0.1236  0.1068
25867W        W42714   8.196   2.435   2.659 -0.0828  0.0639  0.1290
25868W        W42715  18.222   3.699   0.286  0.1007 -0.3778  0.0853
25869W        W42716   4.823  19.042   8.533 -0.2064 -0.1301 -0.1459
25870W        W42717   3.634   4.970   3.171  0.1137  0.1178 -0.0051
25871W        W42718  16.791   0.373   9.888  0.2513  0.5813 -0.1658
25872W        W42719  18.395   2.019   4.884 -0.1657  0.1685  0.3847
25873W        W42720  16.741  18.790   0.946  0.0196  0.0560 -0.1427
25874W        W42721  18.591  13.382  12.384  0.4116 -0.1932  0.1720
25875W        W42722   2.864   5.126   0.569  0.1698 -0.1340 -0.1004
25876W        W42723  16.751  15.737  11.608 -0.0627 -0.0146 -0.0986
25877W        W42724   5.066  10.686  13.427 -0.1131 -0.2465  0.0648
25878W        W42725  10.807  12.696   9.280  0.0899  0.0758  0.0174
25879W        W42726  11.743  11.044   3.455  0.0703  0.1505 -0.0186
25880W        W42727  11.359  15.196   0.327 -0.1148 -0.4758 -0.2199
25881W        W42728  17.820   2.221  11.147  0.2120  0.1831  0.1294
25882W        W42729  19.827  16.269  13.628 -0.1884  0.0617 -0.1222
25883W        W42730  13.494   1.155  13.062 -0.0068 -0.1395  0.2949
25884W        W42731   0.575   2.367   3.809  0.1386 -0.2614  0.2171
25885W        W42732   8.132  19.177   4.318  0.0177 -0.0444 -0.2771
25886W        W42733   5.059   4.876   3.417 -0.2637 -0.1807  0.0323
25887W        W42734  19.706  11.942   2.521  0.1729 -0.2933  0.0365
25888W        W42735   6.396   7.295   2.824  0.1660 -0.0779  0.0338
25889W        W42736  11.886   4.910   3.771 -0.0921 -0.1072  0.0981
25890W        W42737  11.151   9.983   1.999 -0.1748 -0.1011 -0.2069
25891W        W42738  11.706   1.858   2.255 -0.0604  0.2320 -0.3931
25892W        W42739  17.439   3.416  13.888 -0.0349  0.2078 -0.3255
25893W        W42740  15.524  19.630   1.742 -0.0143 -0.1433 -0.0055
25894W        W42741  13.098  12.559   9.648 -0.0380 -0.3116  0.0177
25895W        W42742  15.066   3.334   3.716 -0.1441  0.0734 -0.1926
25896W        W42743  13.271  17.554  10.295  0.2220 -0.2498  0.0271
25897W        W42744  14.661   1.921  10.122  0.1855 -0.1573  0.1218
25898W        W42745   5.307  14.597   9.951  0.2752 -0.1520 -0.0366
25899W        W42746   3.835  19.510   3.557  0.0843 -0.1341 -0.0790
25900W        W42747  12.021  15.742  13.014 -0.1599  0.0267  0.0612
25901W        W42748   9.401   1.226   0.309 -0.0670 -0.1275 -0.2531
25902W        W42749  13.986  16.328  10.375 -0.0110 -0.0133  0.0472
25903W        W42750  16.261  14.223   1.816 -0.2573 -0.1023  0.2685
25904W        W42751  11.631  15.017  11.389  0.1999 -0.0374  0.4141
25905W        W42752   4.769   0.025  11.966 -0.2063 -0.0211  0.2070
25906W        W42753   7.956   6.923  12.757  0.2262 -0.0696  0.2408
25907W        W42754  19.591  18.881   4.729  0.0215 -0.2351 -0.1305
25908W        W42755  15.891  11.408  13.350 -0.0502 -0.1133  0.0602
25909W        W42756  12.977  13.688  12.658 -0.1232 -0.1595 -0.0593
25910W        W42757   3.710   4.108  12.086  0.2494  0.2519 -0.1649
25911W        W42758   4.096   7.862   1.739 -0.2759  0.1999  0.0501
25912W        W42759   3.076   3.415  13.492  0.3107  0.1627  0.0745
25913W        W42760   0.850  10.256   1.195  0.2140  0.0010  0.0144
25914W        W42761  17.880  10.923   3.588  0.3676  0.0494 -0.0371
25915W        W42762   9.237  17.199   4.014 -0.1961  0.3356 -0.0470
25916W        W42763  18.859  15.688   0.985  0.2594 -0.2568  0.0078
25917W        W42764  19.903   5.604  13.329  0.1172  0.0251 -0.1583
25918W        W42765  10.711  16.661   1.547 -0.0920 -0.0872  0.1238
25919W        W42766  19.446  12.604   3.010 -0.0727  0.4114  0.1945
25920W        W42767  16.851   5.140  10.010 -0.3284  0.2398  0.3785
25921W        W42768  19.836  12.343  12.780  0.4329 -0.0955  0.3007
25922W        W42769   2.718   4.893   1.333  0.0238 -0.0149 -0.1547
25923W        W42770   4.726  13.023   4.020 -0.3591  0.1333 -0.0778
25924W        W42771  11.389  18.746   4.244  0.2701  0.0748 -0.1183
25925W        W42772   2.148   5.942   9.892 -0.4777  0.0407 -0.1014
25926W        W42773  15.578   8.811   3.322 -0.3199 -0.2055 -0.0641
25927W        W42774   0.322  18.626   1.642  0.2662  0.3395 -0.2268
25928W        W42775  11.996  14.116   4.607  0.0226  0.4877  0.2080
25929W        W42776  18.325  13.561  13.620  0.1258  0.0648 -0.0125
25930W        W42777   1.195  11.137  10.420 -0.2169 -0.0620 -0.0653
25931W        W42778   1.295  10.353  13.162  0.0378 -0.0021  0.0007
25932W        W42779   2.418   0.710  13.901  0.2945  0.0043 -0.1756
25933W        W42780   9.674  14.175  11.053  0.0820  0.2352 -0.1959
25934W        W42781   8.597   4.109  10.229 -0.0716 -0.4272 -0.1974
25935W        W42782   1.286  18.045   1.884 -0.0557 -0.4116 -0.0292
25936W        W42783   9.446   0.563   3.259 -0.1728  0.1593  0.0167
25937W        W42784   1.293  14.289  14.113  0.4048 -0.0375  0.1294
25938W        W42785  18.732  16.371  11.422 -0.1248 -0.0395 -0.0129
25939W        W42786  11.746  12.713   9.222  0.0079  0.2249  0.2753
25940W        W42787   1.685   8.824   1.773 -0.0977 -0.3832  0.3318
25941W        W42788  14.938   6.233  13.550 -0.2402 -0.5903 -0.0579
25942W        W42789  10.283   0.176   4.796  0.0122 -0.2281 -0.0612
25943W        W42790  10.500   8.661   0.935 -0.1062 -0.1467  0.0874
25944W        W42791  18.354  19.379   2.630  0.2799 -0.2309 -0.2550
25945W        W42792  14.476  10.765  14.281  0.0456  0.0041 -0.3575
25946W        W42793  11.087  10.335   2.313  0.0673  0.2084 -0.2004
25947W        W42794   8.236   4.416   0.486  0.1923  0.0998  0.0080
25948W        W42795  12.316  19.509  14.308 -0.0688 -0.3611  0.1196
25949W        W42796   9.791  19.928  10.105 -0.0949  0.0752  0.1575
25950W        W42797   9.064   1.841   9.985  0.1567 -0.1294  0.1856
25951W        W42798  16.292  13.365  11.242  0.0399 -0.3597 -0.3059
25952W        W42799  10.080   3.502  10.443  0.2418  0.1870  0.0062
25953W        W42800  16.621   9.978   2.617 -0.0628  0.0572 -0.0748
25954W        W42801  13.552  10.944   0.474 -0.4426  0.2130 -0.0252
25955W        W42802   8.208   9.192  11.643 -0.0809  0.2264 -0.1896
25956W        W42803   9.592  13.081   4.696  0.1102 -0.0274  0.0741
25957W        W42804   9.820  17.074   1.584  0.1385  0.0530  0.2380
25958W        W42805  11.569   8.217   0.663 -0.0873 -0.2269  0.1536
25959W        W42806  16.878  11.567   1.372 -0.0733  0.1111 -0.1549
25960W        W42807   7.847  17.094   1.621  0.2651 -0.0865  0.1830
25961W        W42808   8.440   8.027   4.454  0.2158  0.1152  0.0174
25962W        W42809   6.950  11.883   4.264 -0.1253 -0.0018 -0.1614
25963W        W42810   7.786  11.292   2.011  0.4041 -0.4156 -0.2382
25964W        W42811  12.457  15.081   3.202 -0.1027 -0.3607 -0.3584
25965W        W42812   9.497   8.945  10.156 -0.1679  0.0934 -0.6305
25966W        W42813   5.484   3.574   0.507 -0.2265 -0.0676  0.0062
25967W        W42814   6.565   5.386   1.782  0.0675 -0.2379 -0.0435
25968W        W42815   8.516  15.559   3.091 -0.2905  0.3190  0.3988
25969W        W42816   7.005  12.579   4.926  0.3657  0.6235 -0.0611
25970W        W42817   3.294   4.549   3.093 -0.1055 -0.2485 -0.1693
25971W        W42818  11.283   6.254   1.504  0.2422  0.2238 -0.0367
25972W        W42819  11.165   3.076   3.061 -0.1578 -0.3791 -0.4240
25973W        W42820  11.809   9.187   2.546 -0.1651 -0.5878 -0.0576
25974W        W42821  12.413  12.723  13.156 -0.3747  0.0031 -0.0344
25975W        W42822  16.892   6.325   3.276  0.4846  0.2237  0.0363
25976W        W42823  18.502  11.819   0.747 -0.3338 -0.0189  0.1430
25977W        W42824   2.687   5.378  12.221 -0.1412  0.1416 -0.0591
25978W        W42825  10.531  13.208   4.559 -0.0378 -0.2452 -0.0529
25979W        W42826   6.247  16.761  10.335 -0.3764 -0.1098  0.1411
25980W        W42827  16.417   2.874   5.135  0.1757 -0.0841 -0.2307
25981W        W42828   9.842  12.357  13.911  0.1712 -0.1259 -0.3171
25982W        W42829  14.261   7.489   3.202 -0.1706  0.4124 -0.1111
25983W        W42830   6.676  16.223   3.577  0.6818 -0.2438 -0.3382
25984W        W42831  10.945  15.561   1.951  0.3165  0.2532  0.2209
25985W        W42832  10.518  10.818   0.788 -0.1727 -0.2108 -0.2325
25986W        W42833   8.646   5.292  14.266 -0.0065 -0.0501 -0.0547
25987W        W42834  12.919   4.468   1.925 -0.4029 -0.1436  0.0442
25988W        W42835  13.366   3.033   1.373  0.1912  0.0138 -0.1582
25989W        W42836   9.474  10.909  11.758 -0.1218 -0.1464  0.0306
25990W        W42837  15.125   7.655  14.076 -0.2650 -0.1977  0.4477
25991W        W42838   6.431  12.523  11.411  0.1635  0.1469  0.0045
25992W        W42839   0.573   4.880   2.863 -0.1154 -0.1981  0.0610
25993W        W42840   9.079  15.367   1.117 -0.1411 -0.0841 -0.1319
25994W        W42841  16.100   4.787   2.930 -0.0613  0.1643  0.0646
25995W        W42842   4.764   0.767  13.576 -0.2678  0.1097 -0.1780
25996W        W42843   3.257   7.072   0.509  0.2352 -0.2519  0.3524
25997W        W42844   5.361   0.261  11.139 -0.0153  0.0151  0.0939
25998W        W42845   8.786   2.958   4.262 -0.0379  0.1782  0.0753
25999W        W42846   0.812   3.960  12.982 -0.0491  0.1119 -0.0566
26000W        W42847  16.392  10.207  11.553  0.2704 -0.0553  0.0818
26001W        W42848  16.274  15.535   2.065 -0.4633 -0.1401  0.0734
26002W        W42849  16.445   5.825   2.731 -0.0460  0.0470  0.0374
26003W        W42850   7.465  13.561  12.361 -0.0180  0.1920  0.2887
26004W        W42851  11.552   3.828   3.991 -0.0569 -0.0848  0.1167
26005W        W42852   8.636  14.038  11.179  0.0149 -0.1012 -0.0319
26006W        W42853  15.403  14.495   1.932 -0.0682 -0.1286 -0.0512
26007W        W42854   3.630   9.911  10.397  0.2419 -0.1256 -0.0152
26008W        W42855  13.127  11.538  13.431  0.1430  0.1819 -0.0562
26009W        W42856   0.323   0.016   3.300 -0.5023  0.3920  0.1934
26010W        W42857  19.158  11.391  12.019  0.3331  0.4123 -0.1358
26011W        W42858  10.904   4.469  12.847 -0.0826  0.1683 -0.0690
26012W        W42859   1.652   9.939  11.098 -0.0036  0.0901 -0.3452
26013W        W42860  17.637  17.890   4.402  0.1214  0.0405 -0.2518
26014W        W42861   0.769   8.214   3.908  0.0187 -0.0739  0.1623
26015W        W42862  13.393  13.081  13.217 -0.0863  0.0742  0.0907
26016W        W42863  14.063   3.027   1.971  0.4128 -0.1088  0.2105
26017W        W42864   5.774   9.229  10.481  0.0356 -0.3139  0.0141
26018W        W42865   4.396  17.902   2.347 -0.3134 -0.1961  0.0708
26019W        W42866   8.860  10.900   9.791 -0.0827 -0.0946  0.1346
26020W        W42867  11.999  11.312  11.580 -0.1077  0.0476  0.4098
26021W        W42868  11.274  11.030   2.630  0.0113 -0.0676 -0.2782
26022W        W42869  18.354  14.759   5.091 -0.1045 -0.1734 -0.2237
26023W        W42870   7.977  14.738   9.958  0.2173 -0.1357  0.1893
26024W        W42871   8.171  13.581   1.408 -0.2449 -0.3435  0.0179
26025W        W42872  18.100   0.447   3.832  0.3426 -0.0133  0.2787
26026W        W42873  15.636  17.165  10.611  0.2047  0.0822 -0.2140
26027W        W42874   6.778   6.666   0.371 -0.0048 -0.0230  0.1131
26028W        W42875  11.842   6.753   3.385 -0.0385 -0.3592 -0.0042
26029W        W42876   7.185   2.673   2.419  0.0707 -0.2774  0.0163
26030W        W42877   9.199  13.042  12.315 -0.2442 -0.0082 -0.0961
26031W        W42878  14.086  14.974  11.966 -0.2467 -0.0752 -0.2613
26032W        W42879  18.141   6.043  14.233  0.0720 -0.0635 -0.2940
26033W        W42880   6.953   9.784   3.627  0.1243 -0.0253  0.0515
26034W        W42881   1.887   3.555  12.800  0.0393  0.1205 -0.0170
26035W        W42882  17.880   1.591  11.717  0.0539 -0.2458 -0.0278
26036W        W42883   6.630  18.614  11.619 -0.0011 -0.2089 -0.1707
26037W        W42884   0.113   1.817   5.276 -0.2819 -0.2134 -0.0850
26038W        W42885  15.862  13.113  13.524  0.3266  0.1105 -0.3011
26039W        W42886   7.411  10.201   1.677  0.2111 -0.0351 -0.0690
26040W        W42887  16.412   3.660  10.547 -0.1314  0.0946  0.2689
26041W        W42888   6.599  16.940   3.028  0.0364 -0.1983 -0.0961
26042W        W42889   7.792  16.232   2.017  0.1490  0.0804  0.0313
26043W        W42890   0.033   0.034  12.502 -0.2307  0.0089 -0.0535
26044W        W42891   3.915  17.118   0.050 -0.0076  0.2576 -0.0868
26045W        W42892  19.068   2.430  12.493 -0.2050  0.4363  0.1464
26046W        W42893   9.779   8.406  12.598 -0.2589 -0.0885 -0.2788
26047W        W42894   6.639  14.392   2.496  0.1962 -0.0425 -0.1228
26048W        W42895  13.989  13.987   0.496 -0.0172  0.0778 -0.1408
26049W        W42896   9.774  11.618   4.087 -0.1428  0.1074  0.1419
26050W        W42897   2.231   7.546  12.701 -0.0485  0.2341  0.0086
26051W        W42898   2.155  18.352  11.911 -0.3102 -0.2194 -0.1370
26052W        W42899   9.609   1.733  13.735  0.0465  0.3670  0.0324
26053W        W42900   4.848  13.398   3.730  0.5801 -0.2647  0.0997
26054W        W42901   6.563   3.742  12.525  0.1625  0.0256 -0.0271
26055W        W42902  18.400   3.195  11.725 -0.0391  0.1726 -0.1961
26056W        W42903   1.789  19.336   3.744  0.2870  0.0104  0.3510
26057W        W42904   8.303  12.805  12.768 -0.1096  0.1264 -0.2263
26058W        W42905   2.182   3.541  11.302  0.1313  0.1496  0.0260
26059W        W42906   8.153  18.550   3.013  0.1480 -0.0790  0.0640
26060W        W42907   0.807  19.815  12.384 -0.3645 -0.0782 -0.2814
26061W        W42908  11.019   6.903   2.888 -0.0140  0.0841  0.2283
26062W        W42909  13.153  15.654  11.227 -0.3178  0.1559  0.4685
26063W        W42910   8.160  15.509  14.060  0.0719  0.0274 -0.1709
26064W        W42911  16.009  12.913  12.368 -0.3292  0.0189  0.0288
26065W        W42912  11.443  18.447   0.062  0.0535  0.1210 -0.0731
26066W        W42913   7.655  18.711  12.453  0.1261  0.0246  0.4350
26067W        W42914  19.484  19.856  11.442 -0.0239 -0.1275  0.2169
26068W        W42915   8.864  10.941  13.133  0.2028 -0.3725 -0.0007
26069W        W42916  12.297   8.368   2.328 -0.1174 -0.5559 -0.1389
26070W        W42917  12.968   9.844   2.715  0.0140  0.1418  0.1442
26071W        W42918  14.541   8.059   3.576  0.2159 -0.0157 -0.1019
26072W        W42919  13.257  13.623  11.843 -0.0572  0.1548 -0.0811
26073W        W42920  14.984   0.144  10.680  0.1321  0.0770  0.2879
26074W        W42921   5.023  19.423  12.742 -0.2839  0.0900 -0.1808
26075W        W42922   0.785  18.558   1.836  0.1577 -0.0824  0.0433
26076W        W42923  18.904   2.910  12.560  0.1951 -0.1675  0.0857
26077W        W42924  10.221  13.266  13.688 -0.7685 -0.2291 -0.2247
26078W        W42925  10.837   7.061   2.016 -0.0406  0.3215  0.0961
26079W        W42926  14.439  16.963   3.973  0.3694  0.4539 -0.0726
26080W        W42927   5.848   2.230  12.433  0.0640  0.0469  0.3858
26081W        W42928   9.935   8.138  11.761 -0.1578 -0.2059  0.0225
26082W        W42929  10.871  16.590   4.387  0.1538  0.0729  0.1526
26083W        W42930  10.670  11.696   4.470 -0.2757  0.3500 -0.4220
26084W        W42931  15.177  14.910   9.314 -0.3160  0.0739 -0.3297
26085W        W42932  14.277  12.860  11.266 -0.2652  0.0073 -0.1066
26086W        W42933   6.800  10.986   5.137 -0.0843  0.0717 -0.5647
26087W        W42934  16.500   8.339   3.204 -0.0073  0.1035 -0.1266
26088W        W42935  15.352   3.416   9.647  0.4071 -0.2079 -0.2507
26089W        W42936   1.673  17.639   4.520  0.0227  0.2979 -0.0999
26090W        W42937   1.979  17.685   0.289 -0.1388 -0.4982  0.1302
26091W        W42938  19.667  14.268   2.707 -0.3255 -0.0118  0.1958
26092W        W42939   3.712  11.197  10.260  0.1008 -0.0883  0.1803
26093W        W42940  15.662   0.156   3.295  0.5494 -0.1094  0.0919
26094W        W42941   4.132  12.784   5.223 -0.1644  0.4505  0.0815
26095W        W42942   2.301  12.959  12.257 -0.0862 -0.2210 -0.4977
26096W        W42943   3.762   2.756   2.103 -0.1947  0.0900 -0.4263
26097W        W42944  16.230  15.486   2.674  0.4372 -0.0327  0.2425
26098W        W42945   1.549  14.605  13.800  0.0562  0.1125  0.0016
26099W        W42946  13.964  10.014   4.353 -0.0739  0.0545 -0.1553
26100W        W42947  16.387  16.720   3.821 -0.1039 -0.1864  0.1619
26101W        W42948  13.889   6.540  10.335 -0.0933 -0.1130  0.1224
26102W        W42949   0.408   3.712  13.249 -0.3170  0.0721  0.0486
26103W        W42950   8.893   9.918  13.621  0.3101  0.5436 -0.1108
26104W        W42951   3.163   8.009  12.449  0.1967 -0.0344 -0.0827
26105W        W42952  13.739  19.279   2.258 -0.3058 -0.3078 -0.1155
26106W        W42953   9.859  18.654  13.995 -0.2086 -0.1361 -0.4864
26107W        W42954   3.635   5.820  10.529 -0.0872  0.1732  0.3406
26108W        W42955  18.389   7.738  12.778  0.1225 -0.1078 -0.3596
26109W        W42956  18.210   0.006  11.757 -0.1047  0.4941 -0.0346
26110W        W42957  11.413   1.762  10.814  0.0674  0.0083 -0.1136
26111W        W42958   0.709   8.121  13.628  0.2405  0.1179 -0.0397
26112W        W42959  17.489  17.237   2.147  0.2765 -0.1021 -0.0088
26113W        W42960   2.520   3.371   2.132 -0.1234 -0.1075 -0.1631
26114W        W42961  13.771  18.931   0.038  0.3701  0.3573  0.0117
26115W        W42962  14.761   7.662   1.748 -0.3338  0.3263 -0.0158
26116W        W42963   6.966   8.216  12.062 -0.0134  0.0494  0.0034
26117W        W42964  18.333   7.548   2.251 -0.0550 -0.2063 -0.0738
26118W        W42965  17.082  11.436   0.917  0.0830  0.0186 -0.3953
26119W        W42966   2.953   1.775   0.815  0.0448 -0.0410  0.2636
26120W        W42967   7.991  10.183  11.286  0.2466  0.1379  0.1550
26121W        W42968  18.695   5.820   1.473 -0.3206  0.1838 -0.3006
26122W        W42969  12.863  18.284  11.934  0.0438  0.0060 -0.0969
26123W        W42970  12.154  14.984   1.172 -0.0162  0.6292 -0.1606
26124W        W42971  10.728  17.321  13.215 -0.1145 -0.1219  0.2757
26125W        W42972  12.484   9.935  11.292  0.0948  0.0651  0.1379
26126W        W42973   3.024  14.688   2.340 -0.0367 -0.1410  0.5405
26127W        W42974  11.209   1.223  10.953  0.2426 -0.2677  0.0560
26128W        W42975  16.000  17.001   0.296 -0.0686 -0.2205 -0.0156
26129W        W42976   0.337   1.556   2.763  0.1407 -0.0329 -0.5189
26130W        W42977  12.880  19.605  10.323 -0.0854  0.0604  0.1031
26131W        W42978  19.179  19.530   5.140  0.2200 -0.2130  0.3195
26132W        W42979  19.011   2.078   9.993  0.1104  0.0837 -0.0367
26133W        W42980   3.287  15.933   1.372  0.0688 -0.0602  0.2263
26134W        W42981  15.095  11.080   1.135  0.5007 -0.1840 -0.1726
26135W        W42982   6.343   2.438  12.351  0.1345  0.3299  0.2981
26136W        W42983   3.610   6.004   3.555 -0.1452  0.0193  0.3534
26137W        W42984  13.764  19.349   2.788  0.1135  0.0212  0.0704
26138W        W42985  18.762   3.392  13.655  0.1173 -0.0317 -0.1534
26139W        W42986   1.744   6.183   9.788  0.2722 -0.3424  0.0267
26140W        W42987  18.315  13.530   2.346  0.0272  0.0216 -0.0136
26141W        W42988  19.859   7.900  13.031 -0.0331 -0.1365  0.2367
26142W        W42989  14.353   6.388  11.600  0.1868  0.1215 -0.2119
26143W        W42990  14.907   5.773  12.043 -0.2683  0.1133  0.3462
26144W        W42991   7.730  19.765  10.786  0.3419  0.2204 -0.1681
26145W        W42992   8.311   4.048   5.386  0.2023  0.1566 -0.0574
26146W        W42993   0.507   5.283   1.715 -0.1666 -0.0105  0.0451
26147W        W42994  13.655   7.520   0.054  0.0726  0.4242 -0.2491
26148W        W42995  18.060   6.531   0.774  0.1742 -0.2966  0.1668
26149W        W42996  19.791  13.249   3.445  0.3386  0.1424  0.2259
26150W        W42997   7.686   9.929  10.786 -0.0304 -0.2987  0.2145
26151W        W42998  11.956  17.733   9.725 -0.2565  0.0755 -0.1314
26152W        W42999  18.520  17.927  13.211  0.1731  0.0590  0.0034
26153W        W43000  13.803  15.603   3.147 -0.2272 -0.2495 -0.0798
26154W        W43001  19.296  10.415  13.198 -0.0256 -0.0812  0.1681
26155W        W43002  15.612  17.855   3.356  0.1013 -0.0176 -0.2011
26156W        W43003  10.164  17.323  10.798 -0.3709  0.1023 -0.2032
26157W        W43004  11.461  18.932  12.280  0.3929  0.0873  0.0054
26158W        W43005   0.318   7.643   3.794  0.2806  0.1661 -0.1582
26159W        W43006   3.992   1.040   4.276  0.1561 -0.0158  0.0930
26160W        W43007   1.902  12.700  12.104  0.1392  0.2025 -0.2884
26161W        W43008  14.425   3.331   3.626 -0.1317  0.2334 -0.0547
26162W        W43009  19.659   6.208   4.594  0.0050 -0.1850  0.0855
26163W        W43010   2.698  17.505   1.600  0.0464  0.0693  0.0157
26164W        W43011  11.993   0.771   0.521 -0.0635 -0.0970  0.0243
26165W        W43012   4.543   4.167   3.456  0.0848 -0.2392 -0.0936
26166W        W43013  17.850  11.032  13.827  0.1414 -0.0043  0.1082
26167W        W43014   0.624  11.113   3.141  0.2231 -0.1456  0.0854
26168W        W43015   2.192   7.558   3.376  0.2181  0.3833  0.0770
26169W        W43016  17.599  15.403   1.432 -0.0889  0.1151 -0.2087
26170W        W43017   7.480   5.501  12.501 -0.0460  0.0225 -0.0508
26171W        W43018  16.517  17.914  13.852  0.1380 -0.0280 -0.0162
26172W        W43019   8.326  13.065   4.398  0.1138  0.1439  0.0220
26173W        W43020   5.481   9.532  12.017 -0.1628 -0.0240 -0.0743
26174W        W43021  17.758  18.597   0.017 -0.0061  0.2948  0.3558
26175W        W43022   6.616   9.116  11.795 -0.1896  0.0723 -0.2478
26176W        W43023   5.980   9.388  13.213  0.5499  0.0256  0.1041
26177W        W43024  17.518  12.115  11.902 -0.0053 -0.3636  0.1052
26178W        W43025  10.988   9.178   3.705 -0.0130  0.2445 -0.1091
26179W        W43026  19.145  14.678  13.382  0.0376  0.3102 -0.0225
26180W        W43027  11.703   0.370   4.548  0.4306 -0.0417  0.1067
26181W        W43028   1.591  17.910   4.070  0.0043  0.2239 -0.0808
26182W        W43029   2.114   1.430   2.477  0.2700 -0.1895 -0.4091
26183W        W43030  11.511   8.882  10.967 -0.1771  0.0890 -0.4110
26184W        W43031  13.092   1.574   9.233  0.0069 -0.3547 -0.1335
26185W        W43032  19.710  14.101   9.805  0.0013  0.0717 -0.4626
26186W        W43033  12.577  14.620  12.487 -0.0040  0.0945 -0.1175
26187W        W43034  14.414   3.236   0.301  0.2949  0.1266 -0.1512
26188W        W43035  10.908  19.695  12.714  0.0245  0.1272  0.0317
26189W        W43036   8.971   2.419   2.484 -0.3373 -0.3574 -0.3051
26190W        W43037  17.902   7.031   0.863 -0.3187  0.2507 -0.2056
26191W        W43038   1.774   9.241  10.298  0.0965 -0.0525  0.0444
26192W        W43039  10.326   8.244   0.405  0.1711 -0.0321  0.3109
26193W        W43040  11.976  11.119  12.276  0.2691 -0.0393 -0.0717
26194W        W43041   3.860  14.961   4.057 -0.2672  0.2959  0.1411
26195W        W43042   6.846  17.203   2.513  0.1553  0.0508  0.1705
26196W        W43043  14.896  15.464  11.663  0.0241 -0.1912  0.1681
26197W        W43044  14.288  14.900  10.176 -0.1538  0.1708  0.1098
26198W        W43045   0.653  13.615   2.886  0.1912 -0.4152  0.1791
26199W        W43046   6.734   8.249  11.342 -0.0949 -0.0145 -0.1693
26200W        W43047  10.788  12.127   2.457  0.0859  0.0405  0.1223
26201W        W43048   4.022   5.394   4.868  0.0947  0.1931 -0.0527
26202W        W43049   0.718  10.387  11.345 -0.4424 -0.1930  0.0294
26203W        W43050  13.956   3.920   0.473  0.1281 -0.0939  0.0648
26204W        W43051   6.485  11.248  10.666 -0.0864  0.0399  0.0741
26205W        W43052  16.572  11.420  10.981  0.1745  0.2201 -0.2456
26206W        W43053   0.562   6.550  14.240 -0.0332 -0.2924 -0.0751
26207W        W43054   2.670  14.738  13.431 -0.0864  0.0157  0.2336
26208W        W43055   6.164   0.706   9.831 -0.1298  0.1770 -0.2304
26209W        W43056   1.402  11.835   3.757  0.4334 -0.3217 -0.2054
26210W        W43057   7.926   1.736  10.922 -0.1463  0.1928  0.3416
26211W        W43058  17.610   1.737   5.459 -0.2323  0.0349  0.0044
26212W        W43059   9.742   0.643  11.459 -0.1285  0.1244  0.1356
26213W        W43060  18.994  10.095  11.808 -0.1126  0.0400 -0.1359
26214W        W43061  10.288  19.102   4.842 -0.0087  0.1735  0.0268
26215W        W43062  15.819   7.940   0.342  0.2164 -0.1571 -0.0219
26216W        W43063  12.887   8.033   3.163 -0.3016  0.1094 -0.0115
26217W        W43064  10.012  11.147   3.940 -0.0363  0.0231 -0.0287
26218W        W43065  10.003  15.018  11.179  0.0536  0.2943  0.1358
26219W        W43066  11.786   6.226  10.449 -0.0910  0.3188  0.0024
26220W        W43067  17.683   2.083   2.292 -0.1775 -0.0292 -0.1369
26221W        W43068   5.560  12.404  13.818 -0.0850 -0.3438 -0.0297
26222W        W43069  15.061   2.796  11.002 -0.3049  0.3341 -0.1146
26223W        W43070  15.506  15.532   4.843  0.2127 -0.0735 -0.1630
26224W        W43071  14.185  12.000  14.203  0.0989 -0.0807  0.2781
26225W        W43072  17.025  10.273  10.338  0.0241 -0.1338 -0.0771
26226W        W43073   4.746  15.986  11.504  0.2604  0.2041 -0.2840
26227W        W43074  14.227   9.173   1.248  0.0555  0.1282  0.1130
26228W        W43075  10.293  12.045   2.332 -0.3194  0.2478 -0.3433
26229W        W43076   4.550   6.570   0.190 -0.0883 -0.2077 -0.0061
26230W        W43077  13.482   6.935   0.746 -0.0396 -0.1953  0.0303
26231W        W43078   0.689   0.375   3.208  0.1920 -0.2793 -0.0226
26232W        W43079  11.750  13.100  10.243 -0.0323 -0.2441 -0.2080
26233W        W43080   4.746   1.729   2.975  0.1001 -0.0491  0.0652
26234W        W43081   2.644  14.889  10.655 -0.0860  0.2559  0.0912
26235W        W43082   5.511  11.224  13.150 -0.0483 -0.2411 -0.3218
26236W        W43083  10.067  13.458   4.616 -0.0093 -0.1988  0.1803
26237W        W43084   2.188   5.976  11.833 -0.3587 -0.1956 -0.2056
26238W        W43085   8.032  17.996   2.394 -0.3600 -0.2244  0.2043
26239W        W43086  12.762  10.798   1.306 -0.2319  0.1757 -0.1155
26240W        W43087   6.086  14.615  12.286  0.3363 -0.2299  0.4351
26241W        W43088  11.346  16.514   0.343  0.2689  0.4104 -0.2010
26242W        W43089  18.278  10.904   3.269  0.1163  0.1225  0.0589
26243W        W43090  10.730   7.565   3.748  0.0994  0.2004  0.1705
26244W        W43091  12.326   3.735   1.197  0.0196  0.0364  0.1650
26245W        W43092  14.298  11.044   1.341  0.2656 -0.0837 -0.0705
26246W        W43093  18.374   2.156  14.265  0.0221  0.1589  0.1471
26247W        W43094  18.704  13.866   4.137  0.1628 -0.1397 -0.0041
26248W        W43095   3.082   5.042  12.058 -0.1146 -0.2721  0.0363
26249W        W43096   2.479   1.903  10.176 -0.2489 -0.0155 -0.1994
26250W        W43097   3.647  11.635  12.628  0.1452 -0.0869  0.0098
26251W        W43098   3.182   9.129  12.257 -0.2633  0.2892  0.0865
26252W        W43099  10.978   5.473  12.683 -0.0237 -0.0121 -0.0023
26253W        W43100   3.215  13.223   4.049 -0.1057 -0.0597 -0.2502
26254W        W43101   2.996  16.710  10.907  0.1833  0.2979  0.0130
26255W        W43102   5.306  13.131  11.567  0.0874 -0.0604 -0.1445
26256W        W43103   7.703   7.769  14.005 -0.1263  0.1410  0.3589
26257W        W43104   6.525  13.703   1.068 -0.2804  0.1305  0.0021
26258W        W43105   4.784   2.022   0.633  0.1522  0.0979 -0.0726
26259W        W43106  15.911  11.359   0.675  0.4050  0.1352  0.0156
26260W        W43107   5.059  14.171  14.177 -0.3504 -0.3181  0.1123
26261W        W43108  12.057   7.330  11.169 -0.2137  0.2156  0.4082
26262W        W43109  10.457   6.189  10.257 -0.0192 -0.2873  0.2770
26263W        W43110  16.751   8.840  13.435  0.2170  0.1841 -0.1860
26264W        W43111   2.926   8.586   0.799 -0.0847 -0.1364 -0.1954
26265W        W43112   6.252   2.535  10.271  0.4087 -0.2954 -0.1070
26266W        W43113  16.886  12.910   2.741 -0.3798  0.1155  0.1788
26267W        W43114   0.097  18.527   3.314 -0.0782 -0.0251  0.0372
26268W        W43115  18.723   7.577   1.029 -0.4138 -0.1556 -0.4286
26269W        W43116  14.281   8.342  13.523  0.0694 -0.1576 -0.2190
26270W        W43117  17.994  15.801  12.356 -0.2169  0.3872  0.1320
26271W        W43118   6.364  15.943   2.198 -0.1795 -0.1645 -0.1507
26272W        W43119   3.533   1.108  13.213  0.2975 -0.0376 -0.1693
26273W        W43120   6.796  11.118  11.699 -0.0109  0.0870  0.1961
26274W        W43121   1.506   8.361   5.009  0.0207  0.2756 -0.1416
26275W        W43122   6.441   2.723  14.180  0.2416  0.2424  0.2313
26276W        W43123   6.517  11.655   1.616  0.1924 -0.0773 -0.0340
26277W        W43124  15.438   6.740  12.366 -0.2343 -0.0044 -0.2133
26278W        W43125   1.820   1.767  13.501  0.1118  0.0878  0.0301
26279W        W43126  11.367   4.408  10.677  0.0338  0.1218 -0.2247
26280W        W43127  13.223   6.742  14.130  0.1071 -0.0299 -0.2977
26281W        W43128  15.480  11.011   0.216 -0.3299 -0.0438 -0.2039
26282W        W43129   9.619   4.591  10.448 -0.1671  0.1701  0.1167
26283W        W43130   7.967   3.305   1.234  0.0763 -0.1936 -0.0291
26284W        W43131   6.714  13.678   4.638 -0.0967  0.1727 -0.0917
26285W        W43132   6.540   6.124  13.309  0.0684 -0.0891 -0.2560
26286W        W43133   7.266  16.155  12.227 -0.1721  0.3836 -0.2250
26287W        W43134  16.078   5.513  12.683  0.5334  0.0440 -0.2359
26288W        W43135   7.556  15.993   2.390  0.2080  0.1405  0.2027
26289W        W43136  16.770   0.736  13.576  0.0574 -0.1311 -0.0390
26290W        W43137  14.201   1.456  10.849 -0.1186 -0.3355 -0.1002
26291W        W43138   9.106   8.304   2.501 -0.1890  0.0565  0.0994
26292W        W43139   9.756  18.932  13.229  0.1348  0.3835  0.3744
26293W        W43140  18.525   7.556  10.001 -0.0982 -0.1835 -0.1344
26294W        W43141  17.312  18.102   1.690  0.2312 -0.1979  0.3526
26295W        W43142  18.677  13.799  13.315  0.0583 -0.1075 -0.2162
26296W        W43143   0.460   2.961  13.556 -0.3004  0.1661 -0.4448
26297W        W43144  15.119  14.068  13.040 -0.0181 -0.0042  0.0114
26298W        W43145   4.440  17.357   9.411  0.5190 -0.3846  0.0359
26299W        W43146   0.703   3.969  13.600 -0.1627 -0.4764 -0.0316
26300W        W43147  16.438  12.410   1.849 -0.3302 -0.0614 -0.3011
26301W        W43148  15.563  18.713   0.206 -0.0318  0.3820 -0.0940
26302W        W43149   8.705   6.652  12.224  0.1115  0.0555  0.2797
26303W        W43150   4.454  11.375   0.857 -0.1746 -0.1645 -0.0543
26304W        W43151   8.054  10.217  12.497  0.0890 -0.2031  0.0669
26305W        W43152  14.772  13.926   0.897 -0.1723 -0.0355 -0.0211
26306W        W43153   3.174  12.315  13.657 -0.1872 -0.0510  0.1883
26307W        W43154   1.199   8.244  13.799  0.0874 -0.1556 -0.0556
26308W        W43155  13.919  16.246   1.603 -0.2211 -0.1068  0.1788
26309W        W43156   8.399  10.253   1.553 -0.0130 -0.1042  0.2804
26310W        W43157   1.631   4.723   0.670 -0.3362 -0.2345  0.2159
26311W        W43158  14.300  10.049  10.154  0.2475  0.0020  0.0578
26312W        W43159   8.024   3.201  12.547 -0.0158 -0.1078 -0.0655
26313W        W43160  16.538   1.973   1.510  0.2803  0.0839  0.0692
26314W        W43161  18.024   6.297   4.047 -0.3044  0.7000 -0.0160
26315W        W43162   3.255   0.059   0.236  0.0034 -0.0888  0.0087
26316W        W43163  14.268   5.950   5.086 -0.1943  0.1069  0.1984
26317W        W43164  15.742  14.638  11.949 -0.0579 -0.0755 -0.1084
26318W        W43165   2.941   6.725   1.026  0.0411 -0.2032  0.1341
26319W        W43166  14.271   9.468  12.894  0.1080  0.0813 -0.0790
26320W        W43167   4.858   6.965  13.382 -0.0355 -0.1116 -0.0602
26321W        W43168  17.160  18.978  13.628 -0.2225  0.1587 -0.4328
26322W        W43169  10.657   8.024  12.769  0.2313  0.0265  0.0209
26323W        W43170  19.662   8.653   1.630  0.0202 -0.1138 -0.2803
26324W        W43171   4.365  15.223   3.341 -0.0960 -0.3077 -0.2127
26325W        W43172   7.426  16.663   9.942  0.1010  0.2394  0.1160
26326W        W43173   8.000  14.039   1.590  0.1134  0.1805  0.1274
26327W        W43174  12.584  19.266   3.256 -0.0330  0.2205 -0.0851
26328W        W43175  12.298   2.201   3.354 -0.2506  0.1038  0.1478
26329W        W43176   6.940  12.518  11.175 -0.2000 -0.0891 -0.1383
26330W        W43177   6.981   4.361  10.131 -0.0711  0.1444  0.2564
26331W        W43178   3.158  13.338   2.114  0.3932  0.2494  0.0700
26332W        W43179   5.038  15.609  12.570 -0.0683  0.1278  0.1362
26333W        W43180   3.314  18.603   4.989 -0.0681 -0.3493 -0.4305
26334W        W43181  19.371   8.401  13.192 -0.0208  0.3291  0.1620
26335W        W43182   2.373   0.379   0.787  0.4753  0.0812  0.2455
26336W        W43183   0.556  12.969   3.196  0.0590  0.0630  0.2961
26337W        W43184   8.649   4.243   2.960 -0.1090 -0.2549  0.3309
26338W        W43185  16.317   6.757   2.541 -0.2208  0.1767 -0.1940
26339W        W43186   1.240   7.782   3.373 -0.0293  0.0528  0.1367
26340W        W43187   4.248  12.572  12.805 -0.2253  0.4345  0.0044
26341W        W43188   0.642   2.897   3.964  0.2096 -0.4194 -0.4848
26342W        W43189  18.630  19.179  12.874 -0.4176 -0.4446 -0.0988
26343W        W43190  11.553   1.436  13.634  0.1295  0.2632  0.1083
26344W        W43191  18.218   9.064   2.515 -0.0833 -0.0719  0.1140
26345W        W43192  14.157  11.418   3.408  0.1759 -0.0677  0.4612
26346W        W43193  19.681  11.782  10.562  0.5650  0.0040 -0.2472
26347W        W43194   5.561  18.449   0.239 -0.2662  0.1644 -0.0642
26348W        W43195  12.702   7.847   8.993  0.4195  0.3489  0.1159
26349W        W43196  17.300   6.854   3.190  0.3262  0.1941  0.2981
26350W        W43197  17.287   5.645   2.767  0.0458  0.0487 -0.0442
26351W        W43198  11.624   3.762  10.072  0.2058 -0.0287  0.4285
26352W        W43199  10.672   0.330  11.048  0.2602 -0.2691  0.3482
26353W        W43200  16.217  14.331  13.904  0.0784 -0.1777  0.1097
26354W        W43201   1.712   3.370  12.298  0.0317 -0.2922  0.0248
26355W        W43202  15.467  19.364  11.355  0.4177 -0.2774  0.1340
26356W        W43203   8.241   0.643  13.676 -0.2600 -0.3795 -0.0264
26357W        W43204   3.632   8.008   2.841 -0.0899 -0.2075 -0.3618
26358W        W43205  17.818   1.116  11.891 -0.0685 -0.1531  0.1769
26359W        W43206  17.378  12.108   4.713 -0.1977 -0.0045 -0.0945
26360W        W43207   0.715   6.199   3.859  0.5750  0.0168 -0.3037
26361W        W43208   9.702   4.062  13.253  0.0211  0.2714  0.1124
26362W        W43209  18.839  18.052   3.791  0.1006 -0.2469 -0.1824
26363W        W43210   7.587   3.663   1.404 -0.1574  0.0162 -0.1461
26364W        W43211   6.763   8.727   2.820 -0.0172  0.1093  0.2051
26365W        W43212  19.184  17.855   5.051 -0.0903  0.1884 -0.0813
26366W        W43213  16.016   6.695  10.642  0.1006  0.3668 -0.0201
26367W        W43214  12.784   3.662   2.352  0.3298  0.3404  0.1231
26368W        W43215  12.204  10.146   1.615 -0.0259  0.0763  0.1105
26369W        W43216   7.184  10.685   1.627 -0.3607 -0.3169 -0.1724
26370W        W43217  13.678  12.979   1.056 -0.1993 -0.2130 -0.4711
26371W        W43218   7.314   7.929  11.648 -0.0282  0.0295 -0.1292
26372W        W43219   6.495   2.378   9.810 -0.0733  0.1601  0.1029
26373W        W43220  16.945   7.042   2.554  0.0346  0.3494  0.5588
26374W        W43221  13.164   0.765  12.891 -0.2114  0.1028 -0.2474
26375W        W43222   2.823   5.607   2.460 -0.0064  0.1387  0.2236
26376W        W43223  19.078   8.457  11.613 -0.0541 -0.4640  0.1026
26377W        W43224   2.037  16.166  13.255 -0.0842  0.1068  0.0268
26378W        W43225   9.509  13.460  12.375 -0.1736 -0.3221 -0.2254
26379W        W43226  14.405   3.008   3.236 -0.1539 -0.0101 -0.0545
26380W        W43227  15.163  18.631  10.982  0.0934  0.1445  0.0523
26381W        W43228  12.414  11.226   2.234 -0.0487 -0.2080  0.1813
26382W        W43229  15.488  14.504   1.455 -0.1872 -0.0430  0.2335
26383W        W43230  13.599  13.902  13.815 -0.1778 -0.4760 -0.1542
26384W        W43231  14.302  11.967  11.455  0.0262  0.0199 -0.2550
26385W        W43232  10.699  10.634   4.110 -0.3424  0.1556  0.0459
26386W        W43233   8.396   3.637  13.294 -0.2109  0.1222 -0.2479
26387W        W43234  17.351  10.245  12.635 -0.0349  0.0306  0.0131
26388W        W43235   7.583  10.025  12.227  0.0810 -0.1990 -0.1285
26389W        W43236  16.142   3.171   4.181  0.3214 -0.1301 -0.0167
26390W        W43237   0.034  12.776   1.492 -0.4550 -0.0211 -0.0811
26391W        W43238   8.187   3.338  11.249 -0.1490  0.1311 -0.0917
26392W        W43239  12.941  18.348  10.957 -0.3306 -0.1719 -0.1488
26393W        W43240   8.956  12.192  10.178  0.2283  0.0067 -0.2036
26394W        W43241   0.496  10.950   1.564  0.0404  0.0412  0.2345
26395W        W43242   6.734  19.499   1.871  0.1830 -0.0361  0.1507
26396W        W43243  15.398   4.238  11.846 -0.0238  0.0894  0.0606
26397W        W43244   2.272  17.622   1.854 -0.2568  0.1074 -0.0397
26398W        W43245  14.492   6.775   3.014 -0.1825  0.1042 -0.1069
26399W        W43246  18.235   3.293   3.179  0.1576  0.0243  0.1971
26400W        W43247   0.133   6.611   3.927 -0.0174  0.1630 -0.0816
26401W        W43248  11.187  14.293  14.060 -0.2743  0.2109 -0.3213
26402W        W43249   1.291   6.098  11.740 -0.0631 -0.1756  0.3559
26403W        W43250   5.167  17.724   0.460 -0.2327 -0.0722  0.0094
26404W        W43251   6.045   0.154  14.042 -0.2078 -0.0300 -0.3368
26405W        W43252  13.109   8.908  12.954 -0.1499  0.0671  0.2797
26406W        W43253   2.934  17.793  12.021 -0.2256 -0.0796 -0.0454
26407W        W43254  18.780   0.282   4.840  0.3748  0.0702 -0.3204
26408W        W43255   6.612   5.003   2.430 -0.0753  0.0460  0.0881
26409W        W43256   7.278   2.380   9.133  0.0095 -0.0845 -0.1319
26410W        W43257   3.065   4.474   4.720 -0.1906 -0.1654 -0.1930
26411W        W43258   1.432  12.244   2.116  0.0974  0.0649 -0.1777
26412W        W43259   5.981  17.109   1.308 -0.0876  0.1453  0.0263
26413W        W43260   3.851   8.809   2.624  0.1392 -0.2451 -0.2351
26414W        W43261   0.748   3.711   1.121 -0.2980 -0.1822  0.0236
26415W        W43262   8.958  11.446  11.451  0.3027  0.2954  0.1464
26416W        W43263  17.840  19.153  11.969  0.0037  0.0102  0.0087
26417W        W43264   6.420   2.445   4.448 -0.0562 -0.0675  0.1583
26418W        W43265  12.879  15.508  12.598  0.2691  0.1388  0.0942
26419W        W43266   0.545  14.878  14.091 -0.3467 -0.1006  0.0612
26420W        W43267  15.204   8.273  13.289 -0.0410 -0.0577 -0.3294
26421W        W43268   3.375  10.148   2.815 -0.0483  0.1152 -0.0686
26422W        W43269   8.120  13.224  10.951 -0.3551 -0.1307 -0.1762
26423W        W43270  18.256  18.468   2.561  0.1087  0.5456 -0.2252
26424W        W43271  11.275  16.362  13.176  0.0104 -0.1351 -0.1953
26425W        W43272   2.486   8.302   1.208  0.1946 -0.0709  0.2702
26426W        W43273  14.991   0.874   4.397 -0.0280  0.1312  0.1158
26427W        W43274  18.964  12.408   3.845 -0.5632 -0.3942 -0.0522
26428W        W43275  19.538   0.282  12.736  0.2469 -0.2326  0.3715
26429W        W43276   0.995  13.898   9.912 -0.1233 -0.0945  0.3004
26430W        W43277  13.041  13.187  12.789  0.1337 -0.1892  0.3093
26431W        W43278  11.114  15.560  13.580 -0.1463 -0.1721  0.1410
26432W        W43279  16.041   6.471  14.285 -0.0368 -0.2720  0.1120
26433W        W43280   2.199   7.458   9.943 -0.1616 -0.0696  0.2391
26434W        W43281   4.717  10.175  11.015  0.0082  0.0999  0.0281
26435W        W43282  17.264   3.121   9.517 -0.2698 -0.1443 -0.0642
26436W        W43283  12.519   4.555   3.393  0.0423 -0.0928  0.0127
26437W        W43284   0.192  11.492   5.372 -0.0473 -0.1856  0.2009
26438W        W43285   9.927   0.253   2.332  0.0143 -0.4294  0.0405
26439W        W43286  11.781  10.291  11.696 -0.0542  0.0016 -0.0034
26440W        W43287  10.282  14.598   5.150 -0.1646  0.1862  0.0391
26441W        W43288  17.826  17.754  11.989  0.2997 -0.1897  0.2683
26442W        W43289   3.093  17.883   1.834 -0.3934 -0.0927 -0.3113
26443W        W43290   1.328  15.118   0.499 -0.0113  0.0040 -0.2692
26444W        W43291  18.890   4.388  13.398 -0.1610 -0.1445  0.2143
26445W        W43292   4.087   9.223  13.849 -0.0482 -0.1923  0.2857
26446W        W43293   1.506   5.047   2.644  0.3547  0.0552  0.3378
26447W        W43294  15.894   6.076   3.462  0.2342  0.0242  0.1153
26448W        W43295  12.340   3.364   0.800 -0.0308 -0.2383  0.0881
26449W        W43296   3.440   2.148  10.618  0.0416  0.1667 -0.1217
26450W        W43297   7.009   0.367   4.764 -0.1704  0.2117  0.1872
26451W        W43298  18.803  12.530   2.458  0.1976 -0.1620  0.0877
26452W        W43299   1.944  16.086  14.155  0.1362 -0.1548 -0.2890
26453W        W43300  18.870   4.174   9.975 -0.1139  0.1694 -0.0196
26454W        W43301   2.425  17.767   3.128 -0.0822  0.3496  0.0958
26455W        W43302  17.706  16.238   1.237 -0.1438 -0.1984 -0.0429
26456W        W43303  15.272  14.354   3.795  0.0416  0.2040 -0.2933
26457W        W43304  12.177   3.047   0.394 -0.1580  0.0194 -0.0938
26458W        W43305   0.631  13.769  12.601 -0.1279  0.1942 -0.0930
26459W        W43306   5.840   8.130   0.131  0.0258  0.0933 -0.0768
26460W        W43307   6.031  12.727  10.623  0.2079 -0.0276 -0.3567
26461W        W43308   6.047  15.691  10.083  0.1496 -0.1423  0.1088
26462W        W43309   8.015  12.128   2.673 -0.1758 -0.2952 -0.1051
26463W        W43310  16.343  13.422  12.645 -0.1109 -0.0812 -0.3189
26464W        W43311   5.770   9.908   9.937 -0.0342 -0.1126  0.1541
26465W        W43312  11.846   3.496  12.290  0.4002  0.0549 -0.0412
26466W        W43313   5.264   8.284   2.057  0.0088 -0.0956  0.0105
26467W        W43314   5.073   5.338   3.655 -0.2411  0.1080 -0.0281
26468W        W43315  18.871  16.607   1.845 -0.1223  0.0719 -0.3640
26469W        W43316  12.394  12.755   3.561 -0.2682 -0.0974 -0.3365
26470W        W43317  19.060  18.914   1.954 -0.0586  0.1969  0.2675
26471W        W43318   7.782  18.253  12.609  0.0784  0.2641  0.1848
26472W        W43319  15.082  13.423  13.814  0.1670  0.2626  0.0431
26473W        W43320   2.974   6.413  13.623  0.2067 -0.1381  0.0717
26474W        W43321  18.578  12.949  10.703  0.1255  0.1961 -0.0759
26475W        W43322  19.746  18.951  10.300  0.0349  0.2460 -0.0123
26476W        W43323  19.462  11.763  11.900 -0.0265 -0.0495  0.1584
26477W        W43324   3.093  11.656  11.098  0.2416  0.0197 -0.0297
26478W        W43325   0.400   6.304   4.295 -0.0159 -0.1177  0.0126
26479W        W43326  11.233  18.429   2.199 -0.0621 -0.0226 -0.3170
26480W        W43327   4.253  19.647  14.145  0.1779 -0.1231 -0.0576
26481W        W43328   9.185  13.804   2.383  0.3862  0.1203  0.2230
26482W        W43329   9.018   1.727  14.202  0.1876  0.0573 -0.0514
26483W        W43330   9.288   6.157  11.166  0.1678  0.2897 -0.1913
26484W        W43331   9.289   4.698  10.861  0.0901  0.0896  0.0710
26485W        W43332   2.980  19.282   2.862 -0.2178  0.1458  0.1700
26486W        W43333  18.849  13.212  11.927  0.0571  0.0949  0.1452
26487W        W43334   2.788  12.406  14.309  0.1157  0.3768 -0.0314
26488W        W43335  14.580   4.042   1.340  0.1869  0.4496 -0.0012
26489W        W43336   9.545  18.399  11.623  0.1966  0.0850 -0.0102
26490W        W43337   5.086  15.912  13.461  0.0390 -0.1031  0.1324
26491W        W43338  13.866   8.750   2.073  0.3490  0.1596 -0.1753
26492W        W43339   7.359   2.367  14.234  0.1422 -0.2164  0.0071
26493W        W43340   2.168  13.924   5.039 -0.0954 -0.0408  0.0523
26494W        W43341   7.986   8.108   4.773  0.1817 -0.2450  0.5301
26495W        W43342   0.265  10.310   4.019 -0.0870  0.2122  0.0044
26496W        W43343  11.667  12.966   2.186  0.0660 -0.2538  0.0597
26497W        W43344   0.963  12.412   1.935 -0.2692  0.1044 -0.0454
26498W        W43345  14.877  13.846  14.093 -0.1266 -0.2630  0.0453
26499W        W43346  15.733   3.509   0.626 -0.2844 -0.0899  0.1043
26500W        W43347   1.649   3.410  10.885  0.0882  0.0209  0.1746
26501W        W43348   6.606  19.707  10.768 -0.1671  0.0820 -0.1642
26502W        W43349   7.878  15.175   9.667  0.0303  0.2296  0.3927
26503W        W43350   1.819  15.122  11.533  0.0645 -0.1913  0.2157
26504W        W43351   5.035  13.377   3.273 -0.0111  0.1519 -0.1036
26505W        W43352  11.740  16.919  11.120 -0.0075 -0.4575  0.1504
26506W        W43353   7.948  19.779   3.044 -0.2899 -0.1282  0.0300
26507W        W43354   7.797   4.281  12.118  0.1116 -0.0577  0.5808
26508W        W43355   7.308  16.036   1.256  0.2985  0.2306 -0.1054
26509W        W43356  18.458   3.185   2.583  0.1936  0.1191 -0.1243
26510W        W43357   5.449   8.660   3.424  0.0498 -0.3254 -0.1788
26511W        W43358  17.170  10.335   0.063 -0.2199 -0.0654 -0.4306
26512W        W43359  13.971   2.697   3.151 -0.0797  0.0060 -0.3431
26513W        W43360   7.433  17.895  10.722 -0.0217  0.1361  0.0191
26514W        W43361  16.588   7.178   4.401 -0.1784 -0.0359 -0.1107
26515W        W43362   6.928   3.371  12.408  0.2585 -0.1968 -0.0491
26516W        W43363  10.539   1.319   3.039  0.2546  0.1688 -0.3842
26517W        W43364  14.973  17.670  13.018  0.2953  0.1663 -0.0545
26518W        W43365   1.750  12.665  11.512 -0.3180  0.1067  0.3128
26519W        W43366  11.911   0.639   5.551 -0.0511 -0.0463 -0.0746
26520W        W43367  13.713   7.984   0.359 -0.1670 -0.0894  0.0486
26521W        W43368  15.367   2.933   9.716 -0.1418  0.1289  0.3075
26522W        W43369   7.878   5.417   2.472  0.0862  0.2085 -0.1144
26523W        W43370  10.116   5.963  12.470 -0.1975 -0.0442 -0.1005
26524W        W43371  14.481  19.801   5.084 -0.2394 -0.2054 -0.2641
26525W        W43372   4.999  16.527   9.591 -0.1241 -0.0530 -0.0715
26526W        W43373  14.416   1.297  10.364 -0.1133 -0.2069  0.3476
26527W        W43374  17.875  17.294  12.220  0.1364 -0.1008  0.1873
26528W        W43375   9.728  19.141  12.237  0.1351  0.2286  0.3174
26529W        W43376   7.657   5.249  11.654 -0.0726  0.1475 -0.0869
26530W        W43377   8.998  12.318  11.280 -0.0239 -0.1015  0.2797
26531W        W43378   4.867  10.486   1.445  0.2080  0.1894 -0.1664
26532W        W43379  15.213   8.493   3.584 -0.4429  0.1567  0.3584
26533W        W43380   2.129  15.666   0.110  0.0035 -0.0368 -0.2612
26534W        W43381  10.889  15.085   3.584 -0.2976 -0.2074  0.1807
26535W        W43382   5.841  16.611  11.096  0.0052  0.1167  0.1272
26536W        W43383   4.497   3.475   4.194 -0.3429  0.1857  0.0469
26537W        W43384  16.572   3.984   2.950 -0.1051  0.2085 -0.2008
26538W        W43385  18.923  11.975   0.430  0.0014 -0.0467 -0.1379
26539W        W43386  12.348  18.961  12.160 -0.0700  0.0842 -0.1647
26540W        W43387  17.759   9.579   0.294  0.0017 -0.3629  0.4835
26541W        W43388   9.990  17.458  10.068  0.1404  0.2626 -0.0667
26542W        W43389   4.085   8.668  10.184 -0.3924  0.5667 -0.0737
26543W        W43390   4.050   4.592  14.038 -0.1416 -0.0413  0.0946
26544W        W43391   7.820   2.321   0.920  0.1166  0.1359 -0.2633
26545W        W43392   2.187   8.472  14.248 -0.0269  0.3228 -0.1826
26546W        W43393  19.622   1.979   4.045  0.1497  0.1520  0.2764
26547W        W43394  16.346   4.243   0.621 -0.3448 -0.0466  0.3546
26548W        W43395  11.419  18.134  13.389 -0.1527 -0.2052  0.1745
26549W        W43396  18.790   3.300   4.702 -0.0027  0.0104  0.3732
26550W        W43397  19.100  11.117  11.021  0.4753 -0.0442 -0.1543
26551W        W43398  17.682  16.570  11.679  0.0909 -0.0679 -0.0415
26552W        W43399  13.780  12.951   5.072 -0.2374  0.0783 -0.0008
26553W        W43400   7.928  18.014   3.884 -0.2384 -0.1511 -0.1375
26554W        W43401  16.734  19.233   3.403  0.1470  0.0294  0.0819
26555W        W43402   3.668  12.383  13.907 -0.2170 -0.0616  0.1825
26556W        W43403   8.884   5.505  12.062 -0.0974  0.0768  0.3259
26557W        W43404   6.850  15.295   9.899 -0.1158 -0.1752 -0.1723
26558W        W43405  19.723   0.356   1.347 -0.0734 -0.1990  0.0961
26559W        W43406   0.269  19.377  10.675  0.3153  0.0717  0.1650
26560W        W43407  10.400   4.562   8.898  0.0352 -0.2637 -0.1819
26561W        W43408  18.386   5.520  10.865  0.3539  0.4781  0.0012
26562W        W43409   5.478   7.813   2.109 -0.1825 -0.0005 -0.1204
26563W        W43410  13.173   1.527   0.602  0.2000 -0.1325 -0.2201
26564W        W43411   0.539  17.807   2.176  0.0160 -0.1839 -0.1553
26565W        W43412  16.124   5.813   3.969 -0.1756 -0.0328 -0.3076
26566W        W43413  12.990  11.156  11.280 -0.0426  0.1591  0.2258
26567W        W43414   9.174  17.460  13.462  0.2514  0.2260  0.1419
26568W        W43415   6.044  11.275  11.645 -0.1581 -0.1119  0.0559
26569W        W43416  13.606  10.870   4.573 -0.2340 -0.3484 -0.1449
26570W        W43417  15.163  11.963   2.800 -0.1445  0.0981 -0.0232
26571W        W43418  17.876  19.197   3.001  0.1258  0.2199  0.2477
26572W        W43419   8.623   3.927  13.652 -0.3149 -0.0529 -0.4065
26573W        W43420  15.314  19.061   3.896 -0.1398  0.4147  0.6146
26574W        W43421   6.956  16.799  11.768 -0.1383 -0.0085 -0.1248
26575W        W43422   9.926  14.006   0.962  0.0813  0.1759  0.2614
26576W        W43423   9.081  18.526   2.716  0.4465  0.0142 -0.1205
26577W        W43424  17.097  13.037   4.203  0.2700  0.0312 -0.1092
26578W        W43425  13.106  17.073  14.204  0.3847 -0.0331 -0.1252
26579W        W43426   0.035   0.737   2.710  0.1927  0.0131  0.1179
26580W        W43427  18.922   4.334   1.275 -0.2631 -0.0290 -0.0217
26581W        W43428   7.603  14.989  10.967 -0.1488 -0.1059 -0.0568
26582W        W43429  10.532   7.113   4.615  0.5554  0.0790  0.0317
26583W        W43430   8.643  15.004  12.893  0.1100  0.1174 -0.3154
26584W        W43431  19.832   8.286  12.694 -0.0807 -0.1018  0.0218
26585W        W43432  14.411  16.707  13.943  0.1600  0.1743 -0.0019
26586W        W43433  13.694   5.830   2.390  0.0299 -0.0549 -0.0898
26587W        W43434  10.150  15.118   4.330  0.0864  0.0839  0.0043
26588W        W43435  11.384   3.605   3.147  0.2256  0.0531  0.1969
26589W        W43436  14.760   3.279  14.096 -0.0212 -0.2794 -0.3176
26590W        W43437   0.014   4.114  13.939  0.0664 -0.1956  0.3521
26591W        W43438   0.701  13.868   0.580 -0.0766 -0.2147  0.2249
26592W        W43439   8.637  14.361   3.540  0.2537  0.3021 -0.1875
26593W        W43440   9.310  12.859  10.558 -0.0941 -0.0533  0.0823
26594W        W43441   4.730   5.133  13.211  0.2233  0.0193  0.2532
26595W        W43442  13.986   8.602  12.288  0.2281 -0.1033 -0.1058
26596W        W43443  19.050   3.775  11.505 -0.2290  0.3229  0.1682
26597W        W43444  15.712  14.657  10.518  0.1319 -0.0543 -0.0466
26598W        W43445  12.724   7.907  11.051  0.0541  0.1279  0.1195
26599W        W43446  10.640   1.026   2.582 -0.1771  0.1741  0.0444
26600W        W43447  17.658   5.919  14.216 -0.1781 -0.0055 -0.2468
26601W        W43448  12.485   1.732  13.645  0.0956  0.0383  0.2662
26602W        W43449  15.704   6.406  11.641  0.1097  0.0545  0.1723
26603W        W43450  11.083  17.233   9.587  0.0643 -0.1081 -0.1762
26604W        W43451  13.159  13.030   1.228 -0.1008 -0.2792 -0.2770
26605W        W43452  18.739  19.699  11.670 -0.0583  0.5435 -0.0411
26606W        W43453  13.881  19.814  12.714  0.1889  0.3226 -0.0136
26607W        W43454  15.118  14.467  11.296  0.0161 -0.0701 -0.1384
26608W        W43455  18.286   1.882  13.228  0.2170 -0.1124  0.1014
26609W        W43456  15.554  19.331   2.184 -0.1771  0.0953 -0.2034
26610W        W43457   8.371  17.466   1.552  0.0901 -0.0496  0.0031
26611W        W43458   4.271  17.949   2.961  0.0767 -0.2819  0.0121
26612W        W43459  10.044  13.341  13.208 -0.2147  0.0829  0.1851
26613W        W43460  17.416   1.465  11.959 -0.1596  0.1644  0.0935
26614W        W43461  17.041   2.058  11.010  0.1191 -0.2250  0.0239
26615W        W43462  12.073   4.636   5.778  0.0079 -0.3042 -0.3374
26616W        W43463   1.044  19.507   3.070 -0.2219  0.0792  0.0489
26617W        W43464  14.273  16.412   0.386 -0.0007  0.0647  0.1494
26618W        W43465   2.266  14.291  10.448 -0.0842  0.0903 -0.3066
26619W        W43466  14.276  10.963  10.224 -0.1656 -0.0936 -0.2714
26620W        W43467   0.758   9.065   1.374 -0.0434 -0.1709  0.0622
26621W        W43468  15.438   9.603   0.812  0.2909  0.0603 -0.2599
26622W        W43469  14.189   4.143   2.823  0.4192  0.0939  0.0550
26623W        W43470   6.813  10.247   2.788 -0.0145  0.1013 -0.2109
26624W        W43471   3.968  11.334  11.172 -0.1183 -0.2182 -0.0360
26625W        W43472  18.643  11.322  11.450 -0.0463 -0.0438 -0.0784
26626W        W43473  11.603  14.031  10.686  0.1584 -0.0484 -0.2099
26627W        W43474  13.411   7.924  12.745  0.2469  0.1109  0.1046
26628W        W43475   8.912  19.078   2.470  0.1410 -0.1251  0.3048
26629W        W43476  14.924   5.955   0.426  0.3170  0.0229 -0.1379
26630W        W43477   5.635  13.323  11.205  0.1560  0.0468  0.0812
26631W        W43478   1.761  14.200  12.967 -0.1430 -0.3661  0.0145
26632W        W43479   7.524   4.576  12.906 -0.2503 -0.1546 -0.3011
26633W        W43480   1.340  10.811  12.284  0.0178  0.0508  0.1192
26634W        W43481  19.710   6.283   1.304 -0.3412  0.0791 -0.3631
26635W        W43482   3.126  11.068   3.226 -0.4426 -0.1803  0.0201
26636W        W43483  19.818  13.654   0.964 -0.0821  0.1007 -0.2332
26637W        W43484   7.113   1.663  12.990 -0.0770  0.3274 -0.0460
26638W        W43485  12.445  17.346   1.104  0.1790 -0.1015 -0.1760
26639W        W43486   4.148   8.000  13.685 -0.0663 -0.3689 -0.1009
26640W        W43487  12.320  16.015  11.854  0.2444 -0.2164 -0.0575
26641W        W43488   1.002   2.306  12.286 -0.0306 -0.0475  0.1206
26642W        W43489  14.744   8.182  13.547 -0.0727  0.0097 -0.3298
26643W        W43490  17.637   2.724   4.034 -0.0658  0.0262 -0.4185
26644W        W43491   0.040   1.397  10.433  0.0187  0.3378  0.0596
26645W        W43492  12.182  19.082   5.169  0.0883 -0.0005 -0.1181
26646W        W43493  10.375  12.857  10.705 -0.0696  0.0235 -0.0538
26647W        W43494   7.936   2.290   2.287  0.2293  0.1010 -0.2060
26648W        W43495   5.950   4.007  11.230  0.0943  0.0946 -0.0069
26649W        W43496  19.753  15.633   4.475  0.0245  0.1085  0.1259
26650W        W43497   3.100  19.842  11.510 -0.5151 -0.3417 -0.1340
26651W        W43498   8.720  10.472  10.046  0.2325 -0.2033 -0.2185
26652W        W43499  13.025  13.852   9.399  0.1432  0.1134 -0.1331
26653W        W43500  19.355  12.442   0.297  0.2082 -0.0253  0.0750
26654W        W43501  13.685  18.108  13.096  0.1958  0.1335  0.4070
26655W        W43502   9.995   4.475  12.583  0.1062  0.2408 -0.1316
26656W        W43503  13.451  11.048   8.986 -0.2707 -0.2225 -0.0732
26657W        W43504  10.266   5.349  13.348 -0.1189  0.1547 -0.2929
26658W        W43505  17.605  15.101   2.707 -0.2925 -0.1837 -0.3694
26659W        W43506   1.155   2.385  10.091 -0.0646 -0.1221  0.4611
26660W        W43507  11.673   0.250  11.538  0.1850  0.2539 -0.4003
26661W        W43508   3.660   5.072  11.105 -0.0635 -0.0207 -0.3399
26662W        W43509   2.254   2.334   3.192  0.5522 -0.0160  0.0666
26663W        W43510   3.359   1.796   3.854  0.2168 -0.1563  0.0335
26664W        W43511   9.495   9.970   3.413 -0.0838 -0.4874 -0.1064
26665W        W43512   4.910  15.286   0.188 -0.2501 -0.1813  0.0646
26666W        W43513   7.433  16.676   3.522  0.0075  0.0901  0.1172
26667W        W43514  17.794  18.111   1.597  0.0772  0.3477  0.0288
26668W        W43515   6.547  14.285   3.586 -0.3176 -0.1423 -0.1545
26669W        W43516  14.433   2.195   1.514  0.1284  0.0520 -0.0461
26670W        W43517  16.683   9.293   0.401  0.0819 -0.1270 -0.0927
26671W        W43518   2.697   9.269  10.495 -0.1278 -0.2580  0.1058
26672W        W43519  13.402  14.278   5.311 -0.0352  0.1069 -0.0643
26673W        W43520  12.284  17.243   3.018  0.0029  0.4308  0.0640
26674W        W43521  10.973   6.720  12.661 -0.2339  0.2595 -0.0191
26675W        W43522   2.351   5.037  12.400 -0.2093 -0.0233 -0.0061
26676W        W43523  14.233  15.514   0.739  0.2201  0.1882 -0.1185
26677W        W43524  10.711   7.060   5.075  0.2238  0.2183  0.0852
26678W        W43525   6.742   4.905   1.952  0.0141 -0.4048 -0.0583
26679W        W43526  14.238  15.883   1.717 -0.1919 -0.2593 -0.3403
26680W        W43527   9.524   9.794   4.480  0.2317  0.0474 -0.4346
26681W        W43528   8.036  13.763   4.567  0.3865  0.2300  0.1841
26682W        W43529   4.739   0.958  14.066 -0.3101 -0.2281 -0.0610
26683W        W43530   0.218  12.899   3.587 -0.2931  0.3203  0.5912
26684W        W43531   2.749   5.875   9.945 -0.1982  0.1242  0.0857
26685W        W43532  19.760   8.050  13.514 -0.0040 -0.1670  0.0755
26686W        W43533   7.690  14.834   2.296  0.1166  0.0225 -0.2325
26687W        W43534   0.793   4.623  10.891 -0.1123  0.1501  0.4346
26688W        W43535   3.172   4.697   2.159 -0.0559 -0.1713  0.0590
26689W        W43536   1.537  12.603   9.806 -0.0159 -0.0579 -0.3132
26690W        W43537   9.923   5.097   3.957 -0.0388 -0.0402  0.3561
26691W        W43538   6.695  13.940  12.646 -0.2448 -0.0459 -0.1318
26692W        W43539  14.955  12.001   2.332  0.2031 -0.2066  0.0205
26693W        W43540   6.871  17.473   9.935  0.0969 -0.2175 -0.2343
26694W        W43541  16.741  10.596   4.220 -0.1050  0.0947  0.0300
26695W        W43542  13.826   2.145   2.063 -0.0345  0.0032  0.4282
26696W        W43543   9.263  16.676  10.469 -0.1358  0.1249 -0.0817
26697W        W43544   5.338   6.310   0.485  0.1210  0.3465  0.1029
26698W        W43545   3.394   0.977  12.562  0.0218 -0.0933 -0.1746
26699W        W43546   9.710  10.411   1.087 -0.0188  0.1853  0.0280
26700W        W43547   5.506   5.774  14.145  0.3273  0.1671  0.1480
26701W        W43548  15.112   6.940   4.963  0.3373 -0.1857 -0.0121
26702W        W43549   6.199  19.537  10.550  0.1661 -0.1892  0.3290
26703W        W43550   6.558   1.961  12.154 -0.3095 -0.2329 -0.3174
26704W        W43551  14.326  18.376   4.879  0.1060  0.0197 -0.0624
26705W        W43552   8.568   1.703  13.306  0.1573 -0.0862 -0.2563
26706W        W43553  19.242   8.818  13.824  0.0762  0.0625 -0.2952
26707W        W43554   9.261   5.021   1.198 -0.0735 -0.3875  0.0604
26708W        W43555  19.827  16.058   2.088  0.0074  0.0543  0.1475
26709W        W43556  13.376   5.610   3.452 -0.4037 -0.1305 -0.3574
26710W        W43557  11.058  19.372  12.241 -0.0723  0.0043 -0.1134
26711W        W43558   2.518   7.861  12.282  0.2287  0.1893  0.1769
26712W        W43559   3.546  11.138  12.890  0.0348  0.1708 -0.3046
26713W        W43560  16.536  12.575  10.605 -0.4214  0.0873 -0.1323
26714W        W43561   7.637   2.849   5.149  0.2261 -0.1127  0.0371
26715W        W43562  11.470   9.318  10.754  0.1121  0.3501 -0.2625
26716W        W43563  13.107  17.792   1.400  0.3120 -0.3147  0.0908
26717W        W43564  19.257  19.906   4.244  0.1386  0.0211 -0.1078
26718W        W43565  13.482   7.446  12.341 -0.0076 -0.0833  0.3947
26719W        W43566   0.145   3.615   0.029  0.0147 -0.2121 -0.2141
26720W        W43567  14.054  16.199   4.689  0.2393  0.1314  0.0167
26721W        W43568  14.088   6.295   1.747 -0.4061  0.2629  0.3077
26722W        W43569  11.093   2.310   5.037 -0.1427 -0.0473 -0.3299
26723W        W43570   4.630   3.625   3.324 -0.0571  0.0149  0.0548
26724W        W43571   7.293   5.988  12.633  0.2370  0.1255 -0.2739
26725W        W43572  19.588  16.636  11.435  0.2838 -0.1093  0.0909
26726W        W43573   7.932  15.930  10.347  0.2491 -0.3788  0.2161
26727W        W43574   5.981   9.725  10.931 -0.1892  0.0707  0.2268
26728W        W43575   1.590  19.068   9.304  0.3323  0.2230  0.3689
26729W        W43576  11.592   8.991  13.369 -0.1250 -0.1619  0.3385
26730W        W43577  12.788  16.012  11.749 -0.1135  0.2400  0.1296
26731W        W43578  16.521   7.617   3.850  0.2452  0.3903 -0.1311
26732W        W43579   4.069  11.830   4.104  0.0785  0.0155 -0.1286
26733W        W43580   5.273   5.860   4.298 -0.2103 -0.0047 -0.1603
26734W        W43581  18.241   6.410  12.783 -0.0268 -0.1033 -0.0935
26735W        W43582  11.714  19.197   9.844 -0.2299 -0.0714 -0.0318
26736W        W43583   4.589  10.832  12.300 -0.0150 -0.1098 -0.1454
26737W        W43584  14.186  19.163  10.528  0.3441  0.1607  0.2525
26738W        W43585  12.678   2.154  12.795 -0.1013 -0.0787  0.1400
26739W        W43586   2.831   4.059   0.066 -0.2440 -0.1219  0.1734
26740W        W43587   6.035  15.665  14.002  0.0963  0.2236  0.0297
26741W        W43588   0.421   3.207   2.342  0.0380  0.2169  0.0357
26742W        W43589   9.848  15.286   0.128  0.0573  0.1902  0.0975
26743W        W43590  18.116   7.642  12.160 -0.0730  0.1073  0.4106
26744W        W43591  10.656   1.948  13.950 -0.2449 -0.4348 -0.2822
26745W        W43592   8.904   4.460  12.244 -0.0173  0.1486  0.0976
26746W        W43593   7.252  13.821   4.622 -0.0587 -0.0854  0.0977
26747W        W43594  14.312   2.548   2.731  0.1522 -0.0878 -0.3874
26748W        W43595  14.284  12.375   4.062  0.0265 -0.0946  0.1373
26749W        W43596   8.700   0.049   4.051  0.0844 -0.1796  0.0641
26750W        W43597  17.684  15.193   3.284  0.1597 -0.2782  0.0052
26751W        W43598  18.595  16.192   1.910  0.1309 -0.1045 -0.1472
26752W        W43599   2.010  11.014  12.905 -0.1246  0.0323 -0.0315
26753W        W43600   1.428  16.072  14.169 -0.1520 -0.1237 -0.0704
26754W        W43601  16.179   4.720   2.407  0.2960 -0.3202 -0.1059
26755W        W43602   3.197   2.716   2.887  0.3582 -0.1213 -0.0004
26756W        W43603   7.075  12.226  13.677  0.3766 -0.2429 -0.0442
26757W        W43604  10.053   4.008  12.240  0.0894  0.0089 -0.2454
26758W        W43605   7.441   9.519   3.616  0.1286  0.0617 -0.1655
26759W        W43606  13.471  16.282  12.295  0.1143 -0.1682 -0.4481
26760W        W43607  13.888  19.890   1.449  0.0403 -0.0488 -0.0717
26761W        W43608  13.251   4.133   0.911  0.0677 -0.2844 -0.0680
26762W        W43609  12.994   1.247   2.910  0.1619  0.1277  0.1240
26763W        W43610  19.435   6.248  14.056 -0.2820  0.1650  0.0914
26764W        W43611   2.915  14.252  11.162 -0.0850  0.3464 -0.1323
26765W        W43612  10.416   6.400   9.837 -0.3696  0.2099  0.1503
26766W        W43613  19.371   2.631  13.309 -0.1736 -0.2398 -0.0270
26767W        W43614   6.597   5.281   0.394 -0.0028  0.0551  0.0306
26768W        W43615  10.922  19.484   0.183 -0.0910  0.0479 -0.0433
26769W        W43616  12.060   9.716   1.872  0.0009 -0.3429  0.1493
26770W        W43617   7.558   8.651  13.400  0.1879  0.1513 -0.0310
26771W        W43618  11.423  17.939   5.027 -0.0958  0.0384 -0.0639
26772W        W43619   3.474  10.614   3.400  0.3023 -0.0351  0.0608
26773W        W43620   3.129  11.525  14.161  0.1316  0.1846 -0.1070
26774W        W43621   6.524  12.660   4.292 -0.3813 -0.0437 -0.1789
26775W        W43622  11.086  18.029   2.422 -0.1883  0.0781  0.0265
26776W        W43623   8.330   9.049   0.389  0.2067  0.0029  0.2217
26777W        W43624  17.918   0.554   1.889 -0.1543 -0.0463 -0.0158
26778W        W43625  15.346  15.728   9.566  0.0548 -0.3228 -0.4617
26779W        W43626   3.518  11.272   2.852  0.0199  0.1271 -0.4715
26780W        W43627  12.097   3.400   2.043 -0.0975  0.3136  0.0207
26781W        W43628   8.189  11.178   2.368 -0.0989 -0.3037  0.1441
26782W        W43629   5.459   4.307   4.700 -0.0098 -0.3382 -0.0913
26783W        W43630   7.981  12.797  12.325  0.0654  0.1482 -0.1715
26784W        W43631  15.676   2.545   2.838 -0.0447 -0.0811 -0.1312
26785W        W43632   9.000  15.168  12.601  0.0378  0.3336  0.3682
26786W        W43633   3.085   4.522  10.478 -0.1694 -0.1479 -0.0629
26787W        W43634  14.313   3.151   2.777 -0.2561  0.1329  0.0799
26788W        W43635  13.174  10.140   1.836  0.3410  0.3109 -0.1808
26789W        W43636   4.077  16.785  13.636  0.1542 -0.0934  0.1026
26790W        W43637   7.972  16.921   2.729  0.2298 -0.1746  0.2869
26791W        W43638  11.138  13.903  10.601 -0.1247 -0.1044 -0.0621
26792W        W43639  17.498   4.680  12.458  0.5273  0.0334  0.3500
26793W        W43640  12.034  12.201  11.922  0.1100 -0.0914  0.0574
26794W        W43641   0.595   2.306  10.988 -0.1942  0.0123  0.0718
26795W        W43642  19.045   5.305  13.110  0.0064  0.0899  0.0790
26796W        W43643   4.053   3.205   4.367  0.1590 -0.0550 -0.1285
26797W        W43644  12.013   2.587  13.852 -0.0562  0.0816  0.1134
26798W        W43645  11.044  14.692  14.230  0.1557 -0.1985 -0.0945
26799W        W43646   3.645   7.176   2.110 -0.1478 -0.1146  0.0146
26800W        W43647  18.164   9.896   4.215  0.0721  0.1278 -0.1875
26801W        W43648  13.257  19.389  10.764 -0.4434  0.0029  0.1328
26802W        W43649   1.831  14.611   2.503  0.2327 -0.0830 -0.2412
26803W        W43650  16.478  17.766   9.107 -0.1302  0.0101  0.5224
26804W        W43651   3.400   6.649  11.348  0.0690  0.0126  0.1280
26805W        W43652  15.199   1.153   0.289 -0.3858 -0.0232  0.0312
26806W        W43653  15.273  10.742  11.082 -0.2431  0.0034  0.0266
26807W        W43654  12.422   9.877   0.426  0.0320  0.0015  0.2665
26808W        W43655  18.002  13.685   0.452 -0.1158 -0.5011 -0.1062
26809W        W43656  17.632   0.556  13.867  0.1663  0.1820 -0.2128
26810W        W43657  10.421   7.563  11.312  0.1378 -0.0152  0.1463
26811W        W43658  14.533  18.311  13.658 -0.1879  0.2054 -0.0613
26812W        W43659   6.985  19.481   2.417 -0.0241  0.0230 -0.4276
26813W        W43660  17.631  12.393   2.682  0.0370  0.2446  0.2000
26814W        W43661   9.839   2.873   1.676 -0.0655  0.1296  0.3437
26815W        W43662  10.369  15.158   9.956 -0.1375 -0.1607  0.2512
26816W        W43663   1.418  10.862  10.829  0.0717 -0.1289  0.3346
26817W        W43664   9.456   5.871   3.726  0.1217 -0.0051 -0.0565
26818W        W43665   8.341   1.747   3.920 -0.0030  0.1242 -0.1934
26819W        W43666   6.090   3.002  10.242  0.0893  0.0198  0.1338
26820W        W43667   7.998   5.344   0.751 -0.0210 -0.3845 -0.0725
26821W        W43668  11.460   8.214   4.057  0.1126  0.0563  0.1371
26822W        W43669   2.215   2.665   0.896  0.2872  0.0204 -0.0682
26823W        W43670  14.009   7.477  14.025 -0.0498 -0.0098  0.3291
26824W        W43671  17.886  15.700   3.395  0.0892  0.0474  0.1576
26825W        W43672   3.470  16.803  13.834 -0.2312 -0.0468  0.3627
26826W        W43673  10.295   3.779   1.956 -0.0954  0.0392 -0.1889
26827W        W43674  16.141  19.710  10.334 -0.3799  0.2896  0.2685
26828W        W43675  13.798  15.237   4.126 -0.0701  0.0223  0.0430
26829W        W43676   6.134   1.748   0.122 -0.2425  0.2218  0.0105
26830W        W43677  16.919   4.193   0.531 -0.2385 -0.1150  0.0089
26831W        W43678   9.547   9.062   2.882 -0.1894 -0.1632  0.0223
26832W        W43679   4.139  15.227  13.547 -0.0220 -0.1737  0.2342
26833W        W43680  19.084   0.534   3.329  0.4220  0.0700  0.0144
26834W        W43681  19.003   6.162   4.588  0.1613  0.0055 -0.1945
26835W        W43682  15.998  12.103  12.615 -0.3320  0.1004  0.1184
26836W        W43683  10.091  12.958   0.442  0.1840  0.0322 -0.1504
26837W        W43684  17.419   4.780   1.252 -0.0313  0.3191  0.3732
26838W        W43685   1.792  11.021   1.255  0.0651  0.4729  0.0403
26839W        W43686  17.679   3.593  12.216 -0.3278  0.0066  0.0203
26840W        W43687  13.273   9.405  12.988  0.1247  0.0418  0.1113
26841W        W43688  19.484  17.571   1.461  0.1019  0.2548 -0.0267
26842W        W43689  16.460  12.750   1.424 -0.3293  0.2468 -0.0361
26843W        W43690  13.414   8.787   3.281 -0.1266 -0.4611  0.4311
26844W        W43691   1.499   3.987   1.340 -0.4183  0.1775 -0.0512
26845W        W43692  10.092  11.726   0.784  0.3500  0.1095  0.2553
26846W        W43693  15.538   9.359   3.301  0.0617  0.1355  0.0041
26847W        W43694  11.624  11.168   1.794 -0.2227 -0.2302  0.0110
26848W        W43695   1.722  19.460   1.906 -0.0713  0.1161 -0.0550
26849W        W43696   2.472  17.685  12.154  0.0863 -0.2601  0.1143
26850W        W43697   1.041  17.607  13.122 -0.1096 -0.0986 -0.3976
26851W        W43698   9.894   9.499  10.755 -0.1986 -0.1655 -0.1291
26852W        W43699   9.220  13.064   4.232  0.0192  0.3587 -0.2544
26853W        W43700  13.660   3.929   1.328 -0.3940 -0.0894  0.1791
26854W        W43701  15.498   8.530  13.014 -0.2059 -0.1187  0.0042
26855W        W43702  14.695   3.541  12.691  0.0647  0.1929  0.1905
26856W        W43703  17.388  16.602   1.103  0.0861 -0.0530  0.1463
26857W        W43704  16.072   9.361  12.863  0.3907  0.1330 -0.0810
26858W        W43705   3.778  19.573   0.081 -0.1161  0.2138 -0.0311
26859W        W43706   7.175  12.022   9.800 -0.1863 -0.2865 -0.1281
26860W        W43707   4.073   5.500  10.896  0.0041 -0.0967 -0.0942
26861W        W43708  15.224  10.600  11.987 -0.1949  0.2536  0.1979
26862W        W43709   0.033   5.821  10.140 -0.3424  0.2246 -0.1089
26863W        W43710  12.792   4.239   2.360  0.4999 -0.0284  0.3995
26864W        W43711  18.138   0.649   1.480 -0.3481  0.0757 -0.0730
26865W        W43712   7.876   4.899   3.401 -0.1984 -0.0906  0.0199
26866W        W43713   6.483   1.040   0.152  0.1991 -0.1223 -0.1558
26867W        W43714   9.749   4.619  11.779  0.0012  0.3248  0.1091
26868W        W43715   4.960  19.409  10.154 -0.1298  0.0796  0.1848
26869W        W43716   3.511  12.622   4.704  0.1732  0.2931  0.0247
26870W        W43717   1.282   8.923   3.483 -0.1765  0.0168  0.0096
26871W        W43718  19.819   1.499   9.073 -0.2022  0.1442 -0.0917
26872W        W43719  19.254  11.959   4.124  0.3119  0.2674 -0.2998
26873W        W43720  17.966   4.395  12.020  0.1670 -0.2283 -0.0937
26874W        W43721   4.080   1.481   2.458  0.0372  0.0828 -0.3066
26875W        W43722   7.552   1.031   2.011 -0.2944  0.2659  0.3854
26876W        W43723  12.075  17.350  12.674  0.2577  0.1625 -0.1804
26877W        W43724  14.995   7.433  12.935  0.2397  0.0701  0.1635
26878W        W43725   0.223  16.318  10.378 -0.1440  0.0250  0.0324
26879W        W43726   9.145   9.684   1.281  0.2011  0.2432 -0.0704
26880W        W43727   3.547   8.296  12.595 -0.3943 -0.1662  0.0791
26881W        W43728  14.297   0.794   0.577 -0.2255 -0.1148 -0.0599
26882W        W43729  16.039   3.833   3.442 -0.0346  0.0935 -0.1958
26883W        W43730   9.628   9.457   4.173 -0.1594 -0.0078  0.1799
26884W        W43731  10.205  16.138   4.074 -0.0788 -0.0722 -0.1149
26885W        W43732   5.515  12.176   3.226 -0.1727 -0.2452 -0.0433
26886W        W43733   9.963  18.037   1.098 -0.0208  0.2345  0.2879
26887W        W43734  15.753   2.211   2.428  0.2040 -0.1112  0.1039
26888W        W43735  10.253   0.912   3.298 -0.2975 -0.4719  0.2848
26889W        W43736   5.278   0.344   3.063  0.1783  0.0775  0.2385
26890W        W43737   8.341   5.762   0.659  0.1272  0.3349  0.3605
26891W        W43738   1.958   8.890   9.984 -0.0966  0.0953  0.4763
26892W        W43739  12.109   2.378   2.848  0.0050  0.0664  0.0711
26893W        W43740  16.625   6.944   2.169 -0.0655 -0.2830  0.0012
26894W        W43741   3.270  13.047  11.763 -0.2460  0.3247 -0.0591
26895W        W43742  17.564   2.790  14.067  0.2657  0.1894 -0.0811
26896W        W43743   5.503   3.990   3.874 -0.1781  0.0713  0.0483
26897W        W43744  13.644   4.204  13.407 -0.0339 -0.2159  0.2163
26898W        W43745   6.689   1.809  14.090  0.0694  0.1661 -0.0772
26899W        W43746  19.743  15.368  11.309 -0.1419  0.0781 -0.0548
26900W        W43747   6.239   3.253   1.122 -0.0913 -0.1137 -0.0787
26901W        W43748   3.747  18.594   2.129  0.2670 -0.1850  0.1687
26902W        W43749   4.891   7.116   2.912 -0.0963  0.5851  0.0324
26903W        W43750  14.690  15.464  13.640  0.0205  0.0455 -0.2387
26904W        W43751   9.395   0.374  10.043 -0.1333  0.1839 -0.1785
26905W        W43752   4.164  19.696  10.780 -0.2863  0.1940  0.5535
26906W        W43753  19.736   7.822  12.414  0.0598  0.1315  0.0525
26907W        W43754  19.379   1.944   1.674  0.1694 -0.6994  0.3554
26908W        W43755   4.059  11.953   2.448 -0.0832 -0.0568  0.3270
26909W        W43756   2.776  15.324  13.276  0.0076 -0.0384 -0.1241
26910W        W43757   9.407  18.531  14.172 -0.0597  0.1775  0.1026
26911W        W43758   3.625   4.510   3.445  0.2316  0.1389  0.0472
26912W        W43759  13.385   2.368   2.441  0.0659 -0.0110 -0.2582
26913W        W43760  17.672   1.595  10.352  0.0784  0.0649  0.1066
26914W        W43761   5.460  13.944  10.465  0.0958  0.1647 -0.0319
26915W        W43762   3.611   3.834  11.058  0.1324 -0.1624  0.1569
26916W        W43763   9.038   4.439  11.350 -0.2900  0.0344 -0.0809
26917W        W43764   8.201   9.915   4.200  0.0932 -0.0232 -0.1736
26918W        W43765  11.716  15.665   4.642  0.0037 -0.3710 -0.2795
26919W        W43766   4.528  17.455   2.879  0.2508 -0.0850  0.0255
26920W        W43767   8.656   3.371   4.992 -0.1267  0.3547 -0.0319
26921W        W43768   2.862  15.159   3.036 -0.3695  0.2053  0.1952
26922W        W43769  18.206  10.663  13.569 -0.1736  0.0559 -0.0180
26923W        W43770   4.057  10.153   1.529 -0.3146  0.0615 -0.0073
26924W        W43771   8.074  11.270  13.965  0.2705  0.1422 -0.3577
26925W        W43772  14.429   2.810   9.579 -0.0889  0.4832  0.0895
26926W        W43773   4.471   2.309   0.899  0.2827 -0.1976  0.5917
26927W        W43774  14.931   9.572  13.984  0.2396 -0.1263  0.1462
26928W        W43775   0.024   7.204   9.931 -0.2507 -0.4396  0.1987
26929W        W43776   4.196  16.206   4.374 -0.0156  0.2222 -0.3149
26930W        W43777   8.856   7.030  11.297  0.1786  0.0257  0.4537
26931W        W43778   3.222   0.893   5.286 -0.0622 -0.0283  0.0493
26932W        W43779  18.969  19.837   0.889  0.1061 -0.2407 -0.1299
26933W        W43780  18.287  10.646   5.265 -0.2443  0.1764  0.2572
26934W        W43781   3.617   7.036  13.350  0.2818  0.1539 -0.0987
26935W        W43782  18.164  11.802  10.557  0.0482 -0.5069  0.0699
26936W        W43783   6.413   9.185  13.213  0.1483 -0.1312 -0.1012
26937W        W43784  17.566   7.643  11.042 -0.2226 -0.1074 -0.0249
26938W        W43785   2.412  15.771  10.458  0.0747  0.3090 -0.0912
26939W        W43786  11.951  18.696  13.031 -0.0003  0.2345 -0.1837
26940W        W43787  15.644  10.257   0.095  0.0841  0.0460 -0.1956
26941W        W43788   1.911  19.767   3.530 -0.0850 -0.1438  0.0859
26942W        W43789  10.983   8.663   3.251  0.1822  0.2308  0.0131
26943W        W43790   2.654  19.144   0.150 -0.0363 -0.0732 -0.2297
26944W        W43791  16.652   0.785   4.904 -0.0182  0.1871  0.0644
26945W        W43792  15.656   7.805   3.889 -0.1050  0.1604 -0.2945
26946W        W43793   7.076   0.651  13.968  0.1388  0.0522 -0.2483
26947W        W43794   2.418   7.817   4.287  0.3432 -0.3045 -0.1362
26948W        W43795   0.429   2.179  12.351 -0.2223 -0.1653  0.2660
26949W        W43796   7.411  19.371   3.619 -0.1421  0.2695  0.0957
26950W        W43797  16.681  13.235   4.334  0.0917 -0.1078 -0.1252
26951W        W43798  13.996  18.075  11.632  0.4154 -0.0596 -0.1687
26952W        W43799   5.390  15.348  12.747 -0.0922  0.4582 -0.0685
26953W        W43800  19.602   1.344  10.067  0.4188 -0.2836 -0.2375
26954W        W43801  18.496  12.922  12.709  0.0620  0.1499  0.1167
26955W        W43802  16.785  18.719  12.387 -0.3396  0.4275  0.2278
26956W        W43803  12.424  14.095   1.581 -0.0282  0.3342 -0.0645
26957W        W43804   3.023  17.293  10.228  0.1834  0.0215  0.0182
26958W        W43805   9.951   4.264  13.892  0.0565 -0.0034 -0.0726
26959W        W43806   5.846   9.858  14.161  0.3192  0.1668  0.0515
26960W        W43807   5.970  16.393  10.611 -0.1424 -0.0676  0.0885
26961W        W43808  12.797  12.462   2.269 -0.5045 -0.1520  0.2880
26962W        W43809   8.580  11.320  13.246  0.0703 -0.1028  0.0976
26963W        W43810   0.647   3.818   4.577 -0.4483  0.0460 -0.1259
26964W        W43811  12.471  11.239   2.915 -0.0608  0.2466  0.2611
26965W        W43812  11.050   6.512  10.407  0.2793 -0.0634 -0.0730
26966W        W43813   1.272  14.709   0.866 -0.0424  0.0529 -0.1055
26967W        W43814   3.697  18.881  13.845 -0.2481  0.0873  0.2777
26968W        W43815  18.414  10.660  14.105  0.2638  0.1410  0.4325
26969W        W43816  13.311   4.808   9.977 -0.2106  0.3101 -0.1822
26970W        W43817  14.428  13.934   3.645  0.0535  0.0589  0.2052
26971W        W43818   1.256   6.154  10.156  0.0556  0.1708 -0.0992
26972W        W43819   2.292   3.226  12.321  0.1540  0.0834 -0.2514
26973W        W43820   1.952  18.209  11.506 -0.0816  0.0122  0.2970
26974W        W43821   1.371  12.873  13.759 -0.2588 -0.0369 -0.0298
26975W        W43822   7.728   7.524   4.207  0.0920 -0.2334 -0.1094
26976W        W43823  18.134   3.447  13.436  0.2665 -0.2621  0.1053
26977W        W43824  18.153   2.246   2.737  0.0636 -0.2713 -0.1467
26978W        W43825  10.063  17.732   4.340 -0.3063  0.0372  0.2565
26979W        W43826  12.909   2.690   5.169 -0.3066 -0.2149  0.0941
26980W        W43827   9.159  11.708  10.272  0.0029 -0.3232  0.0265
26981W        W43828  11.287   9.961   4.119  0.2503 -0.1332 -0.2448
26982W        W43829  11.945  10.305  11.223 -0.2398  0.2343  0.1498
26983W        W43830  10.964  13.912   1.155  0.1454 -0.0670  0.2876
26984W        W43831   5.389   0.101   9.443  0.1372 -0.0450 -0.0934
26985W        W43832   4.690  14.601   4.733 -0.1915  0.1782  0.4179
26986W        W43833   9.823   0.946  12.596 -0.1556  0.0383  0.2141
26987W        W43834   8.121   3.928  11.956 -0.1651 -0.0160 -0.0481
26988W        W43835  14.877  15.130  13.931  0.1077 -0.2431 -0.1598
26989W        W43836  18.800   7.653   1.866 -0.2947  0.2078  0.2248
26990W        W43837  19.303   8.950  11.830 -0.2829  0.1581 -0.1446
26991W        W43838  10.188   4.958   0.269  0.2796  0.2270  0.0599
26992W        W43839  10.162   4.961   2.961 -0.1653  0.0511 -0.1377
26993W        W43840   1.409   2.397   4.500 -0.2344  0.2214 -0.0458
26994W        W43841   0.876  14.773   0.545  0.0377 -0.1170  0.2048
26995W        W43842   2.997  14.069  12.005 -0.0570  0.0624 -0.0290
26996W        W43843  12.534   1.003   1.603 -0.3497 -0.1005  0.1594
26997W        W43844   8.622   2.200  12.104 -0.0571  0.2254 -0.2185
26998W        W43845   2.653  18.057  13.467 -0.1278  0.1047  0.0942
26999W        W43846  19.885   6.167   4.094 -0.0571 -0.1892 -0.3164
27000W        W43847   9.359  11.142   0.208 -0.0462  0.1049  0.1614
27001W        W43848   7.446   1.445  11.170  0.1488 -0.1948  0.0938
27002W        W43849   3.391   0.345  14.085 -0.3358  0.0662 -0.2612
27003W        W43850   8.546  15.378  12.541  0.4200 -0.0504 -0.1680
27004W        W43851  14.799   9.633   4.181  0.2379  0.0548 -0.2424
27005W        W43852   3.714  14.025  13.696  0.3083 -0.1387 -0.1991
27006W        W43853   7.782  11.734  10.510  0.1550 -0.0478 -0.0239
27007W        W43854   7.652  12.881  12.715  0.1804 -0.2453  0.0347
27008W        W43855  11.441  13.422   3.462 -0.0817 -0.5919  0.4121
27009W        W43856   7.441  14.064  11.741  0.0350 -0.2780 -0.2017
27010W        W43857   1.568   4.898  10.041  0.1551  0.0401  0.0662
27011W        W43858  16.246  15.929  13.302  0.0717  0.3025 -0.2514
27012W        W43859  19.297   3.517   1.628 -0.1565  0.0285 -0.3519
27013W        W43860  18.960   8.998  12.242 -0.0538 -0.1315 -0.1484
27014W        W43861  10.761   1.169  10.686  0.1255 -0.0498 -0.0341
27015W        W43862   4.540   2.463   9.698 -0.0847 -0.0587  0.0535
27016W        W43863  18.943  19.797  12.492 -0.2493 -0.1175  0.0371
27017W        W43864   9.645  18.219   3.386 -0.0686 -0.2926 -0.3554
27018W        W43865  15.011   4.257   1.900  0.4614  0.0392 -0.0075
27019W        W43866   7.993   0.468  12.843  0.1028  0.3468 -0.2228
27020W        W43867   2.028  17.896   3.754 -0.1221  0.0354 -0.1674
27021W        W43868  14.604  17.679   2.909  0.6556  0.1143  0.0874
27022W        W43869   0.543   4.678   5.147 -0.1035 -0.2217  0.1539
27023W        W43870   3.919  18.749  12.544  0.0880  0.1746  0.0453
27024W        W43871  14.628  15.472   2.788  0.1751 -0.1627  0.3758
27025W        W43872   6.678   9.726  13.358  0.1903  0.0309  0.0028
27026W        W43873  17.727  13.935   0.158 -0.0163  0.2395 -0.1908
27027W        W43874   6.305  19.084   3.313  0.0572  0.1589  0.1151
27028W        W43875  18.884  18.389   0.831  0.2298 -0.1960 -0.0946
27029W        W43876   4.286  17.756   9.994 -0.0122 -0.2950 -0.3444
27030W        W43877  16.560   6.647  11.499  0.0680 -0.0037  0.1209
27031W        W43878   7.954  14.609  10.976  0.0071 -0.1281  0.0539
27032W        W43879  15.419   8.207  10.548  0.1335  0.2778  0.0924
27033W        W43880  17.067  13.850  11.861 -0.2402  0.2448  0.0182
27034W        W43881  17.740   7.522   1.534  0.0925 -0.3950 -0.2304
27035W        W43882  16.867   1.043   3.635  0.1441 -0.1511  0.0983
27036W        W43883  15.212  13.325   1.463  0.2080 -0.1554 -0.2412
27037W        W43884  16.622  19.488   4.845 -0.0320 -0.1350  0.1267
27038W        W43885   9.814  10.427  12.606 -0.0382 -0.2595  0.0624
27039W        W43886  17.618   3.238   0.025 -0.2664 -0.2308  0.1625
27040W        W43887  12.320   0.399   3.800  0.1192  0.2359  0.3766
27041W        W43888  15.970   6.667   9.726  0.3247  0.2066 -0.2171
27042W        W43889   1.961   3.385   3.647  0.2922 -0.1595  0.0634
27043W        W43890   9.162   8.203   0.016  0.0549 -0.1215  0.0294
27044W        W43891  15.930   8.463   1.278 -0.0247 -0.0722 -0.1467
27045W        W43892   5.806   5.611   9.988 -0.1478  0.2882  0.1300
27046W        W43893   5.827   2.735   2.612  0.0374 -0.2012  0.0431
27047W        W43894  16.794   9.481   4.192  0.0040  0.0194  0.3919
27048W        W43895  13.531  19.034  10.600 -0.0495  0.0171  0.1093
27049W        W43896  10.239   5.383   2.668  0.2095  0.3229  0.4174
27050W        W43897  19.712   9.905   0.471 -0.0332  0.2538 -0.4113
27051W        W43898   3.975   6.087  13.918 -0.1759 -0.3431 -0.0407
27052W        W43899   5.988   3.552  13.874  0.4529  0.0543  0.3252
27053W        W43900  17.163   8.528  10.184  0.0416  0.1185 -0.0314
27054W        W43901   6.276  18.863   4.538 -0.0271  0.0541 -0.0352
27055W        W43902   0.791   1.262  12.000 -0.2977  0.3032  0.1516
27056W        W43903   2.751  15.353  10.565 -0.1347 -0.1948 -0.1395
27057W        W43904   7.261  11.998   1.887  0.1142 -0.0184 -0.3037
27058W        W43905   3.271   0.150  10.620 -0.0119  0.0514  0.2156
27059W        W43906   6.590   6.860   4.722  0.0483  0.2692 -0.2032
27060W        W43907   2.973   1.849   4.399  0.0614 -0.0842  0.0810
27061W        W43908  10.136  12.283   1.906 -0.3258 -0.2406  0.1402
27062W        W43909  19.037   3.153   4.112  0.0151  0.2048 -0.3123
27063W        W43910   5.021   2.624  12.268 -0.2486  0.3472  0.0268
27064W        W43911   5.001   8.112  11.478 -0.2230  0.1044  0.0894
27065W        W43912  14.550  16.218   4.009  0.0555 -0.1553 -0.1172
27066W        W43913   3.286   0.800   1.417 -0.0765  0.0644 -0.0682
27067W        W43914   5.856   3.924  12.245 -0.1791  0.0746  0.3505
27068W        W43915  16.083  16.308  11.629 -0.0881 -0.4785 -0.0044
27069W        W43916   6.056  10.777  10.037 -0.0284 -0.0423 -0.0994
27070W        W43917  16.724  19.360  12.603 -0.1093  0.0202  0.1589
27071W        W43918  11.696  11.893  13.211 -0.0998 -0.0738  0.2955
27072W        W43919   2.230  18.225  12.376 -0.3084  0.0066  0.1468
27073W        W43920  14.608   7.590  14.249 -0.1023  0.0799  0.1779
27074W        W43921   4.816   3.520  10.809  0.0516 -0.2084  0.0421
27075W        W43922   2.797   0.206   0.430  0.1283  0.0904 -0.1816
27076W        W43923  19.588   5.255  11.418  0.3431 -0.1546  0.0618
27077W        W43924   4.168   8.625   4.731 -0.3553  0.1441 -0.4881
27078W        W43925  10.759  15.271  10.212  0.0202  0.1309 -0.2607
27079W        W43926  11.555  18.561   2.837  0.0825  0.0934  0.1187
27080W        W43927  18.274   6.722  11.772  0.0621 -0.2845 -0.0170
27081W        W43928  17.116   3.455  14.295 -0.0015  0.2299 -0.1338
27082W        W43929   6.042   0.395   8.649 -0.2081 -0.5449 -0.0832
27083W        W43930  17.736  11.881  12.339 -0.2748 -0.3438  0.4180
27084W        W43931  11.493  13.120   0.402 -0.3117  0.0435  0.2095
27085W        W43932   6.490   5.081  14.255  0.0096 -0.2897  0.3026
27086W        W43933   2.735   7.376   3.601  0.1061 -0.0443 -0.2118
27087W        W43934  17.239  13.499   5.588 -0.0017  0.2897 -0.2854
27088W        W43935   6.830  16.582   1.996 -0.0759  0.1837 -0.0206
27089W        W43936  12.846   4.178   4.539 -0.0397  0.1674  0.0711
27090W        W43937   4.525   7.630  13.857 -0.0731  0.4546 -0.1770
27091W        W43938   4.524  10.115   4.294  0.1646 -0.2173  0.2105
27092W        W43939   8.921  13.555  12.400  0.1201  0.2376 -0.3355
27093W        W43940  14.983   9.412   0.693  0.0809  0.2206 -0.0629
27094W        W43941   4.164  19.769   0.347 -0.1474 -0.0694  0.4563
27095W        W43942   3.022   9.544  12.414 -0.1080 -0.0343  0.4374
27096W        W43943  19.396   0.766  11.736  0.1627  0.0613  0.0073
27097W        W43944  19.009   3.356  12.369 -0.2165 -0.1317 -0.0145
27098W        W43945  12.812  19.669   3.007  0.0966 -0.1729  0.0846
27099W        W43946  12.178   0.203   0.757 -0.0038  0.2137 -0.0854
27100W        W43947   1.457  11.669   1.430 -0.2182 -0.0639 -0.0142
27101W        W43948   9.619   7.870   9.872 -0.0376  0.0979  0.2054
27102W        W43949  15.693   2.942   1.167  0.0531  0.0518 -0.2044
27103W        W43950   1.669   7.653  14.072 -0.2707 -0.0507  0.1590
27104W        W43951   7.279  19.702  14.205 -0.1997 -0.0953 -0.0067
27105W        W43952  11.139   1.728  11.235  0.0414 -0.2011 -0.2433
27106W        W43953   9.967  14.757  13.124 -0.0856  0.0112 -0.0567
27107W        W43954  13.799  13.377  13.791 -0.5148 -0.0571  0.1036
27108W        W43955  10.089   5.278  13.863 -0.1468  0.2382 -0.3461
27109W        W43956  16.342  18.815  10.702  0.1070  0.0961 -0.0470
27110W        W43957  14.737  11.716   2.784 -0.0606  0.1134  0.1067
27111W        W43958   1.190  17.048   3.142 -0.0606  0.2910 -0.3531
27112W        W43959   5.267  10.076  13.349  0.0836  0.0713  0.0304
27113W        W43960  17.258  14.001  12.835  0.1670 -0.1295 -0.0685
27114W        W43961   2.616  13.948  11.746 -0.0813  0.1019  0.0945
27115W        W43962   7.128  12.122   3.842  0.4312 -0.1567 -0.1218
27116W        W43963   6.363   3.570  10.373  0.1060  0.1718 -0.0405
27117W        W43964   0.881   3.264  11.520  0.0861  0.1392 -0.0457
27118W        W43965   2.292   5.054   4.628 -0.2005  0.0055 -0.0508
27119W        W43966   7.966   2.838   0.975  0.0408 -0.0569 -0.0545
27120W        W43967  15.362  10.614  14.193 -0.2057 -0.1259  0.1322
27121W        W43968   9.729   3.197  12.260  0.0420  0.1257  0.0261
27122W        W43969  19.643  18.579  11.923  0.1888  0.2026 -0.0569
27123W        W43970   4.794  13.311   1.949  0.2881  0.2481  0.2171
27124W        W43971  14.893   8.657  12.504  0.3096 -0.1544 -0.1332
27125W        W43972  15.641  17.332  14.115  0.2542 -0.0611 -0.3180
27126W        W43973   8.686   6.748  13.399 -0.1021  0.3505 -0.3939
27127W        W43974   7.317  12.193   5.167  0.3190  0.1439 -0.1179
27128W        W43975  11.768   6.591  12.480 -0.4209  0.3680  0.1933
27129W        W43976   6.392  17.996   4.428 -0.0377 -0.1328  0.1367
27130W        W43977  11.293  18.217   0.957 -0.0440  0.0113  0.2343
27131W        W43978  11.264   8.825   1.438  0.0027 -0.0785 -0.1140
27132W        W43979   0.396   8.503   4.160  0.2706  0.0557 -0.0183
27133W        W43980   1.030  18.374  13.861 -0.1627  0.0192 -0.0057
27134W        W43981   7.554   1.621   4.577 -0.2260 -0.0235  0.2272
27135W        W43982   8.153  13.338   4.864 -0.1074 -0.1628 -0.3008
27136W        W43983  16.152  16.327   5.079 -0.2945  0.0269  0.2898
27137W        W43984   5.893  16.917  10.730 -0.2565 -0.1522  0.3294
27138W        W43985  15.557  17.824   1.629  0.1520 -0.2958 -0.0431
27139W        W43986  15.234  14.705   2.420  0.1779  0.1479  0.3442
27140W        W43987   2.961   0.758  13.427 -0.2396  0.2904 -0.4868
27141W        W43988  17.557   1.514   2.904  0.0008 -0.0798 -0.1001
27142W        W43989   8.017  18.741   4.058 -0.1451  0.0660 -0.2451
27143W        W43990  12.151   9.452  12.707  0.3659  0.2192  0.0842
27144W        W43991  15.999  17.890   3.068 -0.1196 -0.2210  0.0577
27145W        W43992  12.806  15.615   0.629 -0.2537 -0.0473 -0.1851
27146W        W43993   4.700  13.580   1.123 -0.1047  0.0576  0.1976
27147W        W43994   4.216   1.141  12.884 -0.1151  0.0192 -0.0518
27148W        W43995   7.839   0.031  10.245 -0.0685  0.0517 -0.1812
27149W        W43996   8.348  12.868  13.769 -0.3015 -0.1771  0.0653
27150W        W43997  14.730   2.212   2.535 -0.0606 -0.0621 -0.0130
27151W        W43998   5.131  16.254  11.401 -0.2556 -0.1927  0.0829
27152W        W43999  14.437  14.394  10.354  0.0242 -0.0152 -0.1343
27153W        W44000   3.063   1.189   2.855 -0.3811  0.0268 -0.0144
27154W        W44001   2.421   2.346   4.810 -0.1696  0.1815  0.1777
27155W        W44002   9.707   3.471   9.299 -0.1051  0.0730 -0.4579
27156W        W44003  15.752  14.874   9.404 -0.1147 -0.3133 -0.3239
27157W        W44004   2.946  13.033   0.797  0.0184  0.0304  0.2574
27158W        W44005  14.127  18.047  14.107 -0.4457 -0.0323 -0.0733
27159W        W44006   7.082   4.544   2.737  0.0394  0.1420 -0.0738
27160W        W44007   0.088   6.980  13.131  0.0696  0.1782  0.3060
27161W        W44008   1.842   0.502  12.680 -0.1215 -0.1417 -0.1711
27162W        W44009  19.345   2.221   3.709  0.1042 -0.1859  0.0088
27163W        W44010   9.343  17.059   9.315 -0.1990 -0.1160 -0.2478
27164W        W44011  17.047   9.628   0.258  0.0211  0.1647 -0.0865
27165W        W44012   3.934  19.708  11.863 -0.3369 -0.2644 -0.0369
27166W        W44013  13.000   6.506  13.726  0.1158  0.1976  0.2371
27167W        W44014  11.886   4.469  10.351 -0.0469 -0.0529 -0.1394
27168W        W44015   4.561  16.629  11.533 -0.1806  0.1377 -0.1442
27169W        W44016   5.217   4.569  13.678  0.1697  0.0074  0.0889
27170W        W44017   1.831   7.222   0.439  0.2302  0.0309  0.1496
27171W        W44018  19.601   2.953   4.912 -0.2161  0.0735 -0.0161
27172W        W44019   1.499   8.802  10.105  0.2756 -0.0175  0.0344
27173W        W44020   4.031   5.507  12.880  0.1162  0.2432  0.0445
27174W        W44021   4.400   3.758  11.628 -0.2173  0.0210 -0.3269
27175W        W44022  18.714  13.615  11.142  0.0611  0.0301  0.0341
27176W        W44023   1.133  13.313  13.567 -0.0793  0.1607 -0.1450
27177W        W44024  15.072  10.629   9.882 -0.0474 -0.3681 -0.0516
27178W        W44025   4.031  10.473   9.813  0.0217 -0.2279 -0.0917
27179W        W44026  17.530   5.611   1.523  0.1014  0.1199  0.1931
27180W        W44027  15.390   0.374   4.577 -0.3711 -0.0684  0.3168
27181W        W44028   2.452   4.905   4.021  0.1308  0.0008 -0.4197
27182W        W44029  18.200   6.570  10.656  0.0049 -0.2064  0.3178
27183W        W44030  10.606  13.865   3.479  0.1131 -0.0413 -0.3593
27184W        W44031   8.643   0.181  12.286 -0.2662 -0.2355 -0.1950
27185W        W44032  12.146  11.706   1.342  0.1806  0.1439 -0.0015
27186W        W44033  18.783  17.118   4.433  0.1725 -0.0501 -0.0835
27187W        W44034   8.892   1.180   9.896  0.2770 -0.1135 -0.1053
27188W        W44035   9.986   5.273  12.976 -0.0919 -0.2133  0.0636
27189W        W44036  12.450   2.096   9.639  0.1101 -0.0715 -0.0366
27190W        W44037   4.309   5.592   9.679 -0.2120 -0.4133 -0.1112
27191W        W44038  10.176  15.218  13.353 -0.3175  0.3006 -0.1250
27192W        W44039   6.372   8.882   0.277  0.2372 -0.3263  0.0188
27193W        W44040   2.416  15.223   0.830 -0.0891 -0.1608  0.0537
27194W        W44041   4.175   6.033   0.562 -0.0215 -0.1408 -0.0126
27195W        W44042   3.404   1.225   1.861  0.0702 -0.4700  0.1239
27196W        W44043  14.228  15.411  13.639  0.2533 -0.0854 -0.1646
27197W        W44044  13.829  17.829   0.110 -0.2031  0.2725 -0.3338
27198W        W44045  13.696   2.881  13.000  0.1286 -0.0495 -0.2155
27199W        W44046   6.736   5.295  12.880  0.0114 -0.2266  0.4385
27200W        W44047   7.417  12.544  13.721  0.3685 -0.3381 -0.2069
27201W        W44048   3.228  19.549  12.952  0.4770 -0.2437 -0.0016
27202W        W44049   2.022   0.254   3.047 -0.0589 -0.0957  0.1512
27203W        W44050   6.668  10.714  11.948 -0.0084 -0.0690 -0.2586
27204W        W44051   2.455  19.827   9.336  0.1215  0.1273 -0.0978
27205W        W44052  13.592  18.848  12.140  0.0782  0.1993  0.0956
27206W        W44053  18.772  15.216  13.681  0.0439  0.0911 -0.2109
27207W        W44054   6.173   0.998  10.305 -0.1708  0.2672  0.0975
27208W        W44055   1.616   3.117   1.425 -0.1911 -0.2003 -0.2519
27209W        W44056  16.924  13.374   2.607 -0.0664  0.0273  0.3278
27210W        W44057  11.820  14.487   5.539 -0.1859  0.2003  0.0320
27211W        W44058   4.774   0.793   2.731  0.3076 -0.1111  0.1931
27212W        W44059  11.237  11.665   3.577 -0.1213  0.3421 -0.0984
27213W        W44060   1.083  14.937  10.890  0.0908  0.3502 -0.0710
27214W        W44061  16.110   9.717   2.576 -0.1568  0.2488 -0.0748
27215W        W44062  12.206   7.334  12.692  0.2261  0.0913 -0.1574
27216W        W44063  11.981   5.245   9.769 -0.0500 -0.0343  0.0454
27217W        W44064   2.316   2.402  10.991 -0.0616 -0.0281  0.3018
27218W        W44065  12.453  14.021  13.082  0.4613  0.0388  0.1400
27219W        W44066   2.158   3.323   1.632  0.2490  0.0023 -0.0554
27220W        W44067  11.495   0.008  13.623 -0.3087  0.2037  0.1614
27221W        W44068   1.217   0.885   1.852 -0.1465 -0.1643  0.2901
27222W        W44069  14.743   8.460  11.444 -0.1878 -0.0655  0.2338
27223W        W44070  16.148   2.293   3.848 -0.1649  0.4521  0.1066
27224W        W44071  11.268   7.711  12.874  0.4152  0.2138 -0.0219
27225W        W44072   5.958   7.699  14.028 -0.0394  0.3821 -0.1468
27226W        W44073   2.409   4.176   1.280  0.0932 -0.2582 -0.0258
27227W        W44074  13.138   8.683  12.407 -0.2702  0.1395 -0.1041
27228W        W44075  14.726   5.964   2.735 -0.1244  0.0479  0.2215
27229W        W44076   3.256  19.400  12.488 -0.0961  0.0249  0.2665
27230W        W44077  12.473  18.209   3.165  0.4225  0.0569 -0.0355
27231W        W44078  14.116   3.081  10.825  0.1444  0.2610  0.2770
27232W        W44079   1.585   1.214   3.572  0.2164  0.0266  0.1962
27233W        W44080  12.725   1.525  11.301 -0.3061 -0.0367 -0.0789
27234W        W44081   5.616   9.625   0.294 -0.0399 -0.2510 -0.0145
27235W        W44082   2.754  16.543  12.492 -0.1229  0.3811  0.0891
27236W        W44083  11.139   2.662  13.628  0.0021  0.3231 -0.0989
27237W        W44084  13.895  11.919   3.070 -0.0230 -0.1397 -0.1006
27238W        W44085  11.989   4.813   0.789 -0.0085 -0.2604 -0.0636
27239W        W44086   9.552   2.189  10.468  0.2104  0.0621 -0.2513
27240W        W44087  17.641  13.868   9.706 -0.0697 -0.1946  0.0075
27241W        W44088   2.059  10.843   3.161 -0.2358 -0.0188 -0.1422
27242W        W44089   1.771  19.297   1.437  0.0976  0.0428  0.0170
27243W        W44090   5.954   1.624   9.544  0.0553 -0.1252 -0.0044
27244W        W44091   5.730   7.526   0.138  0.2555 -0.3077  0.0562
27245W        W44092   4.639   8.629   3.796 -0.0026 -0.1276  0.1360
27246W        W44093   8.092   7.639   4.754  0.0341  0.1648  0.2103
27247W        W44094   9.185  13.864   4.840  0.0439 -0.3781  0.1032
27248W        W44095   8.044   8.440  11.216  0.0856 -0.2189 -0.3159
27249W        W44096  16.843  11.899   2.938  0.1552 -0.1007 -0.2843
27250W        W44097   1.641  19.132  10.274 -0.3398 -0.4568  0.1842
27251W        W44098  13.647   0.945  11.588 -0.0307 -0.1283  0.2824
27252W        W44099  16.948  13.950   3.963  0.2241 -0.1896  0.0601
27253W        W44100  19.478  14.682   4.071  0.0265 -0.1968 -0.0885
27254W        W44101  13.809  14.382  11.362 -0.1966  0.0010  0.1222
27255W        W44102   5.609   0.437  14.178 -0.0627 -0.0654 -0.0565
27256W        W44103  12.532  10.899   3.281  0.0502  0.1805  0.1871
27257W        W44104  18.960   9.281   1.732 -0.3645 -0.2068  0.2835
27258W        W44105   9.486   4.223  13.734 -0.1338 -0.0607  0.3584
27259W        W44106   2.749  19.834  12.783  0.2338  0.4172  0.0582
27260W        W44107  18.224   0.233  13.601 -0.2005 -0.1727 -0.2068
27261W        W44108   8.011  18.358  11.168 -0.2029 -0.1094  0.1665
27262W        W44109   8.337   1.972   3.503  0.0174  0.0001  0.0427
27263W        W44110  19.752  19.783   1.269 -0.1158 -0.1913 -0.0894
27264W        W44111   9.088  18.812   1.273  0.1241  0.0631  0.2738
27265W        W44112   8.920  10.541  12.837 -0.3508  0.1852  0.2474
27266W        W44113   3.978  15.019  11.934 -0.3649  0.3217  0.1440
27267W        W44114   6.303   6.983  11.858 -0.1175 -0.3589  0.0249
27268W        W44115   1.350  10.781   3.524  0.0350  0.1265  0.1578
27269W        W44116  16.321  16.404  10.591 -0.0255 -0.0787 -0.0335
27270W        W44117  14.686  18.072   4.205 -0.0543  0.0591  0.0117
27271W        W44118   0.713  18.286  11.937 -0.0468  0.0219 -0.3447
27272W        W44119  17.988  16.815  13.433 -0.0013  0.0475  0.2182
27273W        W44120   3.722   9.459  10.664  0.3029  0.3971  0.0419
27274W        W44121   5.184  14.324  13.722  0.1573 -0.4166  0.1165
27275W        W44122  18.523  16.692   2.160  0.3593  0.0615  0.1956
27276W        W44123  17.788   8.101   1.199 -0.0364 -0.0315 -0.0684
27277W        W44124  19.435   0.894   0.005 -0.0591  0.0707 -0.2645
27278W        W44125  18.858   0.052   3.484  0.1163  0.0068  0.3256
27279W        W44126   8.577  11.298   9.956 -0.1328  0.1424  0.4371
27280W        W44127   5.892  18.649   8.563  0.2198 -0.1843 -0.1951
27281W        W44128  11.908  10.051   4.362  0.0045  0.2211  0.0854
27282W        W44129  11.550   6.413   4.154 -0.0084 -0.0250  0.0165
27283W        W44130  16.138   1.193  13.459  0.1237 -0.0657  0.6467
27284W        W44131   2.706  12.995   3.220  0.0481 -0.4176 -0.0429
27285W        W44132  15.145  15.032   2.890 -0.1047 -0.0425 -0.0206
27286W        W44133  11.389   9.677   1.157 -0.3715  0.1839 -0.0739
27287W        W44134   2.583  18.817   4.307 -0.1517  0.0423  0.0412
27288W        W44135   7.965   4.146   4.380  0.0328  0.0707 -0.1072
27289W        W44136   6.298   0.983  12.056 -0.3949 -0.1110 -0.1273
27290W        W44137   0.294  11.035   9.164  0.1085 -0.1555 -0.0827
27291W        W44138   5.167   5.957   3.584 -0.0910  0.1190 -0.0845
27292W        W44139   4.453  14.901   5.140 -0.1369 -0.2996 -0.0481
27293W        W44140   3.086  15.073   0.035 -0.0213 -0.1940  0.0850
27294W        W44141   2.523   8.011  11.150 -0.2440  0.0722  0.3631
27295W        W44142   1.706   1.672   2.784 -0.0645 -0.1544 -0.1822
27296W        W44143  12.969  19.742  12.437 -0.0540  0.0957  0.1393
27297W        W44144  12.461  18.477  11.588 -0.1868 -0.0132  0.3926
27298W        W44145  10.044  18.339  10.769 -0.0651  0.1377  0.1591
27299W        W44146   1.832  13.494  14.302 -0.4623 -0.0138 -0.0202
27300W        W44147  18.262  13.290  10.445 -0.2129  0.1524  0.1117
27301W        W44148   9.254  12.751  12.749  0.3977  0.0018  0.2359
27302W        W44149   2.183  12.452  11.294 -0.1639 -0.2249  0.1178
27303W        W44150  17.371  17.683  14.260 -0.0357  0.1221  0.1212
27304W        W44151   9.810   0.039   3.091 -0.1378  0.2461  0.0504
27305W        W44152   2.304  16.166  12.730  0.0510  0.0715  0.0059
27306W        W44153  19.375   0.832   0.812  0.1407 -0.3496  0.1376
27307W        W44154  19.506   4.986  11.870 -0.0220  0.1123 -0.0000
27308W        W44155  11.215  18.174   3.594 -0.2013 -0.4706 -0.3308
27309W        W44156   8.800  13.098  12.645 -0.0889  0.2626  0.2835
27310W        W44157  12.403   1.462   2.770 -0.0998 -0.0820 -0.3225
27311W        W44158   3.786   0.883  12.834 -0.0417 -0.3375 -0.1071
27312W        W44159   3.882   7.681   2.575  0.2461  0.1540  0.2723
27313W        W44160  12.204   2.067   4.744 -0.1054  0.0035 -0.3501
27314W        W44161  11.312   0.862  12.071 -0.1789 -0.2835 -0.1137
27315W        W44162  12.121  13.864   3.820  0.3813 -0.1580 -0.0923
27316W        W44163  11.131  17.182   1.116 -0.2426 -0.1941 -0.0849
27317W        W44164  15.622  15.185  13.046 -0.0125  0.0970 -0.1596
27318W        W44165   3.309  17.543  12.238 -0.1984 -0.1111 -0.1345
27319W        W44166   5.427  16.928   4.328 -0.2620 -0.2638  0.0092
27320W        W44167  15.918   3.979  10.678  0.2055  0.2279 -0.1474
27321W        W44168   7.125  17.635   2.209 -0.1019  0.1800 -0.0861
27322W        W44169  15.914   3.369  13.283  0.2754 -0.1686  0.2414
27323W        W44170   3.397   2.578   1.643 -0.0618  0.0822 -0.0451
27324W        W44171  13.879  15.635  10.097  0.2833  0.0387  0.0311
27325W        W44172  14.633  16.471   1.241 -0.1679 -0.1905  0.0271
27326W        W44173  15.130   5.867  11.305  0.1469  0.1511  0.1696
27327W        W44174  12.695  10.558   1.712 -0.0588 -0.2196 -0.2425
27328W        W44175  18.423   0.712  10.162 -0.1630  0.0829  0.3463
27329W        W44176   8.540   0.841   0.109  0.1090 -0.3976 -0.2911
27330W        W44177   8.336  13.872   0.545 -0.1508  0.0673 -0.0276
27331W        W44178  10.620   3.161  11.311  0.0500  0.0262 -0.1670
27332W        W44179   4.366   7.603   1.370 -0.1829 -0.2496  0.1687
27333W        W44180  12.308   8.580   3.040  0.0573  0.1263 -0.1974
27334W        W44181  11.348  11.508   0.868 -0.0475  0.1463  0.3714
27335W        W44182   6.053  18.281  10.234  0.0719  0.7272  0.1072
27336W        W44183  18.750  19.256   2.318  0.3266  0.0773 -0.2410
27337W        W44184  11.764   5.369   4.761  0.1378 -0.1842  0.1674
27338W        W44185   7.343   6.644  10.630  0.1333 -0.0675  0.1032
27339W        W44186  19.472  16.422  10.623 -0.0274  0.1011  0.0821
27340W        W44187  14.008   3.620  10.698 -0.2012 -0.1917  0.3729
27341W        W44188   8.778   1.944   3.178  0.0396  0.4610  0.0449
27342W        W44189   2.721  13.411   0.164 -0.0895  0.2069  0.1511
27343W        W44190   1.284   8.306  12.725 -0.2326  0.1327 -0.1519
27344W        W44191   7.494   2.422  13.213  0.1540  0.0576  0.3658
27345W        W44192   5.591  16.328  12.621  0.1077  0.0516 -0.1873
27346W        W44193   4.352  12.299   2.680  0.0871  0.3095 -0.2181
27347W        W44194  10.339   0.783   1.163  0.2044  0.1968  0.1430
27348W        W44195   5.114   8.951  12.754 -0.1623  0.1187 -0.1572
27349W        W44196   1.704   6.396   2.948  0.0944 -0.2431  0.0932
27350W        W44197  14.127  10.900   2.945 -0.3879 -0.1311  0.1063
27351W        W44198   0.398  14.206  12.910  0.1082 -0.1581 -0.1774
27352W        W44199  10.739   8.460  10.546 -0.0218  0.1602  0.0918
27353W        W44200   4.362   2.149  10.979  0.2502  0.1844  0.1239
27354W        W44201  15.016  17.201  12.043 -0.1463  0.0807  0.0328
27355W        W44202  18.758   7.881   9.695 -0.0067 -0.0489  0.0231
27356W        W44203  11.452   3.532  10.580  0.1095  0.0323 -0.2106
27357W        W44204   6.053   2.046   4.863  0.0848  0.3668 -0.1307
27358W        W44205  15.099  19.873  14.094  0.0796 -0.2400 -0.1809
27359W        W44206  12.615   3.398   5.594  0.2953 -0.1869  0.1278
27360W        W44207   7.929  16.258  14.302 -0.3374 -0.1399  0.3368
27361W        W44208  11.050  12.063   4.554  0.3228  0.1749 -0.1262
27362W        W44209   3.998  18.519  13.554 -0.3074  0.3485  0.3635
27363W        W44210  19.049   2.262   0.350 -0.4275  0.1872  0.3071
27364W        W44211  11.080  13.967   2.141  0.3246 -0.3943  0.4762
27365W        W44212   6.305  17.776  14.150 -0.1086 -0.1444 -0.2057
27366W        W44213   8.241   1.734  11.892 -0.2685  0.3494  0.0573
27367W        W44214   5.658  13.433  13.909  0.3704 -0.0166 -0.2715
27368W        W44215   8.630   3.102   3.782  0.1166 -0.1187  0.4240
27369W        W44216  15.037   8.883   1.046 -0.1203  0.0907  0.0304
27370W        W44217  16.728   4.676  10.934 -0.1067 -0.0821  0.0519
27371W        W44218  16.465  10.419  13.249 -0.1664 -0.0532  0.0458
27372W        W44219  10.830   3.056   1.972 -0.3600  0.2931  0.1788
27373W        W44220  10.330  19.252   0.114 -0.1245  0.2842  0.1109
27374W        W44221  16.416  12.557  13.907  0.0069 -0.2095 -0.3247
27375W        W44222  12.065   2.498  13.319  0.2404  0.1827 -0.2363
27376W        W44223  18.776  15.468   0.574  0.3232  0.2005 -0.2286
27377W        W44224   6.247   7.951   4.459 -0.2407  0.0900 -0.4519
27378W        W44225   7.038  10.710   2.579 -0.1062  0.2007 -0.0390
27379W        W44226   7.645   6.162   4.352 -0.2073 -0.0245  0.1315
27380W        W44227   1.043   6.872   0.686 -0.3190 -0.0533 -0.2314
27381W        W44228  10.190   3.889   3.633  0.0990 -0.0904 -0.0002
27382W        W44229  19.182   1.678   3.847 -0.0093 -0.0598 -0.1129
27383W        W44230   1.914  15.891   0.611 -0.1207 -0.2215  0.3168
27384W        W44231   9.317  17.237  11.353 -0.1427  0.1259  0.3322
27385W        W44232  10.074   2.864  12.036 -0.2590  0.1677 -0.0960
27386W        W44233  15.738  12.356   4.018  0.0712  0.0740  0.0878
27387W        W44234  12.604   3.323   0.290  0.0693 -0.4649  0.2024
27388W        W44235  15.842  15.652  12.937 -0.1530 -0.3608 -0.0519
27389W        W44236  15.892   7.440  12.916  0.0951  0.1271 -0.2856
27390W        W44237   0.237  15.367   2.397 -0.2102  0.0313  0.1257
27391W        W44238   2.942  17.083   0.110 -0.0807  0.0212  0.0612
27392W        W44239   5.693   6.196   4.828  0.0240 -0.0488 -0.0641
27393W        W44240   1.073  14.716  11.354 -0.3040  0.2290 -0.0125
27394W        W44241  19.175  16.611  14.141 -0.0385  0.1593 -0.2392
27395W        W44242   0.464   4.919  14.003 -0.0064 -0.0617 -0.1671
27396W        W44243   3.788   2.928   0.648 -0.2349  0.1207 -0.0110
27397W        W44244  10.005  16.687  11.444  0.0539 -0.1788 -0.2110
27398W        W44245  12.968  17.172   4.020 -0.1962  0.0969  0.2514
27399W        W44246  10.555   4.780   2.670  0.0609 -0.0985 -0.0516
27400W        W44247   1.329  14.524   0.362 -0.1795  0.0749  0.0446
27401W        W44248   9.710   8.880  14.268  0.4233  0.0353  0.2618
27402W        W44249  14.790  12.293   0.393 -0.2087  0.1219  0.0656
27403W        W44250  15.034  13.498   0.602  0.2316 -0.1716  0.0474
27404W        W44251   2.184   0.202  11.427 -0.0857 -0.0573  0.2878
27405W        W44252  17.296  13.557  13.738 -0.1576  0.0492  0.2829
27406W        W44253   2.216  13.808   0.823 -0.0760  0.1501 -0.0553
27407W        W44254   2.974  17.346   3.020  0.1834 -0.0704 -0.1918
27408W        W44255   7.633   3.696  12.776 -0.1580 -0.1125  0.0413
27409W        W44256   0.984  12.869  10.513  0.1042 -0.3235 -0.1458
27410W        W44257   7.376   3.457   0.012 -0.1260 -0.2194  0.0853
27411W        W44258  18.838   1.908  13.151 -0.1860  0.0500 -0.1415
27412W        W44259   9.121   7.722  14.209 -0.1680  0.0748 -0.1828
27413W        W44260  11.300  11.931  11.466 -0.0564  0.3162 -0.0655
27414W        W44261   3.217   8.995   0.410 -0.0141 -0.1391 -0.4972
27415W        W44262  17.837  14.700  10.462 -0.0440 -0.0076  0.1362
27416W        W44263  18.685  12.645  13.523 -0.1432  0.0276 -0.1744
27417W        W44264   2.025  17.912  12.062 -0.1622  0.1102  0.0005
27418W        W44265  15.601  11.369  13.758 -0.0534  0.2673 -0.1414
27419W        W44266   9.863  13.975   9.056  0.3296  0.0325 -0.0673
27420W        W44267  16.304   4.032   3.818 -0.0735  0.1447 -0.0237
27421W        W44268  12.227   8.384  11.736 -0.0320 -0.2175 -0.3773
27422W        W44269  11.732  12.321   2.971  0.2781 -0.0071  0.4433
27423W        W44270   2.773   1.271   1.580 -0.0421 -0.3337 -0.1920
27424W        W44271  18.685   3.534   3.809  0.2442 -0.0595 -0.0231
27425W        W44272  13.771  17.396  11.543  0.0956  0.2311  0.3143
27426W        W44273   8.393   1.127  10.013 -0.0332 -0.3074  0.1502
27427W        W44274   6.852  19.769   1.377 -0.2421  0.2885  0.1450
27428W        W44275   4.458  16.577   4.722 -0.2460 -0.0856  0.2520
27429W        W44276  12.588  18.932   3.733  0.3090 -0.1173  0.1941
27430W        W44277  10.851   9.902  13.021 -0.1248 -0.1387 -0.0940
27431W        W44278   9.036   8.899   3.552 -0.4656  0.3671 -0.3415
27432W        W44279   0.071   1.500  12.946  0.2849 -0.0787  0.0868
27433W        W44280   2.314  11.282   3.357  0.0400  0.1872 -0.1542
27434W        W44281  11.411   1.411   1.970  0.1572  0.0622 -0.2218
27435W        W44282  11.740   7.209   4.216 -0.1079 -0.1389  0.2037
27436W        W44283  14.797   1.007   0.701  0.2250  0.2382 -0.0766
27437W        W44284  17.795   7.418  12.910 -0.0247 -0.0353  0.2979
27438W        W44285  19.231  18.285  13.507  0.0811  0.1488 -0.0591
27439W        W44286   5.676   8.353  13.418  0.0548  0.0868 -0.1950
27440W        W44287   3.382  17.538   4.186  0.0106 -0.4042  0.1720
27441W        W44288  18.699   7.303  10.724  0.0025 -0.0024  0.2127
27442W        W44289  14.769   0.555   1.956  0.1784 -0.0237  0.1220
27443W        W44290  10.980  11.957  10.251  0.0572  0.0852  0.1084
27444W        W44291   4.556   1.131  11.882  0.1001  0.0051  0.0842
27445W        W44292   9.621   4.241   2.486 -0.0878 -0.2881 -0.2074
27446W        W44293  16.697  13.752   4.363  0.0835 -0.0674 -0.3258
27447W        W44294  10.771  17.184   3.052  0.1337 -0.1618 -0.3695
27448W        W44295  13.468   6.787   4.074  0.0807 -0.0133 -0.1943
27449W        W44296  13.309   9.068   0.254  0.0150 -0.1161  0.0925
27450W        W44297  11.330  18.123  10.107  0.1228 -0.2874  0.1007
27451W        W44298   9.768   9.121  12.804 -0.1440 -0.3243 -0.0681
27452W        W44299  11.666  10.239   0.245 -0.0365 -0.2805 -0.0516
27453W        W44300   6.268  14.537   0.207 -0.0320 -0.0796  0.0104
27454W        W44301   2.595   9.001   4.005 -0.1661  0.0872 -0.0500
27455W        W44302  13.842  18.679   4.362 -0.0177 -0.1958  0.0977
27456W        W44303  14.986   3.148   3.219  0.2875  0.5612  0.0158
27457W        W44304  17.644  18.145  10.344  0.0850 -0.0123 -0.0511
27458W        W44305  18.014   8.319   3.849 -0.1257 -0.1017  0.0315
27459W        W44306   9.339  10.208  12.643 -0.3687  0.0188 -0.1816
27460W        W44307   9.821   0.363  10.559 -0.1275  0.3684  0.4368
27461W        W44308   3.307  16.697   3.529  0.3320 -0.1630  0.1590
27462W        W44309  15.127  11.522   3.232  0.4052 -0.3257 -0.2620
27463W        W44310   5.457   2.446   4.690 -0.0389 -0.1614  0.1501
27464W        W44311   6.241  18.257   2.222 -0.3394  0.1095 -0.0026
27465W        W44312  19.278  10.222   3.334 -0.0787 -0.1703  0.0574
27466W        W44313  11.354   9.246   9.562  0.4529  0.0269  0.0295
27467W        W44314  11.155   6.700   3.366 -0.1783 -0.1288 -0.0746
27468W        W44315  16.027   0.171  13.681 -0.0689  0.1849  0.1124
27469W        W44316  15.442   0.975   4.475  0.3231 -0.1373  0.1729
27470W        W44317  11.754   2.613  12.367 -0.2606 -0.1642  0.1801
27471W        W44318   3.261   6.801   1.415  0.3710  0.2573 -0.1925
27472W        W44319   0.230   8.946  10.781 -0.1854 -0.0235  0.0182
27473W        W44320   5.818  18.608  12.988  0.1491  0.1285 -0.0611
27474W        W44321   2.347   3.246   5.062 -0.0888 -0.2641  0.1262
27475W        W44322   2.195  11.930  10.340  0.0822 -0.3290  0.1368
27476W        W44323  15.072   7.101  11.606 -0.2305 -0.2411  0.0646
27477W        W44324  11.481   7.669  10.454  0.2483  0.4038  0.0546
27478W        W44325   6.185   0.853  13.328  0.0804  0.5111 -0.1574
27479W        W44326   7.161  15.013   1.309 -0.0621  0.0992  0.1710
27480W        W44327   3.428  17.637   2.650 -0.0075 -0.3308  0.1257
27481W        W44328   6.471   3.581  13.923 -0.0561 -0.3856  0.0217
27482W        W44329   8.560   7.433  13.354  0.2324 -0.0815 -0.1675
27483W        W44330  18.742  18.823  13.345 -0.0647 -0.1164  0.2039
27484W        W44331   3.520  10.888   1.603  0.2973 -0.0539 -0.3403
27485W        W44332  10.112  16.523  10.901  0.1932 -0.1307 -0.0156
27486W        W44333  17.084   6.075   0.666  0.0771 -0.0265 -0.1967
27487W        W44334  16.976  13.058  10.782  0.1677  0.0654 -0.1524
27488W        W44335   7.741  16.141   4.361  0.1278 -0.0256 -0.0349
27489W        W44336  11.331   8.285   9.871 -0.2196  0.0913  0.0192
27490W        W44337   7.117  13.082  10.263 -0.3716  0.2236  0.0518
27491W        W44338   7.700  11.650  13.154  0.3678 -0.0283 -0.1638
27492W        W44339   8.459   9.625  11.858 -0.1554 -0.1160  0.1618
27493W        W44340   1.549   6.337  11.119  0.1206  0.1180  0.1541
27494W        W44341   6.423  11.427   9.846 -0.2545  0.0362 -0.1932
27495W        W44342  11.533  13.545  10.376  0.0067 -0.0246  0.0836
27496W        W44343  18.355  12.923   0.166 -0.2011 -0.0296  0.0789
27497W        W44344  13.713  17.774  12.031  0.0175  0.0645  0.0457
27498W        W44345   6.156   5.981   4.930  0.1187  0.0301  0.2149
27499W        W44346  11.480   3.872  12.056 -0.1582 -0.4055 -0.1906
27500W        W44347   6.991   6.134   0.363 -0.1684  0.2905  0.0536
27501W        W44348   0.973  16.617  11.135 -0.0218 -0.0643 -0.0706
27502W        W44349   4.324   6.772  11.300 -0.1427  0.0798 -0.1037
27503W        W44350  11.205   1.955   4.011 -0.3311 -0.0329 -0.0646
27504W        W44351  10.324   3.177   2.124 -0.0145  0.3002  0.3564
27505W        W44352   5.754   7.167  13.897  0.1088  0.0047 -0.2014
27506W        W44353   0.252  13.157  13.214  0.3065 -0.1173  0.2103
27507W        W44354  14.647   0.926   4.907  0.3479  0.1721 -0.1564
27508W        W44355   7.705   3.765  11.688  0.0809 -0.0992  0.0316
27509W        W44356  17.228   2.900   2.083 -0.0209 -0.0944 -0.2508
27510W        W44357   0.292   1.440  13.436 -0.0375 -0.0462 -0.0258
27511W        W44358   4.933   6.995   1.738 -0.1523  0.1858  0.1725
27512W        W44359   9.511  16.590  10.901  0.1706 -0.1908 -0.0985
27513W        W44360   3.657   7.858   3.440 -0.0673 -0.0106 -0.0096
27514W        W44361   3.207   4.057   3.003  0.0538 -0.1729  0.0221
27515W        W44362   0.306   8.132  10.256  0.0626 -0.0675 -0.0907
27516W        W44363  10.233   1.438   0.936  0.0491  0.1168 -0.1221
27517W        W44364  10.564   4.579   1.099 -0.0432 -0.1931 -0.3081
27518W        W44365   5.982  11.735   2.408  0.0388  0.4183 -0.1433
27519W        W44366  18.087   3.349   1.695  0.0637  0.2768 -0.1669
27520W        W44367  17.376   8.210  12.096  0.1664  0.1995  0.0489
27521W        W44368  11.009  10.336  13.964  0.2674 -0.1721  0.3686
27522W        W44369  14.097  14.488   0.533  0.0925 -0.1415  0.0254
27523W        W44370  18.898   7.887  12.921 -0.1351 -0.4619 -0.0542
27524W        W44371   5.059  18.438   2.603 -0.1175  0.1808  0.1045
27525W        W44372   7.910  11.760  11.550  0.3070 -0.1415 -0.2007
27526W        W44373  17.200  11.121   0.000 -0.0095  0.0300 -0.0901
27527W        W44374  16.633   4.082   4.696 -0.1604  0.1522  0.2303
27528W        W44375   7.204   1.072   5.163  0.3372  0.1759  0.2458
27529W        W44376  11.062  12.874   4.154 -0.0584 -0.0361 -0.0384
27530W        W44377  11.746   9.046   1.107  0.0133 -0.0363 -0.1828
27531W        W44378   6.995  13.377   3.778  0.0416 -0.3266  0.0977
27532W        W44379   7.208   9.384   1.795 -0.3443  0.1124 -0.0514
27533W        W44380   7.469  12.581   2.348  0.0546 -0.1649 -0.0896
27534W        W44381  10.832  19.607   9.843 -0.1417 -0.0914 -0.1484
27535W        W44382  19.184  18.768   1.041  0.0529  0.2531  0.0303
27536W        W44383   1.538  11.876   0.316  0.1650 -0.2317  0.1461
27537W        W44384   8.367  11.970   9.916 -0.2718  0.0847 -0.1925
27538W        W44385   2.789  17.501   4.018 -0.2836  0.1609  0.0819
27539W        W44386   5.228   2.281  10.334  0.0567  0.0711  0.0221
27540W        W44387   8.733   7.367  10.293 -0.1252 -0.1456 -0.0040
27541W        W44388  16.032  16.842  13.238 -0.1643  0.0744  0.2676
27542W        W44389  16.883   2.520  12.578 -0.1240 -0.0201  0.2219
27543W        W44390  15.102  18.094   1.589  0.2378 -0.2421  0.2462
27544W        W44391  10.297   1.521   0.065 -0.0607  0.0164 -0.1859
27545W        W44392  14.490   0.170  13.492 -0.2825 -0.0905  0.0316
27546W        W44393   9.068  12.996   2.907 -0.1757 -0.3166  0.1027
27547W        W44394   7.440   4.519   0.968  0.3360 -0.3762  0.1368
27548W        W44395  12.150  13.323  13.662  0.1161  0.1082 -0.1411
27549W        W44396  14.138  10.491   4.235 -0.0736  0.1446 -0.3336
27550W        W44397  15.962   1.700  13.628 -0.0981 -0.1450  0.0410
27551W        W44398  12.448  15.031  13.437  0.0646  0.1138 -0.1713
27552W        W44399   1.267   8.536  11.851 -0.0960 -0.0393 -0.0637
27553W        W44400   6.573   4.634   0.118  0.2507  0.0228  0.2446
27554W        W44401  11.666  13.169  10.768  0.0601 -0.3095  0.1845
27555W        W44402  10.953  19.851  13.393 -0.4811  0.0046  0.2331
27556W        W44403  19.178  19.526  11.478  0.0109 -0.0756 -0.2363
27557W        W44404  13.574   0.127   4.739  0.1915  0.0675 -0.1243
27558W        W44405  10.789   3.476   4.411  0.0245  0.0076 -0.2525
27559W        W44406  10.192  14.512  11.809 -0.1322 -0.1037  0.3544
27560W        W44407  17.745  15.190   0.984 -0.1099  0.1384 -0.0273
27561W        W44408  18.349  16.321  10.057  0.2500 -0.0973  0.5166
27562W        W44409   9.459   4.471  14.244  0.1019 -0.0552 -0.1029
27563W        W44410   1.263  19.211   3.599 -0.1948  0.2771 -0.1998
27564W        W44411   9.414   8.693  10.609  0.2138 -0.2176 -0.3326
27565W        W44412   2.259   4.002  13.716  0.1217 -0.0326 -0.0518
27566W        W44413  15.172   0.698  10.700  0.0214  0.0585 -0.0504
27567W        W44414   1.673  18.056   0.166 -0.3790 -0.1633 -0.0590
27568W        W44415  18.931  14.104   0.841  0.1754  0.3166  0.2202
27569W        W44416   7.062   5.083   4.643 -0.1277 -0.0633  0.0409
27570W        W44417   4.012  17.602   2.517  0.0304 -0.1741  0.1222
27571W        W44418   7.786  13.639  11.398  0.3419 -0.0091  0.1531
27572W        W44419  12.930   6.140   4.988 -0.2264  0.1796 -0.2167
27573W        W44420   7.801  12.198   1.382 -0.0233 -0.1716 -0.1518
27574W        W44421   5.943  14.696  10.508 -0.0974  0.1909 -0.2254
27575W        W44422  18.665   1.735  14.015  0.0886 -0.2657  0.0362
27576W        W44423  14.247  17.961  11.060 -0.0694 -0.2763 -0.0726
27577W        W44424   6.501   2.097  10.417  0.3333 -0.0215  0.1573
27578W        W44425  17.824  13.565  13.688 -0.0115  0.2804 -0.2262
27579W        W44426  12.699  11.478  12.451  0.0670 -0.0686 -0.1834
27580W        W44427   6.643  17.234  11.835 -0.1496 -0.1391 -0.0944
27581W        W44428  16.917  11.714  10.835 -0.2137  0.0432 -0.1140
27582W        W44429   2.905  11.337  13.712 -0.0926  0.2304  0.1277
27583W        W44430   2.099  12.155   2.334  0.0804 -0.1607 -0.0416
27584W        W44431   0.113   3.456  12.887  0.1085  0.1278  0.0169
27585W        W44432  11.423  12.446   4.812 -0.0249  0.0055  0.3186
27586W        W44433  15.168   9.082   1.880 -0.1382 -0.0092  0.1135
27587W        W44434  15.484   5.153   0.600 -0.0114 -0.3724  0.1483
27588W        W44435  13.214  11.053  13.067  0.0551 -0.1372  0.4042
27589W        W44436   4.446   5.553  13.200 -0.0312  0.0984 -0.5015
27590W        W44437   9.631   6.258   0.994 -0.0711  0.5420 -0.0513
27591W        W44438   5.374  19.724   2.143 -0.2584 -0.0683  0.0294
27592W        W44439  16.933   1.382   0.349 -0.2730 -0.3539 -0.0419
27593W        W44440  16.675   0.127   4.210  0.1319 -0.0005  0.3030
27594W        W44441   5.583   9.559   3.168  0.0169 -0.1700  0.3240
27595W        W44442   3.850  16.203   0.155 -0.0585 -0.2085 -0.0275
27596W        W44443   0.936   2.417  11.410 -0.1141 -0.1869  0.0538
27597W        W44444   9.782  10.693  12.126 -0.0814 -0.1303 -0.2828
27598W        W44445   3.601  18.428  12.296  0.2857  0.0783 -0.0808
27599W        W44446  15.585   7.973   1.214 -0.0106 -0.0954 -0.1142
27600W        W44447  18.679  11.090  11.833  0.1512 -0.0128 -0.1625
27601W        W44448   3.579  19.636  11.528  0.0781 -0.0732 -0.0066
27602W        W44449  10.924  18.879   2.368 -0.2205  0.2308  0.0061
27603W        W44450  10.287   3.518  14.281  0.3394 -0.2278  0.1151
27604W        W44451   8.816   8.318  13.454  0.1225 -0.0950  0.2761
27605W        W44452   7.936   1.195   9.696 -0.0376  0.2017  0.0745
27606W        W44453  11.248   3.441  14.247 -0.1028  0.0618  0.2824
27607W        W44454   2.383   2.665   3.540 -0.3279  0.1375 -0.3206
27608W        W44455  18.846   4.084   4.024 -0.0005 -0.1395  0.0083
27609W        W44456  12.457   0.602   3.128 -0.0713  0.0776 -0.1142
27610W        W44457   9.102  16.455   2.211 -0.3347  0.0349 -0.2717
27611W        W44458  19.290  10.931  12.986 -0.2459 -0.0954  0.0456
27612W        W44459   4.168  16.786  10.080  0.2347 -0.4494 -0.1649
27613W        W44460   0.664   0.260   4.748 -0.1281 -0.3328 -0.1600
27614W        W44461   6.814  17.240   1.075 -0.2430  0.3099 -0.1977
27615W        W44462  10.615  19.781   2.406  0.0459  0.4200  0.0184
27616W        W44463  17.537  14.490   3.364  0.2134  0.2614 -0.0049
27617W        W44464   5.548  15.054  13.133 -0.2011  0.0755 -0.1177
27618W        W44465   4.659   6.176  14.126 -0.0219  0.0665 -0.1669
27619W        W44466  16.884  14.425  11.762  0.1547 -0.1559 -0.1188
27620W        W44467  11.647   7.029   0.347  0.1611  0.3063 -0.3431
27621W        W44468  13.888  11.914  11.067  0.0430 -0.0130 -0.1783
27622W        W44469  16.184   1.237   0.350 -0.1159 -0.0491 -0.4898
27623W        W44470   1.815  14.550   0.516 -0.0384 -0.0803  0.1370
27624W        W44471  10.358   4.862   4.878  0.0271  0.0090 -0.0305
27625W        W44472   6.032   6.314   4.021 -0.3035 -0.1107 -0.0371
27626W        W44473  10.089   8.609   2.854 -0.0239 -0.2366 -0.1114
27627W        W44474   5.132   3.717   1.923 -0.0573  0.1418 -0.0762
27628W        W44475   5.765   9.958  11.864  0.1691 -0.0020  0.1086
27629W        W44476   2.424   4.140   4.623 -0.3910  0.1780 -0.0602
27630W        W44477  17.284   9.305   3.884  0.2633  0.1280 -0.2336
27631W        W44478  19.089   5.372  14.182 -0.0371  0.0972  0.0074
27632W        W44479   8.886   8.328   3.604  0.1816 -0.0406 -0.0451
27633W        W44480   3.273   1.010   3.272 -0.0765  0.3565 -0.1040
27634W        W44481   0.970   7.258   1.070 -0.1569  0.2412  0.0196
27635W        W44482   5.262   9.753   1.844  0.0307 -0.0277  0.3526
27636W        W44483  14.606  15.786  11.884  0.0882  0.0357 -0.1467
27637W        W44484   9.292   8.379  12.833 -0.0032 -0.2287  0.2777
27638W        W44485   3.176  17.614  11.106 -0.1848 -0.0368 -0.0503
27639W        W44486  15.837   8.005  12.885  0.0742  0.0484 -0.0176
27640W        W44487   0.738  17.846  10.614 -0.0213  0.1350  0.0970
27641W        W44488  12.957  19.020   4.625  0.4413  0.0652  0.0590
27642W        W44489  17.524  13.927   0.688  0.0743 -0.0606  0.0983
27643W        W44490  13.631   2.396  13.760  0.2466 -0.2197  0.3974
27644W        W44491   1.142   5.022   3.773 -0.2620  0.0800  0.1195
27645W        W44492   7.140  13.565  10.435 -0.1988 -0.0082 -0.4468
27646W        W44493   0.612   3.876   2.222  0.1043 -0.3352 -0.0130
27647W        W44494  19.130  12.804  12.066 -0.2198 -0.1705 -0.1081
27648W        W44495  13.421   6.959  13.564  0.1444  0.3419 -0.2648
27649W        W44496  12.635   1.197   4.158  0.2421 -0.2136 -0.3762
27650W        W44497   0.855   4.913  13.120 -0.3568 -0.0185  0.1920
27651W        W44498   7.833   4.276   2.154  0.3241  0.0589  0.0707
27652W        W44499  16.432  15.120  13.856  0.0984 -0.2573 -0.2505
27653W        W44500  14.453   2.303  10.522 -0.1467  0.2041 -0.0424
27654W        W44501  10.661  16.041   2.664  0.2041 -0.3391 -0.0558
27655W        W44502  17.357   3.478   4.864  0.1810  0.1949 -0.0606
27656W        W44503  19.223  15.513  11.239 -0.0773  0.1072  0.0520
27657W        W44504   1.149   3.946   1.882  0.1098  0.1544  0.1584
27658W        W44505   2.500   6.494   1.854  0.2308  0.0458 -0.2141
27659W        W44506  14.551   4.812   1.229  0.2403 -0.0692  0.0024
27660W        W44507   8.020   1.308  13.195 -0.2061 -0.3108  0.0734
27661W        W44508  12.288   3.798   2.269  0.0096  0.0426 -0.0439
27662W        W44509  13.987   9.854   9.763 -0.1271  0.2794  0.0338
27663W        W44510  18.962   4.103  11.036  0.0961 -0.0229  0.1437
27664W        W44511   8.887  16.169   1.224  0.5227  0.0159  0.0790
27665W        W44512   0.265  14.273   2.832  0.2688 -0.1310 -0.1382
27666W        W44513  12.783   0.689  11.758 -0.0262 -0.1355  0.1620
27667W        W44514   0.182  16.956   2.240  0.0732  0.0744  0.1755
27668W        W44515  15.775   4.014   2.755  0.1956  0.1081  0.1896
27669W        W44516  10.344   7.530   1.349  0.1304 -0.0134 -0.0023
27670W        W44517  11.152  15.707   3.425  0.4497 -0.1219 -0.0376
27671W        W44518   1.383  14.051   4.435  0.2175  0.1776  0.1690
27672W        W44519   8.164  10.436   1.063 -0.1820  0.0262  0.0693
27673W        W44520   6.468  19.325   4.560 -0.1287 -0.2572 -0.0331
27674W        W44521   2.521   3.061  11.537 -0.2093  0.1333 -0.1963
27675W        W44522   6.756  17.165   0.561 -0.3678 -0.3164  0.4469
27676W        W44523   5.343  12.602  11.366 -0.2704 -0.1418 -0.0868
27677W        W44524  16.740   2.132   5.449 -0.0977 -0.2562 -0.3472
27678W        W44525  16.208   5.216   2.498  0.1048  0.3333 -0.3027
27679W        W44526   6.761  15.330   1.871 -0.0409 -0.3131  0.2916
27680W        W44527  15.355  19.399  12.059 -0.4294  0.1733 -0.0965
27681W        W44528   8.246  15.466  12.996 -0.0989  0.1755 -0.2832
27682W        W44529  17.221  18.404   2.162 -0.0326 -0.0213 -0.0275
27683W        W44530   2.894   2.685  11.764 -0.0090 -0.5033  0.1296
27684W        W44531   1.490   6.133   2.587  0.0421  0.1425  0.1201
27685W        W44532  11.779  10.547  13.549  0.1294 -0.0084  0.2591
27686W        W44533  10.272   3.397  11.017 -0.3224  0.1455 -0.1356
27687W        W44534   6.325  16.654   8.676 -0.1317  0.1433 -0.1042
27688W        W44535  14.829   0.118   0.430  0.3200  0.2955  0.1188
27689W        W44536   6.646  18.137   4.023 -0.0633  0.2861  0.0983
27690W        W44537  13.691  15.303   2.726 -0.1824  0.1942 -0.2294
27691W        W44538   6.063   6.570   2.234 -0.1230  0.2093 -0.2274
27692W        W44539  10.669  14.110  12.394  0.0530  0.0155 -0.0183
27693W        W44540  19.697   2.997  11.950  0.0004  0.1764  0.1470
27694W        W44541   3.944  13.117  11.650  0.3987  0.2052 -0.2010
27695W        W44542   0.253  15.919   3.039 -0.1220  0.3816 -0.2254
27696W        W44543   9.958  12.338   0.429  0.0398 -0.1037 -0.1784
27697W        W44544   2.414  14.806   1.140  0.1873  0.1326 -0.2222
27698W        W44545  18.812  15.072   0.898  0.0195 -0.0431 -0.1633
27699W        W44546   0.650   3.708  10.107  0.1832  0.1596 -0.0734
27700W        W44547   2.073   1.249   0.736  0.1965 -0.4472 -0.1672
27701W        W44548   4.173   5.602   1.073 -0.1859  0.2932  0.0256
27702W        W44549  18.335  10.051   3.578  0.0234  0.2296 -0.3074
27703W        W44550   4.701   9.038  13.071  0.3487  0.1075 -0.1861
27704W        W44551   1.918   4.407  13.770 -0.3314 -0.1067  0.3521
27705W        W44552  15.903   2.310  10.903 -0.0176  0.0352  0.1955
27706W        W44553  10.952  15.773  14.041  0.0424  0.3012 -0.4371
27707W        W44554  18.619   9.525   1.093 -0.1418 -0.2919 -0.0982
27708W        W44555  18.882   8.607  10.254 -0.0084 -0.1951  0.1797
27709W        W44556  10.419  14.430  13.941 -0.0123  0.3336 -0.0876
27710W        W44557  13.306  15.577   4.081  0.1842 -0.3668 -0.3137
27711W        W44558   8.739   7.456   0.095 -0.0877  0.1930 -0.3203
27712W        W44559  10.900  13.353   4.216  0.5091  0.0397 -0.1197
27713W        W44560   7.753   7.794  12.782  0.1844 -0.1628  0.1971
27714W        W44561   0.319  14.324  14.162 -0.1328 -0.0135  0.1335
27715W        W44562   6.993   4.288   0.926 -0.1529  0.1786 -0.0711
27716W        W44563   1.763   7.795  10.757 -0.3062  0.1208 -0.0849
27717W        W44564  15.230   6.601   1.059  0.0651  0.0378  0.1254
27718W        W44565   8.786   5.152   2.331 -0.0325 -0.0132 -0.2232
27719W        W44566  11.946   5.242  12.468  0.0554  0.3444 -0.0701
27720W        W44567   7.766  17.656   9.603  0.1505 -0.1358  0.1693
27721W        W44568  18.959   2.469  11.537  0.1911 -0.2670  0.0562
27722W        W44569   5.699  12.630   0.763 -0.0217 -0.0587 -0.1200
27723W        W44570  13.397  14.099   0.015 -0.2194 -0.2635  0.1622
27724W        W44571   5.258  16.059   0.191 -0.2042 -0.1204  0.1834
27725W        W44572  17.356  15.842   1.143 -0.1581  0.1439 -0.4144
27726W        W44573   1.657   9.544   4.182  0.0039 -0.1492  0.1153
27727W        W44574   9.064  13.261   9.950 -0.2346 -0.1146 -0.0897
27728W        W44575  10.916   0.487   9.888 -0.1241 -0.0113 -0.2780
27729W        W44576  17.488  19.864   3.334 -0.0691 -0.3440 -0.0743
27730W        W44577   9.104  18.499  12.730  0.1298 -0.2052 -0.3447
27731W        W44578  17.590   7.603  11.605  0.0620 -0.1658  0.2040
27732W        W44579  10.253   9.524   0.290  0.1417 -0.1290  0.4096
27733W        W44580   0.584   5.738  10.431  0.2188 -0.2298 -0.2777
27734W        W44581  10.520  15.342   1.397  0.1415 -0.0517 -0.0926
27735W        W44582  12.369   5.140  12.825  0.1953 -0.2107  0.3141
27736W        W44583  13.495   7.647   1.958 -0.3797 -0.0670  0.0129
27737W        W44584  10.942  13.059   0.947 -0.1451  0.0346 -0.0663
27738W        W44585   5.035  12.397   1.596 -0.1027  0.2945 -0.4599
27739W        W44586   9.496   1.418  12.245 -0.1722 -0.0818  0.5425
27740W        W44587  13.422  13.056  10.417  0.1598  0.0863  0.2561
27741W        W44588   4.775   1.563   4.916  0.1423  0.0637 -0.1334
27742W        W44589  10.274  18.699   0.131 -0.0075  0.0445 -0.0192
27743W        W44590   1.143   8.493  10.412 -0.0460 -0.0009  0.0098
27744W        W44591  15.447  19.846  13.205 -0.3055  0.1082 -0.0138
27745W        W44592  15.799   7.846   2.831 -0.3636  0.0228  0.1195
27746W        W44593  17.368   3.183   3.905 -0.1992 -0.2540 -0.1515
27747W        W44594   8.858   3.842  14.116 -0.0618  0.2006 -0.2522
27748W        W44595   2.845  12.177  12.183  0.1226  0.3409 -0.0084
27749W        W44596   5.582   8.497   2.349 -0.2521  0.1483  0.2459
27750W        W44597   5.408  13.355  12.522  0.1068 -0.0225 -0.0091
27751W        W44598  19.270  12.866   4.154 -0.0863  0.0688  0.2069
27752W        W44599   0.374  10.490   1.314 -0.2813 -0.0717 -0.3587
27753W        W44600   1.147  14.630  13.453 -0.0183  0.1329 -0.0511
27754W        W44601  15.623   0.270  11.854  0.0511  0.0780 -0.2949
27755W        W44602  14.918  11.009   2.302  0.3128  0.2937 -0.3094
27756W        W44603  12.819  13.049   2.989  0.0444  0.0837  0.0833
27757W        W44604   3.212  16.440   1.352 -0.0110  0.3610  0.2209
27758W        W44605  10.439  19.160  11.101  0.1810 -0.1163 -0.0628
27759W        W44606  11.125   7.656  11.228 -0.1633  0.0596 -0.3148
27760W        W44607  16.910   9.846   2.088  0.3533  0.0159 -0.0629
27761W        W44608   8.938   9.102  13.315 -0.1743 -0.1727  0.1389
27762W        W44609   4.906   6.903   0.986  0.0013 -0.0638  0.3858
27763W        W44610   0.037  14.073   4.240  0.1315  0.2511 -0.0875
27764W        W44611   5.494  11.588   5.207 -0.0433 -0.2986  0.1948
27765W        W44612   8.689  17.747   3.099 -0.2510  0.0016  0.1307
27766W        W44613   6.049   0.352   1.153  0.3206 -0.3518  0.0810
27767W        W44614   4.582  15.102  10.588 -0.0396  0.1877 -0.0499
27768W        W44615  16.400  13.774  13.045 -0.0461 -0.1099 -0.0614
27769W        W44616  17.380  16.800   4.271  0.1169  0.1175 -0.1286
27770W        W44617  13.661   8.044   2.393  0.0557 -0.0609  0.4205
27771W        W44618  11.626  15.904   2.057 -0.0088 -0.2356 -0.0774
27772W        W44619  14.133  11.408  12.745 -0.1015  0.0422 -0.1084
27773W        W44620   0.603   7.197   4.931 -0.5860  0.0268 -0.0150
27774W        W44621  16.121  13.166   2.593  0.2781  0.0022  0.0178
27775W        W44622  13.926   5.701   4.722  0.2805 -0.2919 -0.1200
27776W        W44623  10.767  12.540  10.926 -0.1501  0.0561 -0.0969
27777W        W44624   1.685   5.948  11.444 -0.1983  0.0277  0.0220
27778W        W44625   5.768   9.298  11.633 -0.0377 -0.3419  0.2486
27779W        W44626   7.607   9.316  14.057  0.1553 -0.4417  0.4676
27780W        W44627  15.638  12.371   0.737  0.1099 -0.0571 -0.0435
27781W        W44628  16.539   4.753   3.314 -0.1040  0.3937  0.1262
27782W        W44629   0.028  13.622   1.492 -0.1193  0.0453  0.0517
27783W        W44630  14.684  11.374   1.370 -0.1970  0.4110 -0.0712
27784W        W44631   2.284  16.241  11.521  0.0692  0.3244 -0.2310
27785W        W44632   3.839  12.578   1.680 -0.2271 -0.1456 -0.0995
27786W        W44633  14.106  12.015  13.707  0.0911  0.0516 -0.0660
27787W        W44634   4.642   3.747  12.517  0.3281 -0.3540  0.0363
27788W        W44635   1.903   3.547  10.449  0.0709  0.1816  0.2138
27789W        W44636   2.212   9.061   1.420 -0.1312  0.1771  0.0124
27790W        W44637   6.988  15.889   3.977  0.4101 -0.0263 -0.3906
27791W        W44638  14.762   7.249  11.155  0.0150 -0.1436  0.0347
27792W        W44639   0.696  17.446  13.795  0.4487 -0.1177  0.0129
27793W        W44640   9.265  16.336  13.976 -0.1024 -0.3367  0.1463
27794W        W44641   4.720  15.650  10.337  0.2924 -0.1480 -0.0309
27795W        W44642  19.584   6.880  12.611 -0.1291  0.2162  0.0393
27796W        W44643  10.130  10.387  11.247  0.0665  0.0057  0.0415
27797W        W44644  14.210  17.525   0.474  0.3253 -0.2284 -0.5175
27798W        W44645  11.301  19.477   3.056  0.0942  0.2777 -0.1298
27799W        W44646   6.501   6.353   1.443 -0.1855  0.1763 -0.3660
27800W        W44647   9.497   4.834   4.123 -0.1449  0.0903 -0.3537
27801W        W44648   1.086   9.930   1.851 -0.1384  0.2519  0.0912
27802W        W44649  10.002  17.967  10.147  0.0858 -0.1030  0.3535
27803W        W44650  19.478  17.903  12.414 -0.0053  0.2355  0.0992
27804W        W44651   4.147  18.497   3.492 -0.0121  0.0232 -0.1519
27805W        W44652   4.735  11.893  11.827  0.0466 -0.2666  0.1564
27806W        W44653  19.268  10.811  14.310  0.0897  0.2627  0.3187
27807W        W44654  12.177  12.962   2.283  0.0005  0.0955  0.0700
27808W        W44655  16.879  19.148  13.986 -0.1058  0.3883  0.0894
27809W        W44656   2.860   2.051  12.436 -0.1341 -0.0778 -0.0237
27810W        W44657  15.442  11.937   2.352 -0.4060  0.0459  0.0517
27811W        W44658   2.600   7.038   3.934  0.0414  0.2949 -0.0516
27812W        W44659   5.612   8.428  11.979  0.2318 -0.0944 -0.0631
27813W        W44660   1.284  13.623   0.758 -0.2085 -0.1570 -0.3273
27814W        W44661   6.123  13.598   4.662 -0.0720  0.2007 -0.1603
27815W        W44662  13.187   8.301   5.020  0.3902  0.1448  0.1057
27816W        W44663   6.227  12.123  12.212 -0.0095  0.0461 -0.0594
27817W        W44664   0.260   7.924  12.666  0.1334 -0.1047  0.1620
27818W        W44665   7.744   1.960   1.377  0.2324 -0.0282 -0.1664
27819W        W44666  18.272   2.325  13.770 -0.4193  0.1642 -0.0404
27820W        W44667  13.099  11.720   0.951 -0.1752  0.2038  0.0054
27821W        W44668   6.302   5.816   0.910 -0.1053  0.0786 -0.2555
27822W        W44669  10.854   8.536  13.565 -0.0527  0.0011 -0.0035
27823W        W44670   7.880  13.359   3.674 -0.2915 -0.7189 -0.1751
27824W        W44671  13.780   5.081  14.244 -0.2533 -0.0380 -0.0069
27825W        W44672   7.764   1.319  14.140  0.0702 -0.3630  0.0358
27826W        W44673  15.771  16.797   4.809  0.1720 -0.0130  0.4804
27827W        W44674   5.226  17.188  11.940 -0.3230  0.1063 -0.1727
27828W        W44675  15.869  10.137   2.734  0.0434 -0.4987 -0.1023
27829W        W44676   6.605  11.031   4.008 -0.4539  0.0969 -0.1372
27830W        W44677   0.542  18.813  12.099 -0.3181  0.1152 -0.0431
27831W        W44678   2.015   7.858   3.989  0.0877  0.4747  0.1811
27832W        W44679   3.909   8.956   4.390  0.2033  0.1348 -0.0745
27833W        W44680   6.388   9.269   0.747  0.1899 -0.2711 -0.0964
27834W        W44681  18.051  17.133   2.296  0.1984 -0.1252 -0.2057
27835W        W44682  16.713   1.290   3.018  0.4198  0.2332 -0.0596
27836W        W44683   7.645  15.698   2.833 -0.0599 -0.0196 -0.3105
27837W        W44684  15.007   4.736  13.034  0.1340  0.0426  0.2740
27838W        W44685   3.138  12.896  12.636 -0.0363  0.0015  0.0714
27839W        W44686   6.047   2.564   0.264  0.1355  0.2333 -0.3056
27840W        W44687  11.602  11.034  11.863  0.2427 -0.0042 -0.0637
27841W        W44688  11.613   4.396  12.176  0.1719  0.1948 -0.1137
27842W        W44689  14.289   8.059   2.311  0.1370  0.0322 -0.0290
27843W        W44690   0.897  11.003  10.828 -0.0599  0.0538  0.0291
27844W        W44691   8.399   8.814  11.062 -0.2051 -0.0989 -0.0941
27845W        W44692  17.209   0.091  11.086  0.0962  0.0850 -0.4113
27846W        W44693  10.043   1.344  13.889 -0.2934 -0.0071  0.1604
27847W        W44694  10.136  17.954   1.629  0.0816 -0.3193 -0.4273
27848W        W44695  10.782   9.691  13.892  0.2579  0.1855 -0.1474
27849W        W44696  19.860   0.877   2.100  0.1620 -0.0521 -0.1357
27850W        W44697   7.656   9.266   4.020  0.1039  0.2957 -0.0950
27851W        W44698   0.054   9.925  13.425  0.0942 -0.1602  0.1662
27852W        W44699  15.434  11.236   0.778 -0.0411 -0.2418  0.1929
27853W        W44700   0.214   3.072   0.581  0.1580  0.0690 -0.0626
27854W        W44701   0.046   0.404   5.444 -0.1936  0.2999  0.2776
27855W        W44702   3.756   8.603   0.647  0.7834 -0.0770  0.1801
27856W        W44703   8.732   9.120   0.832 -0.2423 -0.1143  0.2510
27857W        W44704  17.466   7.810   4.340  0.0237 -0.0232  0.3064
27858W        W44705   5.008   5.111  11.317 -0.1894  0.0194  0.2931
27859W        W44706   4.324   0.622   4.236 -0.0204 -0.1744 -0.1049
27860W        W44707   0.938   5.480   1.840 -0.4493 -0.2029 -0.2187
27861W        W44708  17.375  10.163  13.433  0.0122 -0.1295 -0.0622
27862W        W44709  13.240  11.861  10.213 -0.0534  0.1456 -0.3988
27863W        W44710   6.019   3.513   3.419 -0.3054 -0.1146  0.1673
27864W        W44711   9.505   6.978  13.709  0.1956  0.0141 -0.1335
27865W        W44712  13.111  14.479   3.328 -0.0995  0.1749  0.0392
27866W        W44713   8.601   9.101  10.735  0.2781 -0.1359 -0.2084
27867W        W44714  10.146   1.723   1.443 -0.0206 -0.0787  0.1655
27868W        W44715   3.742  12.708   2.199 -0.1292  0.0174 -0.0550
27869W        W44716   7.844  19.642   0.201 -0.2334 -0.3077  0.0091
27870W        W44717   7.128   9.089   0.052 -0.0349 -0.0975 -0.1398
27871W        W44718   7.760  10.136   4.348  0.2371 -0.0435  0.1045
27872W        W44719   5.479   2.843   4.339  0.3628 -0.0152  0.2808
27873W        W44720   7.699   6.122   1.970  0.1167 -0.0332  0.0987
27874W        W44721   9.623   6.017   0.522 -0.0922  0.2091  0.2273
27875W        W44722   0.135   0.165  10.713  0.1982 -0.0899 -0.1311
27876W        W44723   8.890   7.572   4.065  0.0524 -0.1893  0.0059
27877W        W44724  13.986   1.278  14.112  0.0661 -0.0716 -0.0492
27878W        W44725  16.544  18.651  12.840  0.0080  0.0733 -0.0855
27879W        W44726  15.915  13.361   3.050  0.1471  0.0533  0.1966
27880W        W44727  12.264   1.957  11.953 -0.3079  0.0821 -0.1639
27881W        W44728   1.552   3.843  10.610  0.0611 -0.0667  0.0509
27882W        W44729  18.717   9.173  10.681  0.1530  0.0411 -0.2466
27883W        W44730  12.090   0.083   2.777 -0.1342 -0.0925 -0.0935
27884W        W44731   3.288   8.028   0.059 -0.0869  0.0357 -0.0941
27885W        W44732  19.035   3.660  10.129 -0.2490  0.1881 -0.0159
27886W        W44733   5.729   4.189   1.323 -0.1691 -0.1535  0.4530
27887W        W44734   2.260   7.451   0.616  0.2392  0.0475 -0.0787
27888W        W44735   9.273  15.821   1.334  0.2718 -0.4111  0.3959
27889W        W44736   9.029   9.804  10.580  0.1197  0.3961  0.1430
27890W        W44737  18.718   9.776  10.544 -0.1227  0.1056  0.3139
27891W        W44738   9.843   1.898   3.480 -0.3390 -0.2079  0.1327
27892W        W44739  17.877   4.776   2.834  0.2224 -0.5024 -0.1261
27893W        W44740  11.901   3.082   1.562 -0.2259  0.2262 -0.0703
27894W        W44741   2.551   9.672  13.496  0.1265 -0.1670 -0.2346
27895W        W44742  10.731   5.098  13.345 -0.0759  0.0086  0.0860
27896W        W44743  18.133   4.448   0.885 -0.2005 -0.1787  0.1629
27897W        W44744   2.857   6.567  10.694  0.2796  0.3571 -0.1266
27898W        W44745  16.468  14.826   0.243 -0.1030 -0.1055  0.0114
27899W        W44746  10.473  19.143   1.046  0.0419 -0.0333 -0.0387
27900W        W44747  10.716   9.867  10.805 -0.0402  0.2368 -0.1554
27901W        W44748   7.350   5.626  13.329  0.1401  0.1121 -0.2443
27902W        W44749   5.569   5.896   2.343 -0.3123 -0.1674  0.1435
27903W        W44750   8.876   6.962  12.893 -0.3538 -0.0224 -0.1586
27904W        W44751  15.375   0.419  12.458 -0.5161 -0.0350 -0.3747
27905W        W44752   7.043   8.103   5.363 -0.0395 -0.0453 -0.3697
27906W        W44753   3.887   2.296  10.761 -0.0060  0.0575  0.1264
27907W        W44754   9.392  19.923   1.695  0.0812 -0.3057 -0.2666
27908W        W44755  16.558  11.431   2.266 -0.0497  0.2075  0.3001
27909W        W44756   8.076   4.226  14.275 -0.1021 -0.1552 -0.0455
27910W        W44757   9.296  13.892   0.693 -0.0715  0.3677  0.0890
27911W        W44758   9.545   2.094   9.965  0.0366 -0.1405  0.3249
27912W        W44759  11.224   3.833   2.292  0.0269 -0.0427 -0.1225
27913W        W44760  15.275  18.316  11.406  0.1477  0.1126  0.1006
27914W        W44761  12.014   7.271   4.614 -0.0819 -0.1960  0.0972
27915W        W44762   6.002   8.708   4.100  0.0930  0.0882  0.2301
27916W        W44763  13.244  11.617  13.873  0.1056 -0.1954 -0.1692
27917W        W44764  18.183   4.020  13.519  0.1747 -0.1249 -0.1152
27918W        W44765  13.405  11.613   0.072  0.0706 -0.0375  0.1495
27919W        W44766   7.372   4.059   2.329 -0.1609 -0.0434 -0.1049
27920W        W44767   2.559  16.482  11.200  0.3018  0.0727 -0.2801
27921W        W44768  11.256  16.650  10.981 -0.2463  0.4673  0.7535
27922W        W44769  15.740   2.119   9.610  0.1834  0.2097  0.0943
27923W        W44770  10.136  10.671   1.108 -0.0622 -0.0358  0.1324
27924W        W44771   4.058   0.844  11.998 -0.1257  0.1310 -0.3228
27925W        W44772  13.697   0.127  10.393  0.2408  0.0704 -0.3869
27926W        W44773   5.883  19.401   0.472 -0.0849 -0.0799 -0.2632
27927W        W44774   0.197   6.648  11.178  0.1898  0.0529 -0.0634
27928W        W44775  13.337   0.171  12.385 -0.2331  0.2984 -0.2823
27929W        W44776   8.983  11.037  10.250  0.0589 -0.2120  0.0077
27930W        W44777   0.147  12.503  10.885 -0.0181 -0.1485  0.0414
27931W        W44778   8.295  16.901   1.437 -0.1430  0.0182  0.2479
27932W        W44779  16.624   7.927  13.440  0.1164 -0.0437  0.2215
27933W        W44780  15.512   7.239  11.149  0.1761 -0.1853 -0.1350
27934W        W44781   4.695   5.508   1.191  0.1066 -0.1670 -0.1505
27935W        W44782   0.040  11.569  12.589  0.2136 -0.2395 -0.1515
27936W        W44783   9.518   1.255  13.663 -0.2036 -0.2330 -0.4359
27937W        W44784  10.540  16.901  13.454 -0.1316 -0.0382 -0.2913
27938W        W44785  19.660  15.130   3.204 -0.2482  0.0334  0.2859
27939W        W44786  14.049   0.565  12.287 -0.0719 -0.0704  0.1909
27940W        W44787   4.684   1.999   2.542  0.4341  0.0123 -0.0170
27941W        W44788  18.289  12.701   3.533 -0.0394  0.0456 -0.1629
27942W        W44789  18.724  14.879  14.146  0.1863  0.0440 -0.2230
27943W        W44790   3.403   0.582  11.506  0.2085  0.2132  0.0115
27944W        W44791  18.307  17.070   2.974  0.3775 -0.1407 -0.2870
27945W        W44792   2.988   9.423  12.992 -0.0758 -0.0753  0.1606
27946W        W44793   2.529  13.151   9.977 -0.0022 -0.1051 -0.2620
27947W        W44794  18.907  10.596   2.122 -0.0582 -0.0767 -0.1733
27948W        W44795   5.073   7.464   2.029  0.1111 -0.0640 -0.4616
27949W        W44796  12.394   6.127   2.370  0.1348  0.2136 -0.0811
27950W        W44797  15.301   5.576  11.859  0.1921 -0.0258 -0.1526
27951W        W44798   5.362  11.741   4.054 -0.1740 -0.1727 -0.0120
27952W        W44799  18.893   7.673   4.148  0.3487 -0.0161  0.0718
27953W        W44800   5.427  11.448   0.703 -0.1236  0.1946 -0.0519
27954W        W44801   7.259   8.518   4.147  0.1452 -0.2672 -0.0613
27955W        W44802  10.700  14.990  13.392 -0.1607 -0.3563  0.0421
27956W        W44803  11.687   1.438   5.395 -0.2184 -0.0778 -0.2550
27957W        W44804  17.528   7.585   3.842  0.0686 -0.1273  0.2775
27958W        W44805  11.250  19.737   0.718  0.0681 -0.0566 -0.3130
27959W        W44806   1.392  17.193  13.266 -0.1669  0.0323 -0.2566
27960W        W44807   1.850   6.705   3.364 -0.2040 -0.1103  0.1417
27961W        W44808   8.794   4.487  13.333 -0.0564  0.1639 -0.0011
27962W        W44809  19.178   9.269  14.005  0.1257  0.0961 -0.4213
27963W        W44810   3.893  15.808  11.648  0.1072 -0.1436  0.0935
27964W        W44811  14.726  15.203   0.624 -0.2762  0.2162 -0.1582
27965W        W44812   3.234   3.443  13.978  0.1171  0.0538  0.5496
27966W        W44813   9.788  14.782   0.252 -0.1340  0.0337  0.0465
27967W        W44814   7.490  10.664   2.722 -0.0194 -0.0872 -0.3102
27968W        W44815  19.225  17.031  11.967  0.2258 -0.0697 -0.0828
27969W        W44816   3.275   3.134   3.071 -0.1615 -0.0329 -0.0851
27970W        W44817  12.509  12.754   9.736 -0.0228 -0.3301  0.0837
27971W        W44818  18.559   5.285   2.371  0.2311 -0.0543 -0.0341
27972W        W44819  15.515   1.828   0.711  0.1823  0.2603 -0.1076
27973W        W44820   8.017  11.534  10.992 -0.2111 -0.0642 -0.1584
27974W        W44821   4.995   2.766   3.970 -0.0985 -0.2497 -0.1496
27975W        W44822   0.023  11.558   0.232  0.0033 -0.3154 -0.3396
27976W        W44823   1.285   9.894   3.058  0.2296 -0.0144  0.0389
27977W        W44824  13.098  16.950   0.802 -0.0078  0.0021  0.1046
27978W        W44825   4.622  12.056  13.441  0.1565  0.1952  0.1311
27979W        W44826  16.492   7.232   2.636  0.0683  0.0374  0.1959
27980W        W44827  16.373  17.784   0.568  0.0803 -0.3287 -0.1629
27981W        W44828  19.134  11.513   3.821 -0.4436 -0.2564  0.0165
27982W        W44829  11.836   6.315  14.096 -0.0685  0.1797 -0.1224
27983W        W44830   8.791   7.221  12.118  0.0464  0.0201 -0.0163
27984W        W44831   7.825   6.149   9.235 -0.0459 -0.1684  0.1276
27985W        W44832   3.147   8.970  10.710 -0.1382 -0.4126 -0.1980
27986W        W44833   1.046   1.854   0.390  0.2399  0.0190 -0.1575
27987W        W44834   9.391   7.558  11.798  0.0320 -0.4245  0.1532
27988W        W44835  10.649   7.555   2.307 -0.1833  0.1744  0.0835
27989W        W44836   6.399   9.162   9.197 -0.2590  0.0433  0.0314
27990W        W44837  13.507  17.913  11.557  0.6293 -0.1684  0.1387
27991W        W44838  17.651   3.693   4.048  0.2581  0.4075  0.3339
27992W        W44839  18.070  17.646  12.498 -0.3240  0.1661 -0.0190
27993W        W44840  16.016  12.768  10.766  0.2594 -0.0068  0.1454
27994W        W44841  13.229   6.284   3.132 -0.0056 -0.1329  0.3741
27995W        W44842   2.033  12.058  10.961 -0.0431 -0.3028  0.0842
27996W        W44843   2.132   9.850   0.073  0.1971  0.1209 -0.2646
27997W        W44844  16.450  18.268   0.512  0.0192 -0.0028  0.2413
27998W        W44845  18.371  19.443   4.546 -0.1484  0.1842 -0.1233
27999W        W44846  16.962   5.314   3.851 -0.0800  0.1733  0.2988
28000W        W44847  10.375   0.552   5.549  0.0394  0.0745 -0.2325
28001W        W44848  14.321  14.398   1.463 -0.0556  0.0114 -0.2565
28002W        W44849   7.889  17.987  10.808  0.5328  0.2945  0.1151
28003W        W44850   5.460   4.023  12.609 -0.2221  0.5737 -0.0830
28004W        W44851  12.699  10.830  10.429  0.1047 -0.2050 -0.0394
28005W        W44852  17.413   9.832   0.027  0.0127 -0.1193  0.4711
28006W        W44853  15.027   4.287   2.534 -0.3272 -0.0808  0.2334
28007W        W44854   7.825  18.135   2.857 -0.1420  0.1442 -0.0950
28008W        W44855  12.770   3.933  13.763  0.1672  0.0346 -0.1194
28009W        W44856  18.858   2.095  11.858  0.1434 -0.2612 -0.0019
28010W        W44857  13.904   8.794   3.120 -0.1151  0.1914 -0.0203
28011W        W44858  14.519   4.847   5.686  0.3333  0.1162  0.0983
28012W        W44859  11.406  10.914   4.573  0.1149  0.0905  0.2129
28013W        W44860  12.268  12.242   0.541 -0.1934  0.1451 -0.6840
28014W        W44861  17.118  11.812   0.551 -0.0426  0.2196 -0.0184
28015W        W44862  15.395   1.008   2.085 -0.2237  0.1864 -0.2477
28016W        W44863   5.115  14.779   2.987  0.1094 -0.0058 -0.4191
28017W        W44864  19.721  10.266   3.795 -0.1390 -0.3094 -0.2325
28018W        W44865   2.874  18.863  12.620 -0.1019  0.0712  0.1185
28019W        W44866   5.260   1.236   9.158  0.0220  0.0083 -0.2543
28020W        W44867  13.158   3.856   3.310 -0.2760  0.0261 -0.2035
28021W        W44868   2.774   1.047  13.809 -0.0784 -0.1436  0.0157
28022W        W44869   5.589   7.519  13.420  0.1328 -0.1139 -0.2147
28023W        W44870  12.150  10.876  13.187  0.2358  0.1340  0.1466
28024W        W44871  12.933   6.244   0.667 -0.0451  0.4170 -0.1024
28025W        W44872  18.295   8.726  13.619  0.1486  0.2164  0.0253
28026W        W44873   8.970   1.936  12.359 -0.1153 -0.1171 -0.2543
28027W        W44874   7.576   4.892   4.213 -0.0134  0.1938  0.2672
28028W        W44875   6.931  17.447   8.440 -0.0556 -0.3163  0.2179
28029W        W44876   6.851   2.758   4.672 -0.0796 -0.0603 -0.1266
28030W        W44877   0.085   9.552  10.413 -0.2051 -0.0991 -0.0197
28031W        W44878   7.439   8.355   4.596  0.0053  0.1683 -0.1856
28032W        W44879   9.185  17.761   1.307 -0.3757 -0.3783 -0.0358
28033W        W44880  14.886  17.039   4.138  0.0542 -0.2106  0.1611
28034W        W44881  13.570   5.876   3.093 -0.0750 -0.0446  0.0268
28035W        W44882   1.143   3.199   2.866 -0.1757  0.2253  0.0933
28036W        W44883  15.693  13.632  11.766 -0.1336 -0.6257 -0.0095
28037W        W44884  19.483  12.549  12.428  0.2393  0.1180 -0.0500
28038W        W44885  14.548   0.361   5.002 -0.0061  0.3511  0.4453
28039W        W44886   7.027  11.431   4.679  0.1011  0.1203  0.1610
28040W        W44887   7.228  15.404   3.121 -0.3296 -0.2650  0.4486
28041W        W44888  10.416   0.814  10.848 -0.2466 -0.2189  0.0207
28042W        W44889   1.177   9.019   2.643 -0.0325 -0.1243  0.0408
28043W        W44890  12.930  16.811  10.615  0.0792 -0.1049 -0.2511
28044W        W44891  19.653   5.750   0.542  0.3163  0.2014  0.3003
28045W        W44892  12.777  13.551  11.975  0.0315  0.0909  0.7976
28046W        W44893   1.361   0.269  10.972 -0.0172 -0.0413 -0.1754
28047W        W44894   2.415   8.789   2.535 -0.2332  0.0093  0.3091
28048W        W44895   6.104   1.464  12.105 -0.2106 -0.0660  0.0226
28049W        W44896  18.575  15.732  12.008 -0.0843  0.1509  0.2287
28050W        W44897  11.485  17.864  13.788 -0.0911 -0.0724  0.0821
28051W        W44898   7.189   4.152   9.301 -0.4304 -0.0194 -0.2486
28052W        W44899  12.805  12.565  12.759 -0.0707  0.0260 -0.0312
28053W        W44900  13.661  19.662  14.063  0.1489 -0.0338  0.0960
28054W        W44901   2.478   2.442   0.276  0.2312 -0.1916 -0.3876
28055W        W44902   3.091   6.689  12.156 -0.0320  0.1788 -0.3037
28056W        W44903  10.847   3.139   0.688 -0.1595 -0.0991  0.0388
28057W        W44904  14.998  12.460  14.268 -0.0868 -0.0265 -0.2839
28058W        W44905  10.993   5.554  10.484 -0.1635  0.1498  0.2516
28059W        W44906  15.729  14.697  12.459 -0.1143  0.2661 -0.0842
28060W        W44907  13.404  12.227   0.215 -0.0294 -0.3448  0.1577
28061W        W44908   4.208   5.788   2.779 -0.0274 -0.0028  0.3845
28062W        W44909  15.782  17.489  10.303  0.2515 -0.1442  0.1134
28063W        W44910   4.399  17.123  11.396 -0.1208  0.3119  0.0228
28064W        W44911   1.234   6.272  12.858  0.0278  0.0043  0.0541
28065W        W44912   7.269   7.066  10.852  0.1126 -0.3770 -0.0576
28066W        W44913   1.275  16.663   2.052 -0.2373 -0.1715 -0.0722
28067W        W44914  15.231  12.445  13.833  0.1031 -0.0797 -0.1693
28068W        W44915   5.320   2.622  13.891 -0.1473 -0.0276  0.2044
28069W        W44916   2.283  16.640  13.202  0.0761  0.4100  0.1785
28070W        W44917  11.954   5.520  13.466 -0.3488 -0.0090  0.1976
28071W        W44918   5.821  14.071  12.407 -0.1448 -0.1144  0.1683
28072W        W44919  15.351   4.687  11.553  0.1559  0.1522  0.3305
28073W        W44920  19.769  16.607   1.310  0.0371 -0.0397  0.0605
28074W        W44921  14.085   9.416   0.756  0.1622  0.3233 -0.1428
28075W        W44922   3.284  14.711   0.914  0.2337 -0.1698  0.0782
28076W        W44923  15.577   5.557  11.189  0.0384  0.0433  0.1601
28077W        W44924   2.066   2.998  12.704 -0.4781  0.3995 -0.0917
28078W        W44925  18.193   9.647   4.928 -0.0496  0.1848 -0.1409
28079W        W44926  18.337  11.866   3.738  0.2045 -0.1654 -0.0685
28080W        W44927   4.576  19.578   2.193  0.2293 -0.1906  0.3428
28081W        W44928  17.686   9.424   3.142 -0.2698  0.0888 -0.0712
28082W        W44929  18.705  16.850   3.845  0.0633 -0.3102  0.2277
28083W        W44930  16.293  14.697  13.431  0.0629  0.1293 -0.3919
28084W        W44931   6.237   4.349   0.376 -0.1588  0.2204 -0.0806
28085W        W44932   8.258   0.384   2.957  0.2649 -0.0339  0.2116
28086W        W44933   3.890  15.584   1.735 -0.0382  0.2370 -0.0284
28087W        W44934   7.243  10.192   2.563  0.1993  0.0158 -0.0828
28088W        W44935   3.526  15.795  13.608 -0.0972  0.0823 -0.1775
28089W        W44936   4.916  15.780  12.056 -0.1410 -0.3279 -0.3553
28090W        W44937   8.942  14.948   1.447  0.0498  0.1260 -0.2803
28091W        W44938  17.005   7.003  11.570 -0.2154 -0.2537  0.1481
28092W        W44939  16.309   1.132  11.476 -0.2321 -0.0906  0.2225
28093W        W44940   8.159   8.882   4.092 -0.2997  0.2177 -0.2199
28094W        W44941  16.474  18.795   3.178 -0.1365  0.1023  0.2850
28095W        W44942  15.566  14.299   4.317 -0.0336  0.0489 -0.2795
28096W        W44943  14.175  11.845   2.467 -0.1515  0.3026  0.0112
28097W        W44944   1.394  13.162   9.712 -0.1770  0.2823  0.0370
28098W        W44945  17.310   4.826  11.578  0.0087  0.1944  0.0537
28099W        W44946   8.587   9.080  12.993 -0.0537 -0.1237 -0.3134
28100W        W44947  14.287   9.393  10.172 -0.2498  0.0771  0.0888
28101W        W44948   5.594  17.991   0.379 -0.2871 -0.1404  0.1925
28102W        W44949  17.881  19.074   5.257  0.1467  0.0863  0.0418
28103W        W44950   9.730  17.543  13.535 -0.1369 -0.3508  0.2125
28104W        W44951  15.748   2.913  13.174  0.0178 -0.1972 -0.1940
28105W        W44952  19.828  16.188  11.690  0.3105  0.2842  0.0013
28106W        W44953   6.772   3.476  13.460  0.1760  0.0666  0.1260
28107W        W44954   7.676  17.185   3.786  0.2776  0.1555 -0.0519
28108W        W44955   7.655   2.386   1.744  0.0311 -0.0609  0.0533
28109W        W44956  11.109   9.376   1.483 -0.1609  0.1070 -0.1503
28110W        W44957   5.035   1.950  12.961 -0.2073  0.1213 -0.0923
28111W        W44958   3.023   2.499  13.672  0.2109  0.1509 -0.1613
28112W        W44959   7.297  14.448   9.277  0.1194 -0.0040 -0.1812
28113W        W44960   8.148   1.857   2.453 -0.3026 -0.5193  0.1261
28114W        W44961   2.721  15.789  10.914  0.1367  0.3074 -0.2156
28115W        W44962  12.321   3.477   3.492  0.3663 -0.0010 -0.0679
28116W        W44963  16.852  15.525   3.315 -0.1689  0.1623  0.1723
28117W        W44964  11.089   5.896   3.721  0.0563  0.2303  0.0992
28118W        W44965   6.685  16.342  13.242  0.0572  0.1668  0.1766
28119W        W44966  13.436   0.734   0.667  0.1655 -0.0233  0.0856
28120W        W44967   9.767  18.564  10.465  0.0423  0.2050  0.1437
28121W        W44968   6.591  17.012  10.603 -0.3397 -0.1787 -0.1421
28122W        W44969  17.624   8.809  11.484 -0.0393  0.2112 -0.1204
28123W        W44970  14.004   3.415   2.494  0.1110 -0.1486  0.3257
28124W        W44971   5.575  12.468   4.898  0.5190 -0.2233  0.0300
28125W        W44972   0.048  13.076  10.163  0.0766 -0.1687 -0.0213
28126W        W44973  12.357  18.954  13.108  0.3849 -0.1672  0.0353
28127W        W44974  13.569  16.931   4.223 -0.1286 -0.3627  0.2138
28128W        W44975  18.476   2.694  14.187  0.0611  0.2193 -0.2442
28129W        W44976   3.151  18.745  13.688 -0.1396 -0.1310  0.0068
28130W        W44977  18.720   8.575   2.971  0.3522 -0.1082  0.0797
28131W        W44978  15.277  19.477  13.861 -0.0661  0.3656  0.3438
28132W        W44979   5.048   9.280  12.254 -0.1774 -0.2533  0.2460
28133W        W44980  15.090   3.535  13.022  0.1499  0.2023 -0.2778
28134W        W44981   4.098   1.942  12.957 -0.0991  0.0582  0.0973
28135W        W44982   6.391   1.244  11.306 -0.1502 -0.2165 -0.2523
28136W        W44983   6.774   9.406  11.400  0.0961 -0.2836  0.0625
28137W        W44984  12.654   0.272  13.226 -0.0269  0.0560 -0.0989
28138W        W44985   4.997  12.081   4.029 -0.1535  0.1723 -0.0852
28139W        W44986  18.345  17.045  12.241  0.2108 -0.1584 -0.3799
28140W        W44987   6.102  10.270   3.462 -0.1414  0.1532 -0.4261
28141W        W44988   3.179  10.631   1.390 -0.0640 -0.1518 -0.0660
28142W        W44989  16.452   8.908  11.213 -0.0723  0.0847 -0.2080
28143W        W44990   9.075  11.306  13.470  0.4000 -0.0148  0.5431
28144W        W44991  14.443  13.624  12.509  0.0179  0.1249 -0.1810
28145W        W44992   8.501  11.405   1.192 -0.0328  0.0494  0.0276
28146W        W44993  19.717  15.056   1.208  0.1914  0.3380  0.0773
28147W        W44994   0.213   8.390   1.632 -0.2115 -0.0437  0.0976
28148W        W44995   1.132   5.792  11.253  0.0259 -0.1277  0.3223
28149W        W44996  13.823  18.613  11.629 -0.2909  0.2017 -0.0776
28150W        W44997   8.474   9.252   4.954  0.2986  0.1786  0.1980
28151W        W44998   5.355   9.223   1.893  0.0989 -0.2764 -0.2588
28152W        W44999   9.003   6.296   1.314 -0.1036 -0.0783  0.2227
28153W        W45000  10.922   9.594   9.638  0.2875  0.3067  0.1729
28154W        W45001   9.990  17.950  11.817  0.1427 -0.0888 -0.1052
28155W        W45002  12.110  15.573  10.923  0.0657 -0.5971  0.0797
28156W        W45003  10.958   4.881  11.712 -0.4770 -0.1367  0.0798
28157W        W45004  18.493   8.639   0.822 -0.1398 -0.1465 -0.4741
28158W        W45005  10.659   7.935   4.079  0.0680  0.1048  0.0402
28159W        W45006   8.736   2.044  11.116 -0.2840  0.0343  0.0197
28160W        W45007   6.887  16.003  10.417 -0.3454 -0.0323  0.0614
28161W        W45008   0.249  17.916   3.355  0.0958 -0.0577  0.1328
28162W        W45009  16.502   1.401   0.051  0.1127  0.0209 -0.2850
28163W        W45010  11.210  10.887   1.716  0.0481 -0.0973  0.2919
28164W        W45011   8.926  19.151   4.464 -0.1270 -0.0570  0.0646
28165W        W45012   8.753  19.080   9.457  0.2108 -0.0878 -0.0585
28166W        W45013   1.672  16.935   9.811  0.0941  0.0308  0.2799
28167W        W45014   9.629  17.447   3.796 -0.2892  0.2354 -0.1273
28168W        W45015  17.707  12.416  12.526  0.0936 -0.1170  0.0761
28169W        W45016  10.175   7.021   1.228  0.2602  0.0251 -0.1549
28170W        W45017   0.325  10.722  10.527 -0.1903 -0.1408 -0.4523
28171W        W45018   2.668  18.622  14.241 -0.1546  0.0319  0.1786
28172W        W45019  17.697   3.443  10.478 -0.2666  0.1175 -0.0484
28173W        W45020   4.239   9.841  13.205  0.1627 -0.0877 -0.4134
28174W        W45021   3.036   5.844   3.245 -0.1908  0.0583  0.0373
28175W        W45022   7.401   7.410  11.712  0.0745  0.0130 -0.1624
28176W        W45023  13.773   4.290   3.057 -0.1755  0.2162 -0.2715
28177W        W45024  10.596   0.952   4.320  0.0079 -0.2462 -0.0658
28178W        W45025  19.012  11.954   3.148 -0.2008 -0.2453  0.1785
28179W        W45026   4.112   4.115  13.153  0.1112 -0.0025  0.2692
28180W        W45027  11.528   6.951  11.838 -0.3423 -0.0792 -0.0570
28181W        W45028   9.227  18.136   9.844 -0.0996  0.1314  0.1925
28182W        W45029  12.170  11.563  11.151 -0.1836 -0.1213 -0.0516
28183W        W45030   9.941  18.287   1.917 -0.0744 -0.5188 -0.2009
28184W        W45031  11.847  17.083   2.236  0.2588  0.2863 -0.0663
28185W        W45032   6.174  13.470   3.389  0.0664  0.2083 -0.1389
28186W        W45033   7.977   7.818  12.342 -0.0029  0.0166  0.1054
28187W        W45034  13.884   5.383  11.616  0.2753 -0.3815 -0.4551
28188W        W45035  19.884  12.817   3.133 -0.1056 -0.0000  0.0472
28189W        W45036   5.461  16.200  10.384 -0.0953  0.1029 -0.2421
28190W        W45037  10.324  16.302   1.659 -0.1356 -0.3436  0.3280
28191W        W45038   2.108  19.148  10.565  0.1373  0.5071  0.1710
28192W        W45039   0.493   9.767   3.296 -0.2447  0.0864  0.0494
28193W        W45040   4.353   4.733  12.358 -0.2144 -0.1010  0.4091
28194W        W45041  14.763   3.232   5.025  0.0760  0.1040 -0.0113
28195W        W45042   2.638   1.554  13.889 -0.2436 -0.1554 -0.2217
28196W        W45043  13.804  16.647   4.623  0.0388  0.0336  0.0794
28197W        W45044  17.417   9.470  13.274  0.2242 -0.0010 -0.0452
28198W        W45045   5.576  10.493   0.899  0.0330 -0.1612 -0.1772
28199W        W45046   7.812   3.052  11.979  0.0693 -0.0581 -0.0260
28200W        W45047  18.076  17.184   1.763  0.1135 -0.0709  0.1214
28201W        W45048   3.773  18.491  12.921 -0.1495 -0.0845 -0.2267
28202W        W45049  11.675   9.421  12.971  0.0590 -0.1968  0.0162
28203W        W45050  12.345   2.627   4.792 -0.3605  0.1056 -0.3792
28204W        W45051  19.701   9.265   8.913  0.3014  0.1728 -0.3286
28205W        W45052   4.227  18.587  10.111 -0.1216  0.0149 -0.0871
28206W        W45053   6.264   4.505   4.357  0.3364 -0.0738 -0.0287
28207W        W45054   6.049   3.991   3.127 -0.0345 -0.1083 -0.2712
28208W        W45055  17.147   9.606   1.644  0.3166 -0.2102 -0.1244
28209W        W45056  10.405  15.340  14.252 -0.0306  0.3873 -0.1641
28210W        W45057  10.688  11.587   1.584 -0.3708  0.1524  0.0582
28211W        W45058  19.388   8.272   2.677  0.0450  0.0014 -0.1323
28212W        W45059   9.524   3.714  11.981 -0.1094 -0.2881 -0.0705
28213W        W45060   3.577  13.632   9.928  0.2400  0.5514 -0.0545
28214W        W45061  11.507  13.415  14.240 -0.0686  0.2984 -0.0075
28215W        W45062  15.015   9.514  10.745 -0.3276  0.1021 -0.0379
28216W        W45063  11.125   9.303  10.037 -0.0319  0.0822 -0.3376
28217W        W45064   0.510   7.053  14.136  0.2880  0.0213  0.2320
28218W        W45065  15.597   7.658  12.590 -0.1964 -0.0796  0.2512
28219W        W45066  10.712  15.170   2.422  0.0673 -0.0524  0.0025
28220W        W45067   6.268  11.763   3.489  0.0506  0.0382  0.0312
28221W        W45068  17.356   7.745   1.260  0.0612 -0.1009  0.0070
28222W        W45069   9.121   2.419   9.802  0.0655 -0.2873  0.1281
28223W        W45070   9.239   8.659   3.010 -0.0496  0.0240 -0.2324
28224W        W45071  13.090   5.305   3.187 -0.2143 -0.1178 -0.2989
28225W        W45072  13.507   7.850   0.791 -0.1922 -0.0251  0.1418
28226W        W45073   6.256   1.691  11.066 -0.0559  0.2616  0.0252
28227W        W45074  17.944   7.811  12.617  0.1611 -0.0912  0.0161
28228W        W45075   9.549   8.789  13.737  0.2701 -0.3561 -0.1216
28229W        W45076  18.476  16.002   3.396  0.1930 -0.0812 -0.1975
28230W        W45077  15.178  10.459   0.351 -0.1046 -0.2963  0.0218
28231W        W45078   0.422  18.339   4.253  0.0853 -0.2605  0.1540
28232W        W45079  17.364  16.595   0.476  0.1409  0.1352  0.0498
28233W        W45080  14.932  13.361   4.716  0.0038  0.1134 -0.3181
28234W        W45081   1.553   3.584   2.802  0.3308  0.2516 -0.3844
28235W        W45082  16.718  19.907  10.973 -0.0697  0.3014 -0.3423
28236W        W45083   0.143   0.136  13.450  0.0436 -0.0841  0.2084
28237W        W45084  14.529  14.917   4.233 -0.1541  0.0316 -0.1922
28238W        W45085  17.611  18.133   2.476 -0.1742 -0.1497 -0.1384
28239W        W45086  18.423  14.259   5.050  0.1236 -0.0443 -0.0369
28240W        W45087  14.476   7.535   3.669  0.4097  0.0219 -0.1778
28241W        W45088   8.900  12.905   1.840  0.0730 -0.0222  0.0782
28242W        W45089   5.199   0.557   4.192 -0.0125 -0.0916 -0.3300
28243W        W45090   3.719  11.820   2.022 -0.2014 -0.0118 -0.0988
28244W        W45091   6.525  12.416  11.903 -0.4110  0.1635  0.0034
28245W        W45092  17.961   2.233   1.748  0.1687  0.0031 -0.0808
28246W        W45093  10.984  11.965   0.019  0.3028  0.0937 -0.2764
28247W        W45094   7.219   6.257   3.900 -0.0019  0.1718  0.1260
28248W        W45095  11.734  19.660  11.671  0.0360 -0.2382 -0.1061
28249W        W45096  19.661   8.301   1.293 -0.0143 -0.0019 -0.1296
28250W        W45097  19.291   4.522   0.107 -0.0872  0.0316 -0.2248
28251W        W45098  17.522  12.596  11.620 -0.0564  0.0318  0.2404
28252W        W45099   0.529  19.625   2.987  0.0828  0.1588 -0.0595
28253W        W45100   4.987   4.794   2.485  0.1082 -0.1668 -0.1533
28254W        W45101  11.276  17.085  11.362  0.1492 -0.0656 -0.1032
28255W        W45102   4.583   1.202   1.778  0.1193 -0.2884 -0.0865
28256W        W45103   0.506   9.414   4.327  0.2216  0.0709  0.1079
28257W        W45104   0.986   8.750   9.954  0.2183 -0.1093  0.0278
28258W        W45105   9.323  10.726  10.502 -0.1212  0.3242  0.2533
28259W        W45106  16.225  15.637   4.389 -0.1189  0.1348  0.1125
28260W        W45107  13.764  12.355   1.565  0.0792 -0.0342  0.3967
28261W        W45108   3.076  13.868  11.576 -0.3096 -0.0128 -0.3339
28262W        W45109   4.732  17.137  14.234 -0.1783  0.0639  0.1252
28263W        W45110   8.866  14.614   0.584 -0.3809 -0.1253 -0.4061
28264W        W45111   7.611  19.026   3.218 -0.4856 -0.1165 -0.3279
28265W        W45112   4.759   7.333   1.210  0.0825 -0.1186  0.2761
28266W        W45113   7.754   2.118   0.094 -0.0982 -0.1150  0.0318
28267W        W45114   0.519  17.821  11.891  0.1463  0.0016 -0.0365
28268W        W45115  12.565  14.562  13.140  0.2536  0.3289 -0.2104
28269W        W45116  13.214  13.333   0.769 -0.1990  0.2276 -0.1033
28270W        W45117   5.390   4.505   4.297  0.1406 -0.3779  0.4300
28271W        W45118   7.910  18.019   1.707  0.2097 -0.0315 -0.0042
28272W        W45119  10.028  16.893  13.304 -0.1220  0.1349  0.0078
28273W        W45120  15.084   2.742  13.202 -0.0488  0.1768 -0.0212
28274W        W45121   9.774  11.822   1.278 -0.0053  0.1991  0.2557
28275W        W45122   2.951   1.419   4.782  0.0217 -0.1696 -0.0283
28276W        W45123  17.520   8.351   3.451 -0.3428 -0.0151  0.1470
28277W        W45124   2.725  14.975  12.832 -0.0439 -0.0519 -0.4799
28278W        W45125  15.930   3.565   1.141  0.2839 -0.0819 -0.0200
28279W        W45126  18.970  14.378   2.133  0.0657 -0.0867 -0.0252
28280W        W45127   6.690   0.299  10.863  0.0666  0.2377  0.0495
28281W        W45128  14.897  11.265   2.865 -0.0428 -0.0056 -0.0339
28282W        W45129   7.857  16.655  13.496 -0.3300  0.2232 -0.2287
28283W        W45130   1.983  11.822  13.172  0.0425  0.1102 -0.1408
28284W        W45131   2.724   3.666  13.192 -0.1865 -0.0124 -0.1329
28285W        W45132  17.802   6.709  13.583  0.0258  0.1264  0.1394
28286W        W45133   0.157   9.854   0.840  0.0399 -0.0407 -0.2002
28287W        W45134  13.462   8.716   0.996 -0.0467  0.0525  0.1411
28288W        W45135   5.521  11.533   3.145  0.1817  0.1383  0.1136
28289W        W45136  11.250   7.324  12.455  0.0936 -0.1213  0.2855
28290W        W45137   7.280  12.359   0.155 -0.0229  0.1393 -0.0527
28291W        W45138  10.840  19.621  11.819 -0.0457  0.2770 -0.1769
28292W        W45139   1.754   3.739   5.405  0.2708 -0.3492  0.0681
28293W        W45140  13.842  10.486  12.385  0.1730 -0.1787 -0.1170
28294W        W45141   2.873  13.780  13.656  0.2962 -0.4097 -0.1001
28295W        W45142  14.988  17.968  11.683  0.0692 -0.0036 -0.2207
28296W        W45143  13.511  16.416   1.357 -0.1256  0.1990  0.4636
28297W        W45144   3.551   7.873  11.623 -0.1512 -0.4456 -0.0834
28298W        W45145  17.519  16.171   0.788  0.0145 -0.1361  0.0635
28299W        W45146  17.725   3.723   4.551  0.0587  0.0006  0.0632
28300W        W45147  11.214   5.308  10.890  0.2014  0.4304  0.0291
28301W        W45148   5.642   7.435  12.378 -0.1328 -0.1064  0.2336
28302W        W45149   4.781  15.227   9.910 -0.0160  0.0428 -0.4489
28303W        W45150   0.291   6.179   1.856  0.4540 -0.2792  0.0374
28304W        W45151  12.035   3.989  14.123 -0.0720 -0.0787 -0.0120
28305W        W45152   6.776   9.662  12.917 -0.0000  0.4287  0.1947
28306W        W45153  14.432   7.592  12.531  0.0326  0.2189 -0.1648
28307W        W45154  19.711   2.814   0.501  0.1832 -0.0509  0.1896
28308W        W45155  11.436  13.604   2.404 -0.1520 -0.0141 -0.3231
28309W        W45156   6.019   5.630   2.246  0.0685  0.2188  0.2756
28310W        W45157  13.319  10.476   3.700  0.1079 -0.5531 -0.2830
28311W        W45158   1.781   1.119   2.734  0.1216  0.3048 -0.0849
28312W        W45159   5.479  13.350   0.427 -0.0063 -0.1676  0.1454
28313W        W45160   8.331   5.582   5.150 -0.0480  0.0426 -0.0851
28314W        W45161  17.908  19.667  12.697 -0.1704  0.0605  0.0401
28315W        W45162  19.086  19.910  11.141  0.0961  0.2538  0.1737
28316W        W45163  11.868  16.920   3.723 -0.3768  0.0450  0.0135
28317W        W45164   3.328   6.203   4.138  0.1392  0.1549 -0.0262
28318W        W45165  11.372   3.564  11.464  0.1278  0.1052  0.1327
28319W        W45166   3.220   9.347   3.293  0.0733  0.1213  0.0596
28320W        W45167   2.135   4.003   9.787 -0.5401 -0.0385 -0.1159
28321W        W45168  17.058   2.183  12.236 -0.2123  0.1013  0.0204
28322W        W45169  13.188  13.989   3.957  0.0157  0.0365 -0.1458
28323W        W45170   0.384   0.833  10.797 -0.0028  0.0718 -0.0670
28324W        W45171  18.194   1.827  12.210  0.0487 -0.1000  0.3060
28325W        W45172   9.417  16.646  12.890 -0.1881 -0.0882  0.0356
28326W        W45173   4.709  10.498   3.115  0.2876 -0.3212  0.1832
28327W        W45174   4.034   0.151   2.799 -0.3789 -0.0561 -0.0762
28328W        W45175  17.680  15.940   5.431  0.0448 -0.2704 -0.0579
28329W        W45176   8.535   2.006   4.343 -0.2837 -0.0234  0.5674
28330W        W45177  13.959   5.856   1.485  0.2141  0.0384  0.0094
28331W        W45178  12.170  15.382   0.691 -0.0501 -0.2178 -0.0765
28332W        W45179   5.337   0.673   0.571  0.1438  0.0814 -0.1243
28333W        W45180  15.175   6.505   4.367  0.1502  0.0848 -0.0051
28334W        W45181  17.260   3.604   1.572  0.0062 -0.1718  0.0354
28335W        W45182  11.496  12.649  10.610 -0.0269 -0.0624  0.2752
28336W        W45183  14.918  15.070  12.156 -0.0491 -0.0782 -0.2750
28337W        W45184  17.981   2.086  11.769  0.2076 -0.0555 -0.2996
28338W        W45185  17.209  19.152  11.206  0.1071 -0.3173 -0.1798
28339W        W45186   6.628  11.916  11.894  0.0324  0.2410  0.3119
28340W        W45187   8.399  18.751   1.938 -0.0005 -0.1538  0.2286
28341W        W45188  17.231   5.199   1.419 -0.1106  0.0940  0.0393
28342W        W45189  13.534   8.654   4.339  0.1552  0.3276  0.0168
28343W        W45190  18.247   0.095   4.583  0.0342 -0.0387  0.0368
28344W        W45191  11.178  14.402   2.773  0.0629 -0.0226  0.3012
28345W        W45192  11.534   9.202   0.302 -0.0439  0.0692  0.2399
28346W        W45193   4.392  11.473   1.368  0.2918  0.4050 -0.0152
28347W        W45194   7.287  16.139  10.813  0.1250 -0.0789  0.2657
28348W        W45195  17.976  13.488   1.511  0.0403  0.0758 -0.1679
28349W        W45196  14.253  18.895  10.919 -0.1111  0.1711  0.0741
28350W        W45197   8.440  18.967  13.928 -0.0837  0.3007 -0.0028
28351W        W45198   0.565   7.931  11.335  0.0050 -0.1114  0.2164
28352W        W45199   8.263   2.051  11.090 -0.0414  0.1456  0.2683
28353W        W45200   5.573   6.413   2.082 -0.2542 -0.2584 -0.0849
28354W        W45201  11.325  13.084  13.272  0.0200  0.0400  0.4024
28355W        W45202   6.402  16.556   3.257  0.2470  0.4914  0.0032
28356W        W45203  11.813  18.914  14.050 -0.0309 -0.0794 -0.5030
28357W        W45204   4.818   4.205  10.096 -0.2126  0.0369 -0.3767
28358W        W45205   0.931   0.106   0.162 -0.1395 -0.1955 -0.1708
28359W        W45206  17.199   6.081   4.248 -0.1332 -0.2779 -0.0753
28360W        W45207  10.766   1.477   4.568 -0.0754  0.0750 -0.0001
28361W        W45208  19.872  14.350  12.683  0.1230  0.0018  0.1412
28362W        W45209  12.145   6.903  13.721  0.2297 -0.0933  0.1547
28363W        W45210   4.671  17.236  10.782 -0.0049 -0.1106 -0.1621
28364W        W45211  13.139  18.074  10.516 -0.0175 -0.1807 -0.1234
28365W        W45212  18.349  18.526   4.527 -0.0825  0.1868  0.1383
28366W        W45213  19.851  19.525  12.761 -0.0309  0.0176  0.0211
28367W        W45214   8.068  13.168   1.771  0.0843  0.1073  0.0738
28368W        W45215   2.418  13.442  11.953 -0.2900  0.1060 -0.3636
28369W        W45216   5.219   9.079   2.466 -0.0520 -0.0516  0.0645
28370W        W45217  14.687   7.041   2.660 -0.3312  0.1369 -0.0509
28371W        W45218  10.895  16.291  12.296 -0.0717  0.0575 -0.0192
28372W        W45219  19.724   1.803   0.050  0.0623  0.1008 -0.2037
28373W        W45220  10.288   1.244  10.850 -0.2467  0.1142  0.1925
28374W        W45221  19.912  11.910  13.066 -0.0103  0.0028  0.3221
28375W        W45222  14.846  10.696   2.947  0.2586 -0.1501  0.1543
28376W        W45223   6.691   3.577   2.797  0.1230 -0.3343  0.6351
28377W        W45224  17.999   1.804   3.855  0.0287 -0.1202 -0.0574
28378W        W45225   0.886   4.741   2.472  0.0896 -0.0660 -0.1157
28379W        W45226  16.829   7.273   1.815  0.0785  0.0243 -0.3196
28380W        W45227  11.301  16.049   1.210  0.0453  0.0006 -0.0417
28381W        W45228   1.213  12.493  10.192  0.1603 -0.1719  0.2106
28382W        W45229  12.699   0.638  12.888 -0.0268 -0.3391 -0.1069
28383W        W45230  11.597   9.634   4.295 -0.0747  0.5624  0.1857
28384W        W45231   6.867  13.388   0.842  0.0047  0.0811  0.0705
28385W        W45232  10.770   7.408  14.169 -0.0095 -0.2082 -0.1804
28386W        W45233   4.993   1.599   9.231  0.1095 -0.2410  0.0613
28387W        W45234   3.310   9.131  13.216  0.1778  0.2932 -0.0533
28388W        W45235   6.585  15.247  13.236  0.0580 -0.1474 -0.1388
28389W        W45236   0.245  10.397  13.406 -0.2290  0.3222 -0.1456
28390W        W45237  14.490   8.957  11.073  0.0224 -0.4687  0.1194
28391W        W45238  12.575   8.640  14.172 -0.4134 -0.4038 -0.1573
28392W        W45239   0.151   3.937   3.393  0.0321 -0.2121 -0.0501
28393W        W45240   5.539  18.904  13.378  0.4242 -0.2502 -0.1991
28394W        W45241  16.019  13.591   1.853  0.6346 -0.0826 -0.3724
28395W        W45242   3.849   2.189  10.249 -0.1321  0.1269 -0.0294
28396W        W45243  19.723  13.609   4.808 -0.0939 -0.0055  0.1758
28397W        W45244   2.980  12.345   1.319  0.0909  0.1650 -0.0998
28398W        W45245   0.412   0.421   1.765  0.0858  0.2343  0.0956
28399W        W45246   7.962  10.037   1.816 -0.0663  0.1435  0.2169
28400W        W45247  18.784  10.348   1.196  0.0363  0.1019 -0.1721
28401W        W45248   5.732   9.533   1.670 -0.0475  0.0854 -0.2883
28402W        W45249   2.132  18.537   0.747  0.0382 -0.1469  0.2777
28403W        W45250  10.866  16.703   3.128 -0.0291  0.1725  0.1107
28404W        W45251  16.004  11.866   0.351  0.0171 -0.0610  0.0264
28405W        W45252   1.982  14.407  13.879  0.0712  0.1499 -0.3274
28406W        W45253   8.843   0.220   9.784 -0.0357  0.2541 -0.3423
28407W        W45254   5.004   8.701  10.800 -0.0364 -0.3864 -0.0891
28408W        W45255  12.588  18.676   0.241  0.1105 -0.1239  0.1463
28409W        W45256   2.046  14.740   9.800  0.2167 -0.0690 -0.0148
28410W        W45257  13.014  10.292   9.629  0.1079 -0.1228 -0.1991
28411W        W45258  18.016  14.111  13.727  0.5127 -0.3622  0.2323
28412W        W45259   4.609  14.195   3.992 -0.5121 -0.5471  0.0189
28413W        W45260  11.112  18.606  13.483 -0.2798 -0.2420 -0.0706
28414W        W45261  10.353  10.982   2.919  0.3422 -0.2741  0.3523
28415W        W45262   8.081  15.463   3.252  0.0578  0.2789  0.0111
28416W        W45263   9.535   6.593   2.358  0.1057 -0.2813  0.1954
28417W        W45264   0.634  15.893   3.344  0.1441 -0.1387 -0.2095
28418W        W45265  10.309   8.905   1.721  0.2207  0.4127  0.2135
28419W        W45266  19.028  16.358  10.757  0.2054  0.2589 -0.1028
28420W        W45267   3.930   7.773   0.641  0.2429 -0.2323 -0.0133
28421W        W45268  11.925   2.176   0.448 -0.1366 -0.1034  0.0076
28422W        W45269   2.362   5.100   1.731  0.0714 -0.4795 -0.1276
28423W        W45270   8.272  16.715  13.167  0.1233  0.0490  0.0626
28424W        W45271   6.391  11.108  11.989 -0.1286 -0.2058  0.1172
28425W        W45272  17.671  15.740   0.244 -0.2917 -0.1668  0.1963
28426W        W45273  13.722  11.535  12.525  0.1018 -0.3578  0.0123
28427W        W45274   6.102   8.747  11.981  0.4341  0.1416  0.2958
28428W        W45275  15.468  18.917   1.195  0.2441 -0.1147  0.0591
28429W        W45276  15.676  15.421  12.444 -0.0922 -0.1293  0.1173
28430W        W45277   1.102  11.891  10.863  0.1135  0.2093 -0.3756
28431W        W45278  11.909  13.589   4.972 -0.2536  0.1104  0.2374
28432W        W45279   5.720  18.193  11.089 -0.5173  0.2152  0.2268
28433W        W45280  19.362  17.968   0.915  0.3123  0.1257 -0.1468
28434W        W45281   1.785  15.797  10.783 -0.1129 -0.0786  0.0128
28435W        W45282   1.113  14.405   3.144  0.0716  0.1934 -0.0928
28436W        W45283   5.779  16.781   4.650  0.1896  0.1406  0.0910
28437W        W45284  12.116   4.270  11.135 -0.0544 -0.1968  0.1589
28438W        W45285  15.873   9.870   4.611 -0.3911 -0.0162 -0.1979
28439W        W45286   4.192   8.699   1.999 -0.1037 -0.0830 -0.1584
28440W        W45287  16.688  12.093   3.393  0.0021  0.0864 -0.3256
28441W        W45288  17.884   1.870  13.851  0.0561 -0.4910  0.0590
28442W        W45289   3.346   8.262  11.330  0.0250  0.1301  0.0655
28443W        W45290   0.944   1.427   2.646  0.2300  0.4776 -0.0644
28444W        W45291  10.348  14.175  12.770  0.2419 -0.0703  0.2340
28445W        W45292   2.687   9.347  11.932 -0.0763  0.1019  0.1156
28446W        W45293  19.457   8.840  13.329 -0.1956  0.4098  0.3044
28447W        W45294   4.355  17.394   2.198 -0.1291 -0.0475 -0.2292
28448W        W45295  15.447   5.487  13.092 -0.2295 -0.0571  0.0414
28449W        W45296   5.019  13.206   0.352 -0.2209 -0.1209 -0.1888
28450W        W45297  18.530  16.978   0.675  0.0938 -0.1475 -0.0688
28451W        W45298  15.811  10.167   9.813 -0.0136  0.1609  0.2342
28452W        W45299   1.637  14.981   3.655 -0.0259 -0.2101 -0.0169
28453W        W45300  19.390  17.455  11.169  0.1776 -0.0701  0.0202
28454W        W45301  19.183  13.405   2.919 -0.1809  0.0953  0.4805
28455W        W45302   8.012   9.018   2.206 -0.4726 -0.2263  0.0012
28456W        W45303  17.233  16.783   1.567 -0.0717  0.2021 -0.2112
28457W        W45304  17.376   4.006   1.209  0.0476 -0.0523 -0.2478
28458W        W45305   2.060   8.201   4.524  0.0258  0.0560  0.0687
28459W        W45306  19.370   7.113  10.204  0.0381  0.1084  0.0220
28460W        W45307  16.663   3.689  14.157  0.0826 -0.0055  0.1802
28461W        W45308   9.727   1.717   9.518  0.0180 -0.1462 -0.2348
28462W        W45309  18.364  16.679   2.716 -0.1930 -0.1319  0.0996
28463W        W45310   7.973  14.418   2.470  0.1395 -0.0309 -0.0205
28464W        W45311   1.369  10.213   4.105  0.0710  0.1444  0.1690
28465W        W45312   9.184  19.544   5.154  0.0226 -0.1373 -0.1011
28466W        W45313  13.334  19.659   1.452  0.0097 -0.2241 -0.3162
28467W        W45314  15.599   2.246  11.298  0.3983  0.2379  0.0834
28468W        W45315   8.969   7.221   3.521 -0.2750 -0.0204 -0.2814
28469W        W45316   2.688   2.900   2.309 -0.2303 -0.3811  0.0402
28470W        W45317   1.132   8.005   0.914 -0.4096 -0.0755  0.3424
28471W        W45318   1.876   4.521  11.206  0.2646 -0.1143  0.2995
28472W        W45319   0.204   7.009   2.280 -0.0579  0.2469 -0.0454
28473W        W45320   2.921   0.419  12.643  0.0830  0.0661 -0.2965
28474W        W45321  17.478  13.948   3.606  0.2895  0.2184 -0.3612
28475W        W45322   8.985  17.651   9.933  0.2431 -0.2596 -0.0092
28476W        W45323  17.862  10.116   3.738 -0.3261 -0.2048  0.0886
28477W        W45324  13.480   1.671  13.046  0.2157  0.0437 -0.2716
28478W        W45325   7.754  14.193   9.241 -0.0126  0.0981 -0.1442
28479W        W45326  16.665   0.506  11.488  0.1944  0.1965  0.0862
28480W        W45327   2.501   8.243   1.805 -0.0165 -0.0350 -0.2751
28481W        W45328   3.003  14.075   0.113  0.0894 -0.1259 -0.0744
28482W        W45329  11.426   8.280  11.810 -0.0915 -0.0181 -0.2982
28483W        W45330  19.827  13.572   3.887  0.1436 -0.0255 -0.0014
28484W        W45331  12.925  12.503   1.094 -0.2065 -0.0232  0.2733
28485W        W45332  16.414   4.512  13.993  0.2449  0.0292 -0.1942
28486W        W45333  15.728  14.171   1.069  0.0623  0.2711  0.1878
28487W        W45334   0.104  17.562   0.661  0.1860 -0.1580  0.3223
28488W        W45335   4.540   6.537  12.256  0.0760  0.1112 -0.0053
28489W        W45336   7.339   6.672  11.194  0.1527 -0.3573  0.2593
28490W        W45337   9.053   6.671  13.803 -0.0770 -0.0472  0.5515
28491W        W45338  17.725   9.059  14.162  0.3552 -0.1504  0.2418
28492W        W45339  14.513   1.793   4.477  0.0256  0.1511  0.0020
28493W        W45340   1.517   3.435  14.228  0.0672  0.1285  0.0058
28494W        W45341  19.138  19.507  12.047  0.0597  0.0209 -0.0057
28495W        W45342  16.657   5.190   2.145  0.0202 -0.1170  0.0129
28496W        W45343  11.995   5.693   0.042  0.3529 -0.1224 -0.2263
28497W        W45344   9.774  13.937  12.734 -0.4716  0.0917 -0.1173
28498W        W45345   4.333   8.803   1.473 -0.5979 -0.0053  0.0729
28499W        W45346  16.195  15.265   0.015 -0.2442  0.0510 -0.2057
28500W        W45347   7.060  17.348  12.069 -0.0698  0.0317 -0.0181
28501W        W45348  13.449   4.680  13.360 -0.3719  0.0053  0.2456
28502W        W45349  10.855  13.102   2.823  0.0889  0.0352  0.0645
28503W        W45350  19.006  11.064   3.630 -0.1827 -0.1427  0.0871
28504W        W45351  11.331  10.243   9.931  0.0076 -0.0195  0.0859
28505W        W45352   8.729  16.736  12.898  0.1042 -0.2179  0.1683
28506W        W45353   4.507   9.920   1.355 -0.0505  0.1955  0.0584
28507W        W45354   9.242  19.421  11.819 -0.2577 -0.1370 -0.2652
28508W        W45355  12.046  16.918  13.013 -0.0166  0.0493 -0.0585
28509W        W45356   8.474   2.086  14.134 -0.0330  0.0800  0.0630
28510W        W45357  10.446  16.568   4.596  0.2088 -0.2738 -0.3533
28511W        W45358   0.294  19.310   4.106  0.0489  0.1363 -0.1038
28512W        W45359  12.643   9.814  10.858  0.0657  0.1977  0.0820
28513W        W45360  16.236   0.401   2.536  0.0565  0.0976 -0.0125
28514W        W45361  18.612  14.851  13.335  0.1368 -0.1831  0.2218
28515W        W45362  15.228  19.128   3.017 -0.1267  0.1658 -0.3029
28516W        W45363  12.810   0.148   0.735 -0.0929 -0.0935  0.0500
28517W        W45364   5.976  10.501  10.576  0.1784 -0.3236  0.1295
28518W        W45365   3.205  15.645   5.060 -0.0985 -0.0365  0.0459
28519W        W45366   8.994  12.702  13.730  0.1279 -0.0656  0.2141
28520W        W45367  11.198  17.020   0.388  0.0892 -0.1560  0.1442
28521W        W45368   0.529  18.967  11.411 -0.1202  0.0119  0.0469
28522W        W45369   1.820  14.446   3.441  0.1145  0.0359  0.3196
28523W        W45370  15.787  17.665   0.596 -0.1644 -0.3039  0.0306
28524W        W45371   3.957  10.248   2.181 -0.0761 -0.2928  0.0151
28525W        W45372  19.746   9.613  13.093  0.1662  0.4178  0.0737
28526W        W45373  13.609   2.746  11.087 -0.1060  0.2023  0.2089
28527W        W45374  14.584  12.733  13.976  0.0214 -0.2350 -0.2537
28528W        W45375  18.346  18.920  11.962  0.2029  0.0229 -0.0443
28529W        W45376   9.756  16.145  10.780 -0.0128  0.1314 -0.0687
28530W        W45377   5.960   3.161   0.387 -0.2027  0.0690  0.0806
28531W        W45378  14.905   5.116   2.881  0.0428 -0.1165 -0.1123
28532W        W45379   2.214   9.286  10.506  0.2444 -0.1578  0.0658
28533W        W45380  15.492   4.746  10.968 -0.1079 -0.1952  0.1544
28534W        W45381   0.356   3.489   1.912  0.0702 -0.0342 -0.1316
28535W        W45382   8.718   8.081   4.067 -0.1149 -0.2369  0.0951
28536W        W45383  11.817   1.893   3.758  0.0022 -0.0426 -0.1775
28537W        W45384  12.867  15.319  11.524  0.5921  0.1725  0.0885
28538W        W45385  18.408   2.555   1.584 -0.1504 -0.2265 -0.0532
28539W        W45386   0.263   4.482   4.075  0.2465  0.0990 -0.3032
28540W        W45387   2.107   0.909   2.210  0.2764  0.0813 -0.0495
28541W        W45388   7.578   7.263  11.238  0.0296 -0.4058  0.2414
28542W        W45389  16.414   8.908   4.398  0.0978 -0.3042 -0.0044
28543W        W45390  16.717   9.739  12.381  0.1741 -0.2760 -0.4521
28544W        W45391   2.173   9.045  12.612 -0.1613 -0.3333  0.2321
28545W        W45392  11.987   1.011   5.209 -0.1378  0.0238  0.0604
28546W        W45393  11.723  19.066   2.896 -0.0482  0.0463 -0.2226
28547W        W45394   9.291  15.595  13.276  0.0125 -0.2847  0.1109
28548W        W45395   2.883   5.931  12.615  0.0761  0.2987  0.1234
28549W        W45396  10.208  14.533   0.861 -0.0963 -0.0507  0.2713
28550W        W45397   6.851  13.817  10.908  0.0608  0.2140 -0.1023
28551W        W45398   9.967   4.640   4.220 -0.1041  0.0194 -0.2212
28552W        W45399  15.589  12.635  13.378  0.3895 -0.0824 -0.2962
28553W        W45400  11.185   8.417  10.817  0.1977 -0.0168 -0.4019
28554W        W45401  16.531  18.155   1.721 -0.0037 -0.3267  0.0928
28555W        W45402  13.820   6.088  11.004 -0.2698 -0.0305 -0.0915
28556W        W45403   4.207   2.540  10.109 -0.0248 -0.2855  0.0747
28557W        W45404  10.993  15.234   5.162 -0.1050  0.0306 -0.1860
28558W        W45405   4.722   0.250   1.558  0.3785  0.1051 -0.1659
28559W        W45406  19.717  12.712   4.438  0.1455 -0.1906  0.0581
28560W        W45407  12.511  10.861  14.204 -0.0270 -0.1092  0.2246
28561W        W45408  15.747  11.488   4.102 -0.0314 -0.1710  0.0419
28562W        W45409  17.368  14.474  13.068 -0.0715 -0.2055  0.1048
28563W        W45410  18.635  11.006  10.082  0.1769  0.0207  0.0865
28564W        W45411  14.847  14.492   2.180 -0.2663 -0.2390  0.2227
28565W        W45412   4.931  18.180  13.435  0.0329 -0.3488 -0.1521
28566W        W45413  12.147   6.065  10.175 -0.0834 -0.0527  0.0230
28567W        W45414  15.947   5.256  10.387 -0.1729  0.1177 -0.0197
28568W        W45415  12.909  13.474   3.246 -0.0427 -0.1681  0.1373
28569W        W45416   4.923  13.162   0.896 -0.0807 -0.0712  0.2363
28570W        W45417   3.052   1.516   9.295  0.0115  0.0198 -0.1271
28571W        W45418  13.855   5.749   3.490 -0.2122 -0.0973 -0.0354
28572W        W45419  18.508   1.175  10.888  0.0105 -0.3143 -0.1495
28573W        W45420   7.628   0.363   9.838  0.3600  0.3925 -0.1387
28574W        W45421   6.552  10.829  14.203  0.0924  0.2369  0.1794
28575W        W45422   0.599  13.436   2.278  0.3132 -0.1186  0.1009
28576W        W45423   2.472  13.345   3.953  0.1783  0.0967  0.0012
28577W        W45424  18.978  13.773  12.493  0.0799 -0.0368  0.3390
28578W        W45425  12.940  18.368   9.013 -0.0514  0.0950  0.0104
28579W        W45426  15.987  15.301   4.657 -0.2030 -0.0356 -0.0164
28580W        W45427   9.163   4.348   4.191 -0.0192 -0.2444  0.0635
28581W        W45428  13.396  13.986  10.970 -0.1808  0.0751 -0.0986
28582W        W45429   1.045   4.219  14.308  0.2289 -0.1141 -0.0058
28583W        W45430   4.133   3.648  10.138 -0.0747  0.1144  0.1340
28584W        W45431   2.065   1.133   3.659 -0.0015 -0.0895  0.0843
28585W        W45432   8.204   6.898   1.914 -0.2316 -0.1966  0.0912
28586W        W45433   8.185   8.357  12.740  0.1273  0.0368  0.0893
28587W        W45434   8.916   4.963  11.740 -0.1688  0.1191 -0.1568
28588W        W45435   5.568  11.449  11.945 -0.0720 -0.2437 -0.0470
28589W        W45436   4.758   2.205  14.090 -0.0148  0.0084  0.2672
28590W        W45437   8.427   5.567   2.805  0.0556  0.0778 -0.3652
28591W        W45438   5.443   7.198  10.016  0.2957 -0.2696  0.0256
28592W        W45439   1.625  13.081   0.386  0.4686  0.2180 -0.0339
28593W        W45440   6.657  12.569   2.116 -0.0803  0.1279 -0.0829
28594W        W45441   3.104   7.465   9.866  0.0974 -0.2499  0.1354
28595W        W45442  15.629   1.565   3.031 -0.0754  0.2258  0.3755
28596W        W45443   3.481   2.961   9.522  0.1422  0.2079  0.1118
28597W        W45444  15.871   2.195   0.693  0.2762 -0.2937  0.0680
28598W        W45445   8.582  17.624   0.751 -0.1529 -0.0987  0.0296
28599W        W45446   2.215  11.514  11.792 -0.1073 -0.4269 -0.4681
28600W        W45447  12.172   9.356  11.451 -0.1610 -0.0879  0.1861
28601W        W45448  14.876  19.008   3.744 -0.1881  0.3712  0.2506
28602W        W45449   2.412   6.534   0.999  0.1358  0.1367  0.1090
28603W        W45450  14.094   7.037  11.874 -0.1535  0.1791 -0.0072
28604W        W45451  12.582  16.965   0.644  0.1883 -0.0853  0.1576
28605W        W45452   3.774  13.102   4.559  0.1161  0.4023  0.1416
28606W        W45453   3.629   1.701  10.758 -0.2431  0.0141 -0.2882
28607W        W45454   4.186   4.839   3.991  0.3260 -0.1092  0.0347
28608W        W45455  17.064   0.103  10.610  0.1647  0.2074 -0.0671
28609W        W45456   4.181  19.408  13.129  0.2465 -0.1935  0.0009
28610W        W45457  11.409  19.206  14.132 -0.0178  0.0626  0.2563
28611W        W45458  12.751  11.089  13.356 -0.0435 -0.1290 -0.1920
28612W        W45459  11.345   3.398  11.986  0.1209  0.2231  0.2454
28613W        W45460  16.453   3.450   2.707 -0.0287  0.0445  0.2603
28614W        W45461   9.243  19.330   0.593  0.2188 -0.2217  0.1716
28615W        W45462  11.840   6.537  10.932 -0.1203 -0.1638  0.1119
28616W        W45463   1.470  11.099  13.613  0.0211 -0.2249  0.0529
28617W        W45464  10.657  14.404  10.612 -0.1815 -0.3516  0.2987
28618W        W45465  17.053  11.350   2.189 -0.1807 -0.2928  0.0847
28619W        W45466  18.213   0.776   2.373  0.1662 -0.0063  0.1063
28620W        W45467  16.861  12.145   2.099 -0.1879 -0.1032 -0.0185
28621W        W45468  11.667  10.877  13.037  0.1676 -0.0673  0.0542
28622W        W45469  19.166  19.337  12.603  0.2530 -0.1907  0.0154
28623W        W45470  10.320   0.733   2.329 -0.0924 -0.3004  0.2970
28624W        W45471   5.097  17.236  10.238  0.2506 -0.1456  0.2513
28625W        W45472  10.322   3.978  13.685 -0.2139 -0.0243 -0.0938
28626W        W45473  10.371   0.665  13.574 -0.1071  0.1812  0.1562
28627W        W45474   5.442   6.994   1.961  0.0286  0.0443  0.0680
28628W        W45475  14.091   0.745  14.176 -0.0188 -0.0378  0.1858
28629W        W45476  18.036  15.174  12.669 -0.0492 -0.0379  0.4267
28630W        W45477  11.865   8.031  10.007  0.0038 -0.0721 -0.1517
28631W        W45478   9.056   1.042   1.360  0.1775 -0.1881 -0.1068
28632W        W45479  17.039   0.986   4.705 -0.1111 -0.4110  0.3122
28633W        W45480  14.717  19.338   9.117 -0.0179  0.0124  0.2254
28634W        W45481   3.935   4.530  12.212  0.2052  0.1802 -0.2559
28635W        W45482   7.716  12.352  10.559  0.0665 -0.0693 -0.0105
28636W        W45483  14.888  13.112   4.030  0.0983  0.1698  0.0993
28637W        W45484  15.188   7.891   2.556  0.0653 -0.0778 -0.2211
28638W        W45485   6.859   0.578  11.779 -0.1677 -0.1439 -0.3076
28639W        W45486  16.108   7.240  12.179 -0.0294  0.1735  0.0337
28640W        W45487  16.323  15.503  11.712 -0.2149  0.0003 -0.1711
28641W        W45488   3.198   2.334   2.073  0.0783 -0.0488 -0.0681
28642W        W45489  15.654   1.263  13.623  0.1588  0.1961 -0.1359
28643W        W45490  18.532  19.038   1.851  0.2225  0.1436 -0.2571
28644W        W45491  13.257   1.727  10.821  0.2722  0.1363 -0.1796
28645W        W45492   6.710   3.539   9.857 -0.0919 -0.0512 -0.3447
28646W        W45493  18.674  14.027   1.314 -0.1479 -0.1552 -0.2850
28647W        W45494  14.210  15.953   0.250  0.3209 -0.0957  0.1851
28648W        W45495   7.175   4.933  12.508 -0.0736 -0.1409 -0.0397
28649W        W45496   1.359   9.308  10.613  0.0133  0.2716 -0.0323
28650W        W45497   3.788   7.706  10.206  0.0267 -0.2497 -0.2413
28651W        W45498  16.908  18.081   1.420 -0.0917 -0.0373 -0.0987
28652W        W45499  10.135  17.163  11.776  0.0641 -0.1855 -0.3415
28653W        W45500   5.723  14.798  14.035 -0.2269  0.0105 -0.0741
28654W        W45501  11.738   6.747   2.351  0.1576  0.4449  0.1306
28655W        W45502   0.549   5.360   2.965  0.1318 -0.2097 -0.0050
28656W        W45503  15.351  14.670   3.172 -0.0159  0.4166 -0.0342
28657W        W45504  15.698   9.197   3.744  0.3307 -0.0158  0.2466
28658W        W45505  10.480   0.657  10.009 -0.0906  0.2804 -0.1859
28659W        W45506  19.824   4.915  12.740  0.2442 -0.0713 -0.0403
28660W        W45507  19.624  15.201   4.135 -0.0898  0.0107 -0.2608
28661W        W45508   3.248  15.897   4.128 -0.0103  0.0642 -0.4572
28662W        W45509  14.052   9.763   2.170  0.2381  0.1053  0.0242
28663W        W45510   1.160   7.903   0.417 -0.0728  0.0709 -0.0732
28664W        W45511   7.401   1.629   3.844 -0.3308  0.1758  0.0099
28665W        W45512  15.465  17.194   2.094  0.0732  0.0465 -0.2751
28666W        W45513   7.298   8.038  14.211 -0.2289  0.1593  0.0766
28667W        W45514   1.518   6.670   0.940 -0.0393 -0.1224  0.2352
28668W        W45515  14.439   5.556   2.889  0.1241  0.0585  0.1329
28669W        W45516  16.170   0.647   4.842  0.0344  0.1857 -0.0564
28670W        W45517   8.789   2.501   3.009  0.2004  0.0285 -0.0197
28671W        W45518   8.014  14.585   1.622 -0.1152  0.1382  0.0655
28672W        W45519  16.204  10.588  10.908 -0.2360 -0.2431 -0.2486
28673W        W45520   3.509   9.935   1.932 -0.1524  0.0893 -0.1972
28674W        W45521   6.134  16.597   0.606  0.1498  0.0863 -0.2069
28675W        W45522  11.633  14.489  14.172  0.0408  0.1684  0.0234
28676W        W45523   6.861   0.963  12.210  0.5036  0.2241 -0.2844
28677W        W45524   7.071   7.616  10.837 -0.1357  0.2592  0.0207
28678W        W45525   9.638  19.626  13.059  0.1783  0.3557 -0.0428
28679W        W45526   0.172  17.436  13.626 -0.1072  0.0033  0.0525
28680W        W45527   8.622  14.758   0.114  0.1079 -0.0414 -0.1144
28681W        W45528   8.438   1.484   3.386 -0.1640  0.0869  0.0606
28682W        W45529  10.960  15.988   5.028  0.2135 -0.1682  0.3356
28683W        W45530  11.819   1.286   0.698 -0.0133  0.0535  0.0526
28684W        W45531   0.052   0.606  13.468 -0.1444 -0.0922 -0.0547
28685W        W45532  14.809   4.271  12.242 -0.0619  0.0737 -0.1122
28686W        W45533  10.392   0.329   3.288  0.1394 -0.1115 -0.1684
28687W        W45534   3.874   4.080   2.443 -0.1951 -0.0271  0.0530
28688W        W45535   6.847  19.386  11.147  0.0737 -0.0447 -0.1290
28689W        W45536   4.766   9.776  12.387  0.0474 -0.3198 -0.0160
28690W        W45537  10.084  18.275   3.679  0.3114  0.0227 -0.0150
28691W        W45538   2.998  12.106  11.656  0.0294  0.2386 -0.0436
28692W        W45539  10.864  13.000  10.205  0.0302  0.1636  0.0213
28693W        W45540  10.076   0.670   4.503  0.0952 -0.1616  0.1347
28694W        W45541  17.726  10.729   4.482  0.0640  0.0162  0.1536
28695W        W45542  13.326  14.517   4.310 -0.0721  0.0793  0.4525
28696W        W45543  10.193  15.782  10.942  0.0664  0.1051 -0.4190
28697W        W45544  18.005   7.950  13.969  0.4075 -0.1334  0.4089
28698W        W45545  17.593   8.641   1.994 -0.2148 -0.0564  0.2372
28699W        W45546   1.636  17.821  10.256  0.0385  0.1400 -0.1478
28700W        W45547   9.604   8.285  13.503  0.2519 -0.1655 -0.0990
28701W        W45548   3.498   2.041   1.644 -0.2218  0.0199 -0.1445
28702W        W45549  16.405   7.608   1.145 -0.1529  0.0368  0.3313
28703W        W45550   3.610   7.336   9.902 -0.0867  0.0403 -0.1948
28704W        W45551   2.488  12.683   3.668  0.0889 -0.1265 -0.0126
28705W        W45552   9.437  19.014  10.633  0.0078 -0.2452 -0.1130
28706W        W45553  15.615  11.886  13.641 -0.3135 -0.1698  0.0647
28707W        W45554   4.987   4.694  11.674 -0.4764 -0.0127  0.1320
28708W        W45555   1.878  15.156   3.239  0.2164  0.1647 -0.0964
28709W        W45556   9.295   0.838   2.406 -0.1278  0.0678 -0.2000
28710W        W45557   0.714   2.212   0.115 -0.0016  0.0094  0.0492
28711W        W45558   9.904   6.171   2.503 -0.1268 -0.0203  0.0940
28712W        W45559   7.284  10.209   0.988  0.0944 -0.1732  0.3895
28713W        W45560  16.569  12.916  11.481  0.1114 -0.1397 -0.2259
28714W        W45561   7.074  15.672   1.525 -0.2160 -0.0421  0.0101
28715W        W45562  15.976   0.294   4.413  0.1191  0.1299 -0.1513
28716W        W45563   5.296   8.066  11.003 -0.3487  0.0814  0.2417
28717W        W45564  17.557  15.758   4.244  0.5560 -0.0764  0.2184
28718W        W45565   6.614  19.143   9.964  0.0043 -0.0362  0.0849
28719W        W45566   1.575  18.421   1.076  0.1113 -0.2161  0.3501
28720W        W45567   0.514   9.736   2.482 -0.0525  0.3152 -0.0492
28721W        W45568  13.349   0.790  11.225  0.1249  0.0843 -0.0496
28722W        W45569  15.497  11.033  13.307  0.2170 -0.1223  0.0357
28723W        W45570   6.372  16.484   9.943  0.0043 -0.2110  0.0651
28724W        W45571  18.764   9.556   4.336 -0.0736  0.1131 -0.2676
28725W        W45572  13.058  16.651   5.201 -0.1092 -0.0975  0.1362
28726W        W45573  11.854  14.949   0.566  0.2811 -0.0564 -0.1876
28727W        W45574  13.336   8.139  10.933  0.1416  0.0361  0.1583
28728W        W45575   6.675   1.986   1.709 -0.3282 -0.0798 -0.0396
28729W        W45576   3.406   4.496   4.265 -0.1814  0.0781  0.3509
28730W        W45577   1.112   0.527  11.380  0.0066  0.2192  0.0488
28731W        W45578   1.927   6.906  10.602 -0.1791  0.2049 -0.1616
28732W        W45579  17.099   2.186   1.779 -0.1910  0.0469  0.2321
28733W        W45580  16.375   6.106   0.278 -0.1996 -0.0606  0.0660
28734W        W45581   6.588  14.866  12.001  0.1088 -0.3696  0.0783
28735W        W45582   8.143  19.220  12.530 -0.3964 -0.1210 -0.0363
28736W        W45583   0.620  18.877   0.876  0.0692 -0.0046 -0.1166
28737W        W45584  17.489  15.943   3.668 -0.0879 -0.3502 -0.2771
28738W        W45585  11.964   6.250   4.333 -0.2848 -0.1867 -0.0688
28739W        W45586  15.118   2.862   1.802 -0.1264  0.1009 -0.0712
28740W        W45587   2.046  19.833   1.795 -0.3337 -0.2421  0.1370
28741W        W45588   3.609   7.382   0.607  0.1804  0.1475  0.0541
28742W        W45589  10.640  13.946  10.445  0.1065  0.0458  0.0687
28743W        W45590  12.339   2.707   3.537 -0.2704 -0.1422  0.1778
28744W        W45591   3.751  13.112   5.062  0.0211 -0.2298 -0.2819
28745W        W45592   1.896   3.108  11.214 -0.1393 -0.3116  0.0852
28746W        W45593   3.703   8.678   3.879  0.1983  0.1318  0.1165
28747W        W45594   5.040   2.216  10.977  0.0642  0.0496  0.0249
28748W        W45595   2.576  15.483   3.387 -0.0732 -0.2863  0.0117
28749W        W45596  11.121  16.684   1.157  0.0464  0.1798 -0.0570
28750W        W45597   4.306   4.503   0.783  0.1576 -0.1551  0.2267
28751W        W45598   4.106   8.899  12.147  0.1319 -0.0794 -0.3925
28752W        W45599   7.634  13.329  13.866 -0.3130  0.0842 -0.2283
28753W        W45600  18.984  18.227   2.089  0.0180 -0.1923  0.1949
28754W        W45601   6.787   4.205   3.048  0.3398  0.1720 -0.5327
28755W        W45602  13.633   3.604   4.805  0.0817 -0.0520 -0.1316
28756W        W45603  17.734   2.547  10.658 -0.2968  0.3822  0.0124
28757W        W45604  12.313  18.588  10.603  0.1038 -0.0319 -0.3298
28758W        W45605   0.639   0.773  14.038 -0.3002  0.1041 -0.0749
28759W        W45606  16.260  16.767   1.925 -0.3095  0.2218 -0.4390
28760W        W45607   3.925  18.619   1.568  0.3050 -0.0320  0.1210
28761W        W45608   1.700  18.185   2.256  0.2558  0.0742 -0.0323
28762W        W45609   8.362  15.936  11.542  0.2800 -0.1652  0.3403
28763W        W45610  15.674  10.902   2.995 -0.3274  0.0503  0.2764
28764W        W45611   3.885  15.539  12.718 -0.1283 -0.0388  0.2195
28765W        W45612  11.520   5.484  12.534  0.0038  0.0806 -0.2004
28766W        W45613  12.861   3.495   3.780  0.2016  0.2061  0.0185
28767W        W45614   8.776   4.447   9.838  0.0291  0.0869 -0.0357
28768W        W45615  14.063   0.451  12.822  0.0727  0.1100 -0.3555
28769W        W45616   0.438  18.935  10.450  0.2557  0.0573  0.0743
28770W        W45617  16.556  19.499   0.671  0.1795 -0.3935  0.0059
28771W        W45618   5.217  16.117  12.297  0.0942 -0.0290 -0.2471
28772W        W45619   4.281   0.958   2.721 -0.0489 -0.1061  0.1425
28773W        W45620   2.887  11.030  12.742 -0.0254 -0.0524  0.1935
28774W        W45621  15.873   0.583   0.385 -0.3643 -0.1813 -0.0968
28775W        W45622  14.738   2.980   3.600 -0.1340  0.2614 -0.0090
28776W        W45623  14.025  10.608   0.681 -0.1916 -0.1633 -0.0338
28777W        W45624  11.406   5.695   1.584 -0.4210  0.3846 -0.2321
28778W        W45625   8.437   2.823   3.172 -0.0635 -0.0403  0.0938
28779W        W45626  11.649   5.002   5.224  0.0269 -0.1251  0.0870
28780W        W45627  11.551   0.496  13.829  0.1763  0.2843  0.0163
28781W        W45628   5.857   6.930   4.133  0.0156  0.1364 -0.2036
28782W        W45629  17.820   7.554   2.437  0.2095  0.0225  0.0459
28783W        W45630   5.049   9.008   4.366  0.1464  0.3604 -0.1930
28784W        W45631   7.523  14.933   3.851 -0.5130  0.0879 -0.1706
28785W        W45632   6.205   9.095  10.210  0.0885  0.0652 -0.0972
28786W        W45633  12.844  12.864  14.123 -0.0684  0.0236  0.2150
28787W        W45634   7.703   6.873  10.847 -0.0269  0.1561 -0.1662
28788W        W45635  17.464   6.501   1.809  0.3293 -0.0336 -0.0476
28789W        W45636  18.821   3.422  11.869 -0.1105  0.0519  0.2349
28790W        W45637  10.656  18.713  13.655 -0.1067 -0.1189 -0.1868
28791W        W45638   6.088   5.876  13.212  0.0350  0.0522  0.0394
28792W        W45639  13.372  10.164  10.017  0.0152  0.0248  0.2323
28793W        W45640   7.257   4.304   3.163  0.3932 -0.2025 -0.0194
28794W        W45641  18.925  18.111  12.036  0.1950 -0.2548  0.2145
28795W        W45642  17.659   4.601   9.963  0.2577  0.0595 -0.0429
28796W        W45643  10.485   0.513  11.766 -0.0605  0.2197 -0.1266
28797W        W45644  12.176   4.106  12.815 -0.1416 -0.2969 -0.1846
28798W        W45645  15.369  12.143  13.293  0.2106  0.3254  0.1641
28799W        W45646  10.847   1.031  13.543 -0.2361 -0.1737  0.1309
28800W        W45647   2.500   3.968  10.142  0.1644  0.1748  0.2746
28801W        W45648  13.715   8.175  11.305  0.1300 -0.1973  0.0906
28802W        W45649   3.262  18.553  10.305  0.0445 -0.0311 -0.0300
28803W        W45650   6.970  14.292   3.934  0.0917  0.2375 -0.0057
28804W        W45651   6.715  13.503  12.892 -0.2577  0.2866 -0.2035
28805W        W45652   6.255  16.427  12.868 -0.1140  0.1740 -0.2357
28806W        W45653   5.969   0.885   1.116  0.0991  0.1318 -0.2640
28807W        W45654   8.015  12.745   3.442  0.0245  0.1700  0.0340
28808W        W45655   9.631  12.487  13.022 -0.0879 -0.1061  0.1086
28809W        W45656  12.550   1.309   2.168 -0.2056 -0.0493 -0.0203
28810W        W45657   2.457   4.565  11.000  0.3759 -0.2927  0.0239
28811W        W45658  14.257  19.648  13.957 -0.0937 -0.1860 -0.0205
28812W        W45659   6.697   5.287  11.249 -0.1200 -0.3513 -0.0320
28813W        W45660   3.371  13.878   2.258 -0.0163 -0.0081 -0.2627
28814W        W45661   1.903   7.058   5.127  0.1613  0.3099 -0.1323
28815W        W45662   3.556  19.858   0.947  0.1421 -0.2018  0.1478
28816W        W45663  12.557   5.101   2.502  0.0457  0.1855 -0.2573
28817W        W45664  12.959  10.198  11.307  0.1440  0.4906  0.1872
28818W        W45665   1.318  13.744   3.673 -0.1177 -0.1523 -0.2206
28819W        W45666   6.355  15.452   2.236 -0.4941  0.0948  0.2448
28820W        W45667  13.048   7.038  12.341  0.0395  0.0597 -0.0350
28821W        W45668   2.218  18.858   0.108 -0.0959 -0.1470 -0.0941
28822W        W45669  12.125   0.309  11.249 -0.2943  0.1128 -0.0999
28823W        W45670  15.251   8.213   0.450  0.2578 -0.0820 -0.0736
28824W        W45671   0.946  16.305  12.750  0.0147  0.0569  0.0023
28825W        W45672  13.653  16.370   3.075  0.0115 -0.3983  0.3253
28826W        W45673  10.298  17.507   1.325 -0.0797 -0.2889  0.1850
28827W        W45674  17.000   0.236   2.214 -0.0803  0.0802 -0.2467
28828W        W45675  12.896   3.248   4.280 -0.1015  0.1938  0.3143
28829W        W45676  13.315  16.054  11.665  0.1015  0.3043 -0.2432
28830W        W45677  12.378  12.242   3.533 -0.2500 -0.0181  0.3218
28831W        W45678   6.701   9.219   2.116  0.1936  0.0426 -0.2247
28832W        W45679   6.293   5.611  11.090 -0.0425  0.0265  0.0370
28833W        W45680   4.596  15.474  12.223  0.0613 -0.0302 -0.4627
28834W        W45681  14.307   6.098   4.659 -0.1478 -0.1470 -0.1921
28835W        W45682   2.470   7.152  14.062  0.0328 -0.0048 -0.1663
28836W        W45683   9.883  10.043  10.468  0.0558  0.0767 -0.2321
28837W        W45684  19.371   9.909   9.658  0.2910  0.0370  0.2221
28838W        W45685   9.725  10.396   4.871  0.0994  0.2044 -0.1161
28839W        W45686  13.942   8.121   3.739 -0.0870  0.3052 -0.1215
28840W        W45687   7.003  10.162   4.315 -0.0421  0.2741 -0.0182
28841W        W45688  17.132  19.509  12.265  0.3517  0.0648  0.2250
28842W        W45689  16.348   8.235  12.903  0.2385  0.0976  0.0668
28843W        W45690  18.165  19.053  14.284  0.2694  0.0437 -0.1769
28844W        W45691  18.046  10.426   3.258 -0.4413 -0.0782  0.0382
28845W        W45692   4.892  17.958  11.125  0.0510  0.0485 -0.0467
28846W        W45693  11.515  10.250   1.478 -0.0669 -0.2310  0.2244
28847W        W45694   8.656   0.553   0.590 -0.0837  0.1347 -0.1999
28848W        W45695   7.038  11.645   1.659  0.0868  0.1116 -0.0379
28849W        W45696   6.726  13.767   0.300 -0.0108  0.0797  0.2235
28850W        W45697  10.641  11.546  10.883 -0.3404 -0.1132  0.2685
28851W        W45698   5.141  14.471   5.064  0.1389 -0.4238 -0.2438
28852W        W45699  12.451  11.820   2.440 -0.1849 -0.3198 -0.1811
28853W        W45700  18.571   7.928   5.030  0.0125 -0.4589 -0.1714
28854W        W45701  10.151   7.347  14.177  0.1033 -0.0026 -0.0604
28855W        W45702   6.934  10.400  12.454  0.4830 -0.2155  0.1943
28856W        W45703  17.746   6.081   1.683 -0.1741 -0.0766 -0.1521
28857W        W45704  16.340  11.455  13.082  0.2586 -0.0297 -0.0944
28858W        W45705   0.250  16.460   2.299  0.0521 -0.1346 -0.0713
28859W        W45706  11.071  17.041  10.686 -0.1698 -0.1734  0.0646
28860W        W45707  11.942   0.727  11.455 -0.1037  0.1115 -0.1635
28861W        W45708  12.045  16.200   2.661 -0.2058  0.3921  0.1750
28862W        W45709  18.780   5.309   1.709  0.0828 -0.2405  0.1172
28863W        W45710   1.553   5.578  12.328 -0.2004  0.2983 -0.1124
28864W        W45711  19.842  18.461   9.680 -0.1756  0.1136  0.2575
28865W        W45712  11.975  11.135  11.085  0.0345 -0.1859 -0.1121
28866W        W45713  17.052  15.122   3.669  0.0853 -0.1991 -0.0835
28867W        W45714   8.489  16.550  11.805 -0.1246 -0.0447 -0.0793
28868W        W45715  19.506   1.092   4.447  0.0721  0.0382  0.2621
28869W        W45716  19.676   5.731  13.782  0.0616 -0.0321  0.2470
28870W        W45717   0.826  15.244   4.126 -0.0999 -0.0763  0.1310
28871W        W45718   8.764  19.171   3.443  0.1122 -0.0735  0.0447
28872W        W45719   6.608   0.199  12.732  0.0387  0.0841 -0.0192
28873W        W45720  13.974   4.296  13.807 -0.1175  0.1814 -0.0242
28874W        W45721  11.814  12.422  10.912 -0.0553  0.1466 -0.0203
28875W        W45722  15.502   6.287   2.582  0.1422  0.1993  0.0026
28876W        W45723   9.232   1.384   9.614  0.0873  0.0697  0.0898
28877W        W45724   3.434   1.581   0.699  0.1776  0.0779  0.2101
28878W        W45725  13.015  17.540  13.138 -0.1719  0.0752  0.2164
28879W        W45726   3.668  14.550   3.292 -0.1941 -0.0211 -0.1790
28880W        W45727  17.600  10.475   3.357 -0.2030 -0.2013 -0.0855
28881W        W45728   6.098  17.779   1.988  0.4372 -0.2472  0.0063
28882W        W45729  13.846  18.461   3.902  0.1545  0.1914  0.0517
28883W        W45730   9.081  12.689  10.126 -0.1635  0.0722 -0.0568
28884W        W45731  11.755   4.925  14.087 -0.0531  0.0252  0.3059
28885W        W45732   2.062  17.446   2.907  0.2110 -0.1238 -0.1395
28886W        W45733  12.666   3.448  14.047 -0.1130  0.1400  0.1173
28887W        W45734   7.548   3.160  12.399  0.2319  0.0110 -0.0957
28888W        W45735   0.399   0.164   0.401 -0.1113 -0.1253  0.0264
28889W        W45736   1.866   1.064  11.927 -0.1234  0.1313  0.2760
28890W        W45737   2.503   3.957   0.836  0.3512 -0.1273 -0.0747
28891W        W45738   7.646   7.953   2.576 -0.0371  0.0655 -0.1194
28892W        W45739  16.057   8.253  11.932  0.1260  0.0516  0.1439
28893W        W45740   0.771   8.699  11.829 -0.1197 -0.0125  0.2025
28894W        W45741  18.286   5.036   0.823  0.0190 -0.2641  0.1683
28895W        W45742  17.354  18.825   4.331 -0.2352  0.0049  0.0023
28896W        W45743   4.041   2.531   0.766  0.0417 -0.1656  0.1260
28897W        W45744  16.294   2.747   1.002 -0.1383  0.3737 -0.1003
28898W        W45745   0.769   6.015  10.890 -0.0368 -0.3739 -0.5263
28899W        W45746  14.110  13.403   0.550 -0.0706 -0.1632  0.1158
28900W        W45747   6.025   3.894  12.762  0.3651  0.0158 -0.5039
28901W        W45748   3.046   1.015   4.558 -0.0250  0.0328 -0.2203
28902W        W45749  14.196   9.399  10.964  0.4083 -0.0279  0.0760
28903W        W45750   0.424  14.858   0.284  0.2692 -0.0411  0.2762
28904W        W45751  15.932   4.277  13.726  0.2971  0.1738 -0.0258
28905W        W45752   0.334  12.894   0.070 -0.1876  0.3061 -0.3035
28906W        W45753  17.805  15.225   0.462  0.3849 -0.2859  0.1040
28907W        W45754   7.770  15.392  10.088  0.0468  0.1017 -0.1261
28908W        W45755   2.082   0.527   3.595 -0.3539 -0.1433  0.0569
28909W        W45756   7.769   7.530   1.766 -0.0185  0.3888 -0.4499
28910W        W45757  11.958   8.418  12.252  0.2089  0.0528  0.2692
28911W        W45758  19.217  10.748  12.510  0.3066  0.0112  0.0158
28912W        W45759  13.320   3.584   4.218 -0.1588  0.0641  0.0664
28913W        W45760  14.968   7.847   0.253 -0.1289  0.0717 -0.2787
28914W        W45761  15.043  19.429  13.454  0.0014  0.2233  0.2256
28915W        W45762  17.365  19.892   1.296  0.2585 -0.3003 -0.1464
28916W        W45763  11.097  11.818  10.989 -0.4699  0.0460 -0.0201
28917W        W45764  14.816  11.389   1.961  0.0290  0.1865 -0.3628
28918W        W45765   3.659  12.686   4.211 -0.0286 -0.1475 -0.2206
28919W        W45766   3.085   7.093   1.849 -0.3276 -0.0252 -0.0743
28920W        W45767   6.681   9.304   3.798 -0.2574 -0.0855  0.2565
28921W        W45768  15.478  11.372   1.441 -0.0577  0.0271 -0.1648
28922W        W45769  16.047   7.688   0.797 -0.1312 -0.0162 -0.0198
28923W        W45770   4.566  16.143  10.449 -0.2110  0.0722 -0.1508
28924W        W45771   0.170   8.409  10.668  0.3502 -0.0069  0.0475
28925W        W45772   1.285  18.027   9.185  0.1035 -0.1201 -0.0610
28926W        W45773  17.781   1.673   3.369 -0.1285  0.5506 -0.1690
28927W        W45774   2.771   0.694  11.343 -0.0576 -0.2156  0.1165
28928W        W45775  15.909   4.151  12.638  0.3359 -0.0677  0.0834
28929W        W45776   0.166  14.493  10.200  0.1275 -0.0265 -0.2183
28930W        W45777  16.497  15.085   2.206  0.0605 -0.1508 -0.2469
28931W        W45778  17.190  11.609   1.713 -0.1798 -0.1844  0.1201
28932W        W45779  17.234   1.669   4.254 -0.0031  0.2856  0.1317
28933W        W45780  11.525  17.372  10.592 -0.0011  0.0101  0.0769
28934W        W45781   2.045   7.580   4.512 -0.1220 -0.1339  0.1851
28935W        W45782  12.255  12.449  11.555 -0.0085 -0.0552 -0.0186
28936W        W45783   2.500   4.327   0.473  0.0167 -0.1696  0.0553
28937W        W45784   6.975   5.367  10.341 -0.2975  0.3800 -0.1383
28938W        W45785  11.944   2.698   1.969 -0.0220 -0.1038 -0.4404
28939W        W45786   1.909   3.116   0.100 -0.1095  0.2004 -0.2520
28940W        W45787   8.983   7.809   3.533  0.0073  0.2531 -0.1787
28941W        W45788  12.613   8.753  10.670 -0.0096 -0.0273  0.0245
28942W        W45789  14.390  18.818  12.881 -0.1870  0.3395 -0.4620
28943W        W45790   9.596   2.340   4.344 -0.0161  0.1964 -0.0154
28944W        W45791  18.210   1.264   4.126 -0.1419  0.3094 -0.0038
28945W        W45792   0.042   8.039  12.069 -0.0078  0.1775  0.1036
28946W        W45793  10.509   3.471   3.339 -0.1673 -0.1938 -0.1772
28947W        W45794   0.513   3.088  12.631  0.2973  0.2172 -0.1226
28948W        W45795  17.747  13.380   2.999  0.4691 -0.0491  0.0616
28949W        W45796   9.985  18.114   0.493 -0.1532 -0.1698 -0.1399
28950W        W45797   9.767   1.515   0.920  0.1589  0.0191  0.0747
28951W        W45798  12.396  14.409   4.738 -0.0255 -0.2655  0.0700
28952W        W45799  16.729  15.887   0.386 -0.0604 -0.0102  0.2750
28953W        W45800   2.750  10.517   1.175 -0.0221  0.1135 -0.1946
28954W        W45801   0.947   3.690  14.065  0.0182 -0.0394  0.1218
28955W        W45802   4.345  13.647  13.251 -0.2107 -0.4288  0.0503
28956W        W45803  18.046   4.333  10.254 -0.1167 -0.2873  0.1033
28957W        W45804  14.188   3.861   0.904  0.1019  0.3472 -0.1194
28958W        W45805  17.291   8.286   2.975 -0.0431  0.2950  0.0330
28959W        W45806   4.273   3.669   3.692  0.2303 -0.0476 -0.4819
28960W        W45807   6.654   7.631   0.449 -0.3648 -0.3346  0.2331
28961W        W45808   8.241  10.094   3.735 -0.0483 -0.1552  0.0558
28962W        W45809  15.490  10.702   2.091 -0.2375 -0.0222 -0.1767
28963W        W45810   8.270   6.995  11.994 -0.1094  0.1601  0.0816
28964W        W45811   3.302   8.931  14.201  0.1379 -0.3920 -0.1635
28965W        W45812   0.631  19.708  14.175  0.4392  0.2207 -0.2194
28966W        W45813  11.977   1.689  10.631 -0.0444 -0.2589  0.2245
28967W        W45814  19.094  14.129   3.465 -0.2178  0.1547 -0.0605
28968W        W45815   6.001   1.165   0.157 -0.0340 -0.0072  0.3350
28969W        W45816   7.313  17.711  14.127 -0.0054  0.4097 -0.0280
28970W        W45817   1.496   7.215   2.563 -0.0327  0.3213 -0.1746
28971W        W45818   6.494  14.819  11.062 -0.1433 -0.0943  0.1060
28972W        W45819  17.841  18.317   3.638 -0.0572  0.4581 -0.0088
28973W        W45820  14.233  16.969   3.428  0.0324 -0.2002  0.2737
28974W        W45821  19.245   6.056   3.410  0.2680 -0.0763 -0.0162
28975W        W45822   5.549  12.659   3.578 -0.1770  0.4476 -0.0129
28976W        W45823   9.319  15.489   3.921  0.1971 -0.0885  0.2245
28977W        W45824   8.315   7.803  12.711 -0.2093  0.0250  0.0251
28978W        W45825   8.090   3.812   0.242  0.1844 -0.1353  0.2218
28979W        W45826   6.617   4.920  13.249  0.2377 -0.2446  0.2751
28980W        W45827   8.606   2.578  11.590 -0.0705 -0.1511  0.2779
28981W        W45828   6.112   5.443   1.235  0.0596  0.0086 -0.0856
28982W        W45829  16.372   2.517  12.587  0.2303  0.1175 -0.0370
28983W        W45830   7.264  19.126  11.306  0.3592  0.1870  0.2055
28984W        W45831   7.239   1.681  10.781 -0.2874 -0.0908  0.1110
28985W        W45832  19.338  19.555  10.832  0.1337 -0.2464  0.1239
28986W        W45833  12.013  13.875  11.959 -0.3516  0.0118  0.0361
28987W        W45834   5.425  10.553  12.000  0.0909  0.0932  0.0339
28988W        W45835  19.617   8.763  12.813  0.0954  0.1796 -0.1688
28989W        W45836   6.782   5.853  11.321 -0.0118  0.2664  0.0731
28990W        W45837   6.822  10.645   4.763  0.1088  0.3278  0.0449
28991W        W45838   2.585  11.476   2.488 -0.0070  0.0870  0.1202
28992W        W45839   8.049   8.873  12.870 -0.0502  0.0593  0.1665
28993W        W45840   0.115   7.988   3.030  0.1024  0.0913 -0.0144
28994W        W45841  12.570  14.078  12.605  0.1217 -0.2689  0.2107
28995W        W45842   1.532  19.538   5.002  0.1207  0.3091 -0.1670
28996W        W45843   9.371  12.652   3.075 -0.1995 -0.2723  0.2590
28997W        W45844   2.681   0.359  13.599  0.1857 -0.4155  0.0087
28998W        W45845   2.234   1.221   4.164 -0.1802 -0.3772 -0.1176
28999W        W45846   0.630   7.432  13.768  0.2538  0.1882  0.1705
29000W        W45847   6.893  19.316   0.349  0.0712 -0.1289  0.0300
29001W        W45848  10.715  19.296   4.068  0.0409 -0.2748  0.2774
29002W        W45849   0.252   7.481  10.837  0.1311  0.0303 -0.0038
29003W        W45850   6.802   2.443   1.467 -0.2642 -0.0496  0.3198
29004W        W45851  16.375   3.414  13.322  0.0626  0.4694 -0.0883
29005W        W45852  11.294  15.251  11.721 -0.0799  0.1976  0.2084
29006W        W45853   3.897   9.681   4.042 -0.2445 -0.0375 -0.3559
29007W        W45854  15.725  18.964  12.216  0.2967  0.0766  0.0324
29008W        W45855   3.103   0.573   0.212  0.0861  0.1974 -0.2554
29009W        W45856   5.293   1.482   4.190  0.0650 -0.0287 -0.1142
29010W        W45857   4.111   4.222  11.747  0.2757 -0.1976 -0.4844
29011W        W45858   4.289   8.305   9.751  0.2934 -0.1142  0.0278
29012W        W45859  13.005   4.832  13.533 -0.1929 -0.0272 -0.1975
29013W        W45860  13.323  11.022  13.727 -0.1478  0.0805  0.1005
29014W        W45861   3.741  19.881  10.644 -0.2374  0.0088 -0.0675
29015W        W45862  15.309  13.946   4.972  0.1534  0.2378 -0.2652
29016W        W45863   3.298   6.679  12.755 -0.1051  0.1285  0.1285
29017W        W45864  16.057  13.436  13.962  0.2617 -0.0099 -0.2277
29018W        W45865  16.594   4.698   2.060  0.3931 -0.1474  0.0438
29019W        W45866  17.903   4.508  10.721  0.2776  0.0098  0.1405
29020W        W45867   8.698   6.051   0.430  0.3693 -0.1169 -0.2387
29021W        W45868  12.748   2.784  13.986  0.1933 -0.0657 -0.0180
29022W        W45869  15.511  10.227  12.005  0.0387  0.2178  0.1208
29023W        W45870   5.371  12.874   0.330  0.2525 -0.0864  0.0413
29024W        W45871   6.294   1.423  14.105 -0.0781 -0.1386 -0.1672
29025W        W45872  10.144  14.805   1.932  0.2084 -0.0608 -0.0778
29026W        W45873  14.452   1.589  14.177  0.1532  0.0394  0.0759
29027W        W45874   6.645   9.285  13.665  0.0732  0.2716  0.0995
29028W        W45875   7.419  19.583  12.147 -0.0982 -0.1274  0.1946
29029W        W45876  17.548  14.468   4.629  0.0087 -0.0976  0.0814
29030W        W45877   1.698  10.442   3.256 -0.1216  0.0033  0.3204
29031W        W45878   4.557   1.660  10.371  0.4181 -0.2964 -0.1718
29032W        W45879   0.346  11.182  12.937 -0.1773 -0.1447  0.1989
29033W        W45880  19.204   8.301   9.244  0.0235  0.3288 -0.1792
29034W        W45881  16.233   4.045   1.939 -0.3453 -0.0407  0.1705
29035W        W45882  10.244  11.261   1.998  0.2775  0.0365  0.0406
29036W        W45883   3.047  14.278   1.970  0.2811  0.0985 -0.1314
29037W        W45884   3.186  14.099   0.937  0.2769  0.2791  0.2073
29038W        W45885  14.251  18.161   2.387 -0.0199  0.1036 -0.1972
29039W        W45886  15.946  12.542   4.617 -0.0851 -0.0773  0.1401
29040W        W45887  11.571   6.163  13.675 -0.0557  0.0968 -0.1645
29041W        W45888  17.608  11.110  10.925  0.3064  0.0972  0.0268
29042W        W45889   0.259   9.578   1.210  0.0010 -0.4471  0.0251
29043W        W45890  19.341   7.924  13.951 -0.3183  0.1623  0.4488
29044W        W45891   0.897   9.776  13.909  0.2207 -0.3316  0.1187
29045W        W45892   5.537  18.255  12.608  0.0360 -0.3778 -0.2437
29046W        W45893   3.594  13.889  11.434  0.2644  0.1571  0.2132
29047W        W45894  16.782   5.557  10.584  0.0864  0.3385 -0.0133
29048W        W45895   4.634   0.805   3.689 -0.1762  0.1288  0.2606
29049W        W45896   5.185   6.697   2.360 -0.4683  0.1463 -0.1725
29050W        W45897   3.339   1.361  13.907  0.1832  0.1469 -0.1188
29051W        W45898  16.187  15.842   4.852  0.0558  0.0446 -0.3125
29052W        W45899  15.315   5.905  12.396  0.0342 -0.3202 -0.0222
29053W        W45900   5.963  10.406  12.201 -0.0093  0.0560  0.3754
29054W        W45901   1.052   5.844  12.612 -0.0501  0.0452 -0.0590
29055W        W45902  18.896  10.678   4.874 -0.2088  0.0176  0.1667
29056W        W45903   2.854   4.938   2.500  0.2596  0.0451  0.1571
29057W        W45904  17.992  11.444  10.842 -0.0180  0.2931  0.1222
29058W        W45905   0.578  10.446   2.037  0.0305 -0.1299  0.0450
29059W        W45906  15.395  16.013  12.586  0.0502  0.0881  0.0535
29060W        W45907  13.346  17.818   1.839  0.2699  0.0662 -0.2100
29061W        W45908   3.586  13.984   0.013  0.1062 -0.0931  0.0724
29062W        W45909   8.774  17.756  12.525  0.1879  0.0051  0.3809
29063W        W45910  16.463  10.559   5.309 -0.0465 -0.0283 -0.2073
29064W        W45911  14.548   3.800   2.755  0.1148  0.2566 -0.5075
29065W        W45912  16.593   4.211   0.074  0.3616 -0.0545  0.0469
29066W        W45913   5.289   8.538   4.382 -0.2511  0.3555 -0.0114
29067W        W45914  16.722   1.548   3.957 -0.1315 -0.2032  0.2334
29068W        W45915   5.822   3.282  13.479  0.1035  0.1211  0.0844
29069W        W45916   4.290   9.029   2.902  0.1657 -0.1720 -0.0534
29070W        W45917  14.700   7.862   4.076 -0.0206 -0.1374 -0.0484
29071W        W45918  15.540   1.581   3.494 -0.3601 -0.0724  0.0892
29072W        W45919   1.947  14.637  12.892  0.2029 -0.1843  0.2036
29073W        W45920   3.597   3.133   4.012 -0.1467  0.0001  0.2012
29074W        W45921  18.863   1.281   1.354 -0.2321 -0.1077  0.0321
29075W        W45922   3.876   5.410  10.350  0.1330 -0.3344  0.3120
29076W        W45923   6.129   7.747  12.531 -0.1092 -0.0132 -0.0347
29077W        W45924  10.689  17.355  12.512 -0.0693 -0.1283 -0.1173
29078W        W45925  17.477   4.842   2.191  0.1803  0.1341  0.0336
29079W        W45926   8.147  12.613  10.420  0.0413  0.1434  0.0535
29080W        W45927   5.905   6.138  11.535 -0.0360  0.0508 -0.1523
29081W        W45928  10.235   0.361   9.360  0.2186  0.4150 -0.0777
29082W        W45929  18.587  10.797   4.347 -0.0428 -0.0873 -0.0247
29083W        W45930   8.893  17.795   2.108  0.1602  0.0446  0.0578
29084W        W45931   3.014  11.837   9.979  0.2036  0.0474 -0.1259
29085W        W45932   9.111   2.261  10.291 -0.2218 -0.0934 -0.1821
29086W        W45933   2.814   6.850   2.184 -0.0144  0.1567  0.1456
29087W        W45934   6.220  13.453  10.610 -0.2202  0.0959 -0.5374
29088W        W45935  14.470  19.844   4.095 -0.1105  0.1211 -0.1712
29089W        W45936   6.885   9.072   0.987  0.0456 -0.0821 -0.0334
29090W        W45937  11.467  17.542   9.852  0.3197  0.0911  0.3321
29091W        W45938   5.442  17.146  10.951 -0.0207  0.1195 -0.1137
29092W        W45939   1.689  12.225   3.900  0.1793  0.0323 -0.2484
29093W        W45940   2.970   7.593   0.500  0.1625 -0.4915 -0.3302
29094W        W45941   5.508  12.351   1.998 -0.2391 -0.0491 -0.0968
29095W        W45942  19.828   7.393   2.214 -0.0834  0.1882 -0.2553
29096W        W45943   1.525  15.853   4.005  0.1031  0.3298  0.2367
29097W        W45944   0.870   4.356  10.160 -0.0019  0.1235  0.1343
29098W        W45945   4.785   9.540  13.604 -0.1970 -0.1373 -0.1401
29099W        W45946  18.676   7.181  12.402  0.0033  0.2096 -0.1851
29100W        W45947  12.480   9.482   2.723  0.1566  0.1370 -0.0056
29101W        W45948  10.958  15.554   2.733 -0.2608 -0.0164  0.1145
29102W        W45949   2.471   8.896  14.232 -0.1660 -0.0535  0.1644
29103W        W45950   8.565  10.303   4.078  0.4596 -0.2465  0.1730
29104W        W45951  10.840  17.856  12.360  0.2127  0.0133 -0.1018
29105W        W45952  14.188   4.073  10.592 -0.2577  0.1992 -0.1209
29106W        W45953   3.452  15.831  10.753 -0.1389  0.0520 -0.0232
29107W        W45954   5.907   0.787   1.785  0.0149 -0.1090  0.0860
29108W        W45955   0.886   7.861  10.930  0.0629 -0.4118 -0.3430
29109W        W45956  19.165  18.613  13.147  0.0334  0.2244  0.2359
29110W        W45957  10.189   1.883   0.556 -0.1567  0.0899  0.2503
29111W        W45958  10.209   4.931   9.967 -0.3173  0.3040  0.0060
29112W        W45959   0.109  12.290   1.261 -0.1026 -0.2622  0.1027
29113W        W45960   8.487  12.208   5.128  0.1263  0.1107  0.0136
29114W        W45961  15.097   8.413  13.886 -0.3866  0.0736  0.2914
29115W        W45962   1.748  17.936  12.569 -0.0654  0.0290 -0.0382
29116W        W45963   5.727   0.491  12.447  0.0316 -0.0113  0.1261
29117W        W45964  16.508  18.745  11.848 -0.0853  0.0367  0.0623
29118W        W45965   6.334   3.905   2.623 -0.1054  0.0679  0.0737
29119W        W45966   2.049   6.252   3.755 -0.3098 -0.0334  0.2445
29120W        W45967   9.211   3.828   3.510 -0.1440 -0.3035  0.1030
29121W        W45968  11.764   5.500   3.809 -0.1041  0.0698  0.0352
29122W        W45969   0.496   8.107   2.070  0.2600 -0.0355 -0.1063
29123W        W45970  16.700   2.544   0.909 -0.0587 -0.2707 -0.2434
29124W        W45971  13.123   4.983  11.217  0.3721  0.1245 -0.0177
29125W        W45972   1.971  14.784   0.071 -0.1668 -0.1775  0.1308
29126W        W45973  10.866   8.959   4.125  0.0948 -0.0802  0.1824
29127W        W45974  17.112  14.517  12.194 -0.0440 -0.1738 -0.0193
29128W        W45975   3.396  11.753   9.700  0.0642  0.0746  0.0773
29129W        W45976  14.005   9.539   3.642 -0.2828  0.1892  0.2317
29130W        W45977   0.273  16.396  12.104 -0.1872  0.1139  0.4557
29131W        W45978  10.455  10.732   0.278  0.1887 -0.1118 -0.0503
29132W        W45979  19.395  13.383  14.043  0.1301 -0.0304 -0.5242
29133W        W45980  10.053  17.540   0.853 -0.0941  0.1228 -0.3019
29134W        W45981  19.638  12.069   3.764  0.3236  0.0791 -0.0324
29135W        W45982   6.123  13.197  11.082  0.1891 -0.1380  0.2379
29136W        W45983  18.616  19.131   3.255 -0.0963 -0.1638 -0.0927
29137W        W45984   4.373   1.814   0.876 -0.0476 -0.4101  0.0056
29138W        W45985   6.690  19.371   0.836 -0.1125 -0.3140 -0.3931
29139W        W45986   5.342  13.473   3.669 -0.1588 -0.3050  0.0561
29140W        W45987  10.827  15.817   1.075  0.0737 -0.1350 -0.1099
29141W        W45988   2.176  16.195   2.592  0.3084 -0.1199 -0.0859
29142W        W45989  18.655  13.685   3.666 -0.1314 -0.0696 -0.0622
29143W        W45990   4.671   3.967  12.020 -0.0513 -0.2469 -0.1703
29144W        W45991  13.043  13.548   1.295  0.1105  0.3805  0.1429
29145W        W45992  18.565  17.708   9.301  0.3087  0.4537  0.2184
29146W        W45993  14.462   6.741   1.588  0.0023  0.1226  0.1142
29147W        W45994   9.866  18.725   2.220  0.0962 -0.0731  0.1687
29148W        W45995   9.272  17.229  11.922 -0.2758  0.1588  0.0997
29149W        W45996   6.681   7.613   2.484  0.2375 -0.1620 -0.1131
29150W        W45997   9.764  12.776   1.218  0.1114 -0.1433  0.2395
29151W        W45998  18.522   3.053  11.010  0.1156 -0.0160 -0.0836
29152W        W45999  12.565  13.675  13.507 -0.1096 -0.4523  0.0903
29153W        W46000  11.325   6.181  10.697  0.0170  0.0557 -0.0567
29154W        W46001   8.392   3.576  12.783  0.0314  0.1120 -0.1155
29155W        W46002   8.522   8.023   3.593  0.0129  0.0505  0.2977
29156W        W46003   8.030   7.584  10.996  0.0226  0.4574 -0.1743
29157W        W46004   2.831   4.329   2.226  0.3769  0.2671 -0.2033
29158W        W46005   3.609   4.407  13.693 -0.0827  0.2021 -0.2125
29159W        W46006   0.696   5.552   1.377 -0.3317 -0.0678 -0.0185
29160W        W46007  11.353   5.465   3.574  0.0440 -0.1480  0.3022
29161W        W46008  15.970   3.932  11.149 -0.0289  0.2141 -0.0832
29162W        W46009  19.261   8.089   4.759  0.2735 -0.4291 -0.4249
29163W        W46010   4.449   5.288  10.079  0.1368 -0.2758 -0.0004
29164W        W46011  18.150   9.138  12.829 -0.1400  0.2054  0.1331
29165W        W46012  13.795  19.437   3.705  0.0013  0.2935 -0.0313
29166W        W46013  18.241  13.205  11.442 -0.0797  0.1436 -0.4176
29167W        W46014   1.659   3.630   4.496  0.2460  0.1895 -0.3326
29168W        W46015   4.618   9.460   3.054  0.0265 -0.3308  0.0760
29169W        W46016  14.585   2.806  11.285  0.0870 -0.0827  0.3287
29170W        W46017  14.491  19.504   4.477  0.1755  0.0960  0.2362
29171W        W46018  17.171   3.228  11.434  0.0060 -0.0430  0.0932
29172W        W46019   0.817   1.298   5.554 -0.1745  0.2242  0.0280
29173W        W46020  17.509   8.302  10.523 -0.0357  0.1178 -0.0700
29174W        W46021  15.597   5.952  11.538 -0.1120  0.0251  0.0288
29175W        W46022   7.562  12.702   1.459 -0.0057  0.0055 -0.0776
29176W        W46023  18.170   0.620   3.233 -0.0835 -0.1244 -0.1096
29177W        W46024   5.102  13.451  13.696  0.0817  0.3789  0.1899
29178W        W46025   2.313   9.277   3.631  0.2651 -0.3873 -0.3420
29179W        W46026   9.100  13.539  10.774 -0.1538 -0.0743  0.2407
29180W        W46027   2.670  16.286  10.713 -0.0417  0.1297 -0.1811
29181W        W46028   0.250   8.277   0.614  0.0108 -0.1877  0.2974
29182W        W46029   0.196   4.565  13.188  0.0751  0.0967  0.1319
29183W        W46030   1.614   8.270  10.423 -0.0409  0.0837  0.0602
29184W        W46031  16.293  12.283   1.363  0.1492 -0.1103  0.2757
29185W        W46032  13.090  16.389  13.724  0.0255 -0.3105 -0.0499
29186W        W46033   1.640   3.511   0.462 -0.0021  0.0614 -0.1153
29187W        W46034   9.646  17.143  12.707 -0.1164  0.1365 -0.0424
29188W        W46035   6.682  15.863  10.827  0.0931  0.3097 -0.1520
29189W        W46036   3.931   4.691   1.076  0.0829 -0.1927  0.2928
29190W        W46037  11.165   9.721  10.580  0.1851  0.1365 -0.0573
29191W        W46038  19.205   2.083  10.492 -0.0644 -0.1853  0.3566
29192W        W46039   8.710  18.586   2.366  0.1548  0.1065  0.1389
29193W        W46040   6.689   1.146   2.839  0.3684  0.0927 -0.2253
29194W        W46041   9.004  10.053  12.972  0.0737  0.2978  0.2538
29195W        W46042   2.671   5.710   1.224  0.3642 -0.0742 -0.2642
29196W        W46043   6.554  12.333   1.020 -0.0807 -0.2839 -0.1900
29197W        W46044  17.258  17.871  10.129  0.0708 -0.1672  0.2068
29198W        W46045   2.827   0.770   0.617  0.0217  0.0177  0.1299
29199W        W46046   7.750  16.140  11.700 -0.1106 -0.1501  0.4406
29200W        W46047   1.771   0.093   4.303  0.1750 -0.2787  0.1480
29201W        W46048  18.680   4.976   3.350 -0.1031  0.2015 -0.1258
29202W        W46049  12.608  19.019   1.717  0.1909 -0.0100 -0.0877
29203W        W46050  17.599   4.055  13.181 -0.1142  0.2280 -0.3368
29204W        W46051  15.152   6.370  14.164 -0.0999 -0.0713 -0.3082
29205W        W46052  17.912   7.965  10.754 -0.1355  0.2149 -0.1257
29206W        W46053  12.674  18.247  10.326 -0.0086  0.2484  0.2543
29207W        W46054   8.462  18.756  13.473  0.0452  0.1137  0.1155
29208W        W46055   1.633  11.450   3.946  0.0315 -0.0010 -0.0475
29209W        W46056   5.463   5.083   3.817 -0.2182  0.1195 -0.0008
29210W        W46057   6.507  14.204   1.087 -0.2097  0.0863 -0.2896
29211W        W46058  14.070  18.609  13.647  0.0625  0.5310  0.0241
29212W        W46059   5.912   0.812  14.087  0.1298  0.2106  0.1471
29213W        W46060  11.383   6.451  12.798 -0.0115 -0.0104  0.1091
29214W        W46061   9.901  15.357  11.961 -0.2641  0.1556  0.0742
29215W        W46062   4.739  18.390  13.822  0.3811  0.0977 -0.4896
29216W        W46063   6.829  19.468  13.210 -0.0146  0.2364 -0.1362
29217W        W46064  13.050  11.019   2.413 -0.2560  0.1613  0.1740
29218W        W46065   3.341  12.630   2.908 -0.4451 -0.2652  0.0775
29219W        W46066   4.563  15.456  12.791  0.0813 -0.1913 -0.4104
29220W        W46067   3.567   7.515  12.061 -0.4430  0.2065  0.0016
29221W        W46068  10.272  13.678  11.131 -0.1039 -0.0799 -0.2554
29222W        W46069  19.426   2.898   0.878 -0.0761  0.3438 -0.2084
29223W        W46070  19.334   4.423   3.341 -0.0647 -0.1318 -0.1546
29224W        W46071  16.306   5.648   1.073 -0.1489  0.0252 -0.3067
29225W        W46072  14.742  15.512   4.220  0.0922  0.1317  0.3342
29226W        W46073   3.714  18.377   4.781  0.2192  0.3855 -0.1767
29227W        W46074   1.773   0.250  10.709  0.2717  0.4106 -0.0945
29228W        W46075  12.446   4.259  14.076 -0.0972  0.4620 -0.0574
29229W        W46076  16.688   0.574   3.673  0.3265 -0.1180  0.0166
29230W        W46077   4.696   8.452  11.196  0.3115  0.2387 -0.0330
29231W        W46078   7.628  16.942  10.305  0.0511 -0.0571  0.0445
29232W        W46079   5.139  10.221   2.531 -0.1588 -0.2426 -0.2992
29233W        W46080  13.527  14.295   3.834  0.3038  0.1416  0.2418
29234W        W46081  13.837   3.184  12.069  0.2580 -0.2155 -0.0845
29235W        W46082  12.490   5.170  13.681 -0.1935  0.0826 -0.2616
29236W        W46083   8.409   1.186  11.480 -0.1872  0.0404  0.0650
29237W        W46084  15.874  15.451   3.072  0.0307  0.0350  0.0587
29238W        W46085  19.070  11.466  13.023 -0.1542  0.5281 -0.0519
29239W        W46086  12.255  17.820   2.853  0.1015 -0.3391  0.3346
29240W        W46087   2.823  18.078   3.312 -0.4003  0.0907 -0.0546
29241W        W46088   6.153   8.369   1.601  0.1174 -0.0777 -0.0579
29242W        W46089   2.332   7.915   0.249  0.0163  0.0877 -0.3667
29243W        W46090  14.142  15.364  10.582  0.1590 -0.3139 -0.3322
29244W        W46091  11.163   7.395  10.757  0.0871 -0.1436 -0.0130
29245W        W46092  13.851   6.361  11.445 -0.1710  0.2296  0.2008
29246W        W46093   3.888  12.716   0.848 -0.3702 -0.0108  0.1415
29247W        W46094   7.501   4.291   2.731  0.1063  0.2064  0.0378
29248W        W46095   7.976  17.094   2.199 -0.1207 -0.4345 -0.2229
29249W        W46096  18.087   3.124   0.773 -0.1124  0.0959 -0.0047
29250W        W46097  19.621  19.408   4.813 -0.0984  0.0687 -0.1032
29251W        W46098  15.254  18.667  14.116  0.2889  0.0072 -0.0127
29252W        W46099  19.001  18.195  13.993  0.3132 -0.0062 -0.0665
29253W        W46100  10.728   5.196  10.120  0.0686  0.1464 -0.2305
29254W        W46101   4.381   9.344  10.194 -0.2278  0.0953  0.1150
29255W        W46102  11.628   0.089   2.047  0.1760 -0.4657  0.1673
29256W        W46103  14.459   3.658  14.268  0.2310 -0.1080 -0.3078
29257W        W46104   1.615   9.819   2.629 -0.0969  0.1111  0.0137
29258W        W46105   3.956   5.313   4.126  0.4665 -0.1098 -0.0630
29259W        W46106  17.382   2.487   2.341 -0.2213  0.0411 -0.1438
29260W        W46107  18.308   6.412  13.949 -0.2020  0.0050  0.2676
29261W        W46108   6.008   9.475   3.362 -0.1791 -0.3111 -0.2504
29262W        W46109  17.533  17.823  10.972  0.0745 -0.1392  0.0167
29263W        W46110  17.603   2.455   0.494 -0.1130 -0.2237 -0.2356
29264W        W46111   9.554   3.995   1.707  0.0774 -0.0110  0.3040
29265W        W46112  15.504  16.613   0.436 -0.2941 -0.1717  0.1974
29266W        W46113   9.903  12.976  11.604 -0.3809  0.1383  0.0553
29267W        W46114  10.617  13.643  12.717 -0.0431 -0.2387  0.0683
29268W        W46115   6.833   8.614   0.213 -0.0627  0.1153 -0.1967
29269W        W46116   3.455   1.868  12.014  0.2048 -0.3314 -0.0017
29270W        W46117  12.726   3.910   2.761  0.2936 -0.0639  0.1058
29271W        W46118  17.020   6.321  13.616  0.2641  0.1110 -0.1651
29272W        W46119   9.964  19.248  13.662 -0.0842 -0.2777 -0.0341
29273W        W46120   4.861   6.921   0.124 -0.0004  0.0153 -0.1727
29274W        W46121  11.039  12.033   1.687 -0.0593  0.0014  0.2171
29275W        W46122   7.442   4.582   2.334 -0.1108  0.0120 -0.0965
29276W        W46123  12.668  13.396  12.402  0.0051  0.0644 -0.0300
29277W        W46124   5.532   4.643   1.204 -0.0890 -0.1491 -0.2853
29278W        W46125   0.173   5.092  10.927  0.1010 -0.0808  0.2726
29279W        W46126   3.572   4.059   3.365  0.2255 -0.0945 -0.1733
29280W        W46127   0.250   5.718   0.788 -0.4519 -0.0567  0.3109
29281W        W46128   2.638   0.661   2.250  0.2957  0.2575  0.2589
29282W        W46129  15.744   3.216  13.757  0.0235  0.4289  0.1934
29283W        W46130   6.957   9.847   9.260 -0.1202 -0.2419  0.2398
29284W        W46131  14.574  10.213  11.420  0.0024 -0.0159  0.0189
29285W        W46132  10.689  19.909   1.782  0.1907  0.2490  0.1829
29286W        W46133   3.684  12.890   2.649 -0.1978 -0.2630 -0.2548
29287W        W46134   3.383  17.154  11.964 -0.1132 -0.0772 -0.0869
29288W        W46135   5.055  17.521  10.676  0.2162 -0.0683 -0.4511
29289W        W46136  12.114   7.773   5.330 -0.0508  0.1252  0.1595
29290W        W46137   0.405  12.468  12.625 -0.1054 -0.0808 -0.0337
29291W        W46138   5.663   0.577   5.126  0.0949  0.1554 -0.1491
29292W        W46139  14.531   9.756   3.693  0.0851  0.1231 -0.1256
29293W        W46140  10.352   9.049  10.428  0.0327  0.1253  0.0039
29294W        W46141   2.274   9.019  13.693 -0.3525  0.0163  0.1832
29295W        W46142  18.481   6.395  10.979 -0.1091 -0.0014  0.0209
29296W        W46143  10.184  12.191   0.949 -0.4173  0.2132 -0.1931
29297W        W46144  13.023   0.851   1.439 -0.1090 -0.1196  0.3008
29298W        W46145  15.322  14.216   3.327  0.0515 -0.0673  0.1467
29299W        W46146  17.998  12.004   0.586  0.3436 -0.2239 -0.1058
29300W        W46147   5.930  18.470  13.473  0.0256 -0.1059 -0.4361
29301W        W46148   9.882   8.687   4.009 -0.1066 -0.4530 -0.0059
29302W        W46149   7.478   9.619  12.563 -0.3292 -0.2906  0.3023
29303W        W46150   2.417   2.225   2.668  0.1987  0.2298  0.0671
29304W        W46151  12.589  13.720   0.333  0.1212 -0.0921 -0.1375
29305W        W46152   2.998   8.311   1.703  0.0445 -0.0325  0.0479
29306W        W46153  17.357   7.695   2.224 -0.2221  0.0218  0.0157
29307W        W46154   8.893  12.442   3.974 -0.0159  0.3460  0.0273
29308W        W46155  16.338   9.602  10.256  0.2222 -0.0619  0.0199
29309W        W46156  13.904  10.810   9.883  0.1377  0.1075  0.0080
29310W        W46157   6.221  16.049  11.460 -0.3478 -0.1392  0.2192
29311W        W46158  11.062   5.919   0.000 -0.0229 -0.1795  0.1917
29312W        W46159  10.879   3.645  13.332  0.3637  0.3458 -0.0992
29313W        W46160  10.182  15.611   4.099 -0.2242 -0.1997  0.1047
29314W        W46161  14.742   2.874   0.140 -0.0166  0.2550 -0.1072
29315W        W46162  12.878   7.679   2.169  0.0789  0.1678 -0.3885
29316W        W46163   1.875  16.271  12.476 -0.1528  0.0980 -0.1046
29317W        W46164   4.848   4.875  12.383  0.1159  0.1984  0.0150
29318W        W46165   3.277  10.877  10.436 -0.1890 -0.0715  0.1171
29319W        W46166   0.545  10.701  11.024 -0.0938  0.0670  0.3190
29320W        W46167  19.592  12.381   1.540 -0.2819  0.2795 -0.0875
29321W        W46168   9.089  18.036   2.622  0.0561  0.1468  0.2030
29322W        W46169   1.195   7.434   4.109 -0.0207  0.0055 -0.3704
29323W        W46170   8.124  13.872   1.018  0.4384 -0.0062 -0.0287
29324W        W46171  16.513   4.247   2.315 -0.2747 -0.3548  0.2052
29325W        W46172   6.313   4.342   3.905 -0.1740 -0.1026  0.1320
29326W        W46173   1.726  17.102   1.415 -0.0343 -0.3223 -0.2626
29327W        W46174   8.643   5.490  10.064  0.2998 -0.2031 -0.0200
29328W        W46175   3.273  12.022  12.823 -0.3483  0.1084  0.0997
29329W        W46176   4.902   3.687  13.275 -0.1284  0.0431 -0.0254
29330W        W46177  10.769  13.148  13.759  0.2066  0.0206  0.0125
29331W        W46178  15.257   0.802   2.603  0.0039  0.0419 -0.0054
29332W        W46179   2.673   7.506   0.940  0.0538  0.2564  0.0596
29333W        W46180  12.921   0.464   3.844 -0.1845  0.0023  0.0907
29334W        W46181   3.591   8.008  13.167  0.3995 -0.0107 -0.0580
29335W        W46182  19.650  17.396  13.830 -0.1398 -0.4734  0.1025
29336W        W46183   9.977   9.998  10.973 -0.2812  0.1053  0.0061
29337W        W46184  14.123   2.229  14.114  0.0353 -0.0753  0.0238
29338W        W46185  17.185   7.183   2.109 -0.3200 -0.0753 -0.4485
29339W        W46186  15.582   0.108  14.043  0.1073  0.3479  0.2112
29340W        W46187   5.554   3.153  10.290  0.0089  0.1751 -0.4142
29341W        W46188   5.123   0.481   0.106  0.0443 -0.1917 -0.1507
29342W        W46189   8.297   8.333  12.262 -0.2384 -0.1458 -0.3704
29343W        W46190   7.245  13.810  12.747  0.1554 -0.1554  0.0907
29344W        W46191   9.727  17.228   3.373 -0.2208  0.1100  0.1969
29345W        W46192   3.421   8.232  10.753  0.2830 -0.1382 -0.0654
29346W        W46193  17.110  19.581  10.863  0.0150 -0.1838 -0.0054
29347W        W46194   8.062  12.531   2.190 -0.0060  0.2171 -0.0181
29348W        W46195  14.622  15.046   1.528  0.4386 -0.0542 -0.0038
29349W        W46196  12.680   5.834  11.900 -0.0551  0.0517 -0.1777
29350W        W46197  15.859   3.419  11.961 -0.1524  0.4166 -0.1548
29351W        W46198   7.572  19.125  10.038 -0.2413  0.0285  0.1791
29352W        W46199  14.694   9.403   4.630 -0.4037 -0.0747 -0.3969
29353W        W46200   4.125  14.161   0.729 -0.0724  0.0579  0.0817
29354W        W46201   2.063   3.950   3.810 -0.3441 -0.0983  0.0218
29355W        W46202  10.414   1.122  12.647 -0.3877  0.0301 -0.0242
29356W        W46203  19.877  14.564   0.140  0.0353 -0.0698  0.0604
29357W        W46204  18.459  12.504   2.079  0.0561 -0.0937 -0.0450
29358W        W46205  11.612  19.587   1.053  0.1887  0.0108  0.2653
29359W        W46206   0.223   4.630  10.766  0.0625 -0.3954  0.0228
29360W        W46207   2.220   2.987   3.857  0.0097 -0.2346 -0.0844
29361W        W46208  15.114  11.152   1.688  0.0590  0.3243 -0.0326
29362W        W46209  16.657   0.931   0.154 -0.1062 -0.0763 -0.4332
29363W        W46210   9.161   3.477  12.430  0.2214 -0.0922 -0.2183
29364W        W46211  13.229   9.534   4.369 -0.2117 -0.0426 -0.0431
29365W        W46212  12.202  16.919  11.210 -0.4272 -0.0901 -0.0403
29366W        W46213  13.026  15.273  10.331  0.0308 -0.1688 -0.0819
29367W        W46214  17.532   6.348  13.475 -0.0732  0.1637 -0.5221
29368W        W46215   2.160   8.157  11.608 -0.0375  0.0024  0.1252
29369W        W46216  18.416   4.739  10.819 -0.0784 -0.0133 -0.0688
29370W        W46217   7.519  12.351  11.065  0.1166  0.1724 -0.1643
29371W        W46218   0.312   8.335  12.422 -0.1421 -0.0664  0.2655
29372W        W46219  12.206  11.467   4.454 -0.0236  0.0637  0.0040
29373W        W46220  12.581   1.309  13.442 -0.4448 -0.0766  0.2272
29374W        W46221   4.422  11.418  12.338  0.0063 -0.0757  0.0966
29375W        W46222   4.775   0.906   2.232 -0.1797 -0.1118 -0.0958
29376W        W46223  14.572  17.879   3.640  0.0571 -0.1959 -0.0407
29377W        W46224   3.807   2.357   0.366 -0.2357  0.2741  0.5904
29378W        W46225  15.507   7.470   2.633 -0.1484  0.1713  0.3830
29379W        W46226  17.930   5.614  12.041  0.1239  0.3913  0.0130
29380W        W46227  12.939  18.617  14.016 -0.0254 -0.2819  0.1322
29381W        W46228   5.330  17.693  10.202  0.0278  0.0635 -0.1501
29382W        W46229   5.674  12.094   5.287 -0.1286  0.0012 -0.3815
29383W        W46230  10.989  15.899  13.225 -0.0959  0.1927 -0.2185
29384W        W46231  12.333  16.885   3.404  0.0984 -0.2149 -0.2365
29385W        W46232  10.600   4.610  13.242  0.0766 -0.0478 -0.2702
29386W        W46233  11.020   3.895   2.749  0.0363  0.0029  0.0143
29387W        W46234  14.285   1.083   4.402 -0.0038 -0.2541  0.1889
29388W        W46235  16.582   3.262   9.700  0.1464 -0.0062  0.0717
29389W        W46236  17.054  16.954  12.692 -0.0315  0.0722 -0.1311
29390W        W46237   3.588  12.846   1.312  0.3564  0.2500 -0.2872
29391W        W46238  13.049   4.634   2.595 -0.0926 -0.3696 -0.2765
29392W        W46239  12.425   0.764  11.399  0.2513  0.2557  0.1100
29393W        W46240   2.872  16.113   5.105  0.1523 -0.0647  0.0785
29394W        W46241   2.512   1.590   4.399 -0.0821 -0.0202 -0.0546
29395W        W46242  18.753   5.225   3.810  0.0726  0.3047  0.0381
29396W        W46243  17.987  14.623  11.274  0.0264  0.0931 -0.0143
29397W        W46244  18.981   4.982   0.200  0.1709 -0.1687 -0.0322
29398W        W46245  18.801  16.202  11.948  0.0169  0.2030 -0.1691
29399W        W46246   5.547   6.308   5.336  0.4116 -0.1057 -0.0524
29400W        W46247  17.341   6.377  10.103 -0.0048  0.3219  0.0860
29401W        W46248   1.778   2.697   1.633  0.0468  0.0305  0.1054
29402W        W46249   6.515  16.270   1.782  0.0726 -0.1206  0.1748
29403W        W46250   2.264  14.257   2.426 -0.4239 -0.1299 -0.1178
29404W        W46251   7.067  11.138   1.710  0.2150 -0.3639  0.0652
29405W        W46252  10.212  10.109   1.118  0.3032  0.0857  0.3770
29406W        W46253   6.442   2.044   3.122  0.1445 -0.0475 -0.3158
29407W        W46254  14.784  17.376  14.017 -0.4972  0.1789  0.0385
29408W        W46255   1.006  17.465  12.603 -0.2188  0.1769 -0.0225
29409W        W46256   8.761   5.521   0.382  0.4631  0.4637  0.2849
29410W        W46257   7.509   8.863  13.853  0.1734 -0.1395 -0.1704
29411W        W46258  10.550  13.781  12.022  0.0708 -0.0320  0.2918
29412W        W46259   0.949  13.347  12.546  0.0793 -0.1143  0.2239
29413W        W46260   5.234   2.006   0.384  0.1139 -0.2601  0.1311
29414W        W46261  17.937  19.784   1.989 -0.0030 -0.0730 -0.0008
29415W        W46262  10.667   3.497  11.797  0.0171  0.0378  0.4389
29416W        W46263   0.343  11.213   4.824  0.0043  0.2192 -0.1739
29417W        W46264   4.960   3.811  10.434 -0.0467 -0.0496 -0.0149
29418W        W46265   2.087   5.349  11.533  0.1288 -0.2083  0.0022
29419W        W46266   1.290   8.191   4.613  0.1465 -0.2813  0.3128
29420W        W46267  13.796  19.564  10.584  0.0731 -0.2985  0.1595
29421W        W46268  16.106   9.575  11.528  0.1838  0.2396  0.2589
29422W        W46269   3.770   2.801  12.850  0.0194  0.0930  0.0732
29423W        W46270  10.517  10.359   3.116  0.1863 -0.0147  0.4031
29424W        W46271   9.011   1.172  12.097 -0.0511  0.2858 -0.1147
29425W        W46272   0.478   6.199  11.210 -0.1844 -0.1978  0.0511
29426W        W46273  17.959  12.779   4.481 -0.0013  0.2520  0.2211
29427W        W46274  10.446  14.550   4.021  0.0912 -0.1007  0.2440
29428W        W46275   2.628  10.341   0.619  0.0184  0.3742 -0.0812
29429W        W46276   6.854  12.176  12.503  0.1596  0.2327  0.0991
29430W        W46277   8.479  14.890  12.384  0.1701  0.0308 -0.1241
29431W        W46278   1.380   4.377   1.679 -0.0271  0.2044 -0.3871
29432W        W46279   7.914   0.527  14.239 -0.1836 -0.0716 -0.0393
29433W        W46280  17.829   8.703  10.531 -0.0524  0.2140 -0.1716
29434W        W46281  11.550  14.811   3.102 -0.0693  0.0724  0.1683
29435W        W46282   4.404   2.055  11.867  0.0333  0.0005  0.0014
29436W        W46283   3.590   3.875   2.084  0.1074 -0.1918 -0.0859
29437W        W46284  13.012   5.015   4.087 -0.0553  0.1031  0.1349
29438W        W46285   5.341   1.481   1.730  0.0502 -0.3565  0.0379
29439W        W46286  11.051   2.144  10.758 -0.0978 -0.0786 -0.0517
29440W        W46287  13.484  15.315   3.605 -0.2638 -0.0112 -0.2045
29441W        W46288   1.899   1.641   3.767 -0.2629 -0.0371  0.1959
29442W        W46289  10.099  18.184   3.183  0.1546  0.1501 -0.0762
29443W        W46290  13.792   8.760  12.730 -0.4200 -0.2226  0.0147
29444W        W46291  17.973  16.295  13.479  0.1590  0.1588  0.1157
29445W        W46292  17.382  16.292   2.293  0.0215 -0.2335 -0.1359
29446W        W46293  12.680   8.005  13.194  0.0116 -0.2331  0.2606
29447W        W46294   5.420   0.430  13.672  0.2408 -0.0231 -0.1007
29448W        W46295   9.855  15.992  11.440  0.1030  0.0140 -0.2177
29449W        W46296   2.115   1.724  12.667  0.0052 -0.1657  0.1738
29450W        W46297  11.741  13.470   3.923 -0.1245 -0.2015 -0.2428
29451W        W46298   5.358  18.195   0.792  0.1473 -0.1861  0.2225
29452W        W46299  17.250  19.399   1.305  0.0818 -0.1807 -0.1186
29453W        W46300   1.968   9.288   9.318  0.1747  0.0614  0.1028
29454W        W46301   2.699   0.156  10.672 -0.0699 -0.0365  0.2800
29455W        W46302   1.675  13.604   1.575 -0.3314 -0.0758  0.0524
29456W        W46303   7.932   2.870  10.630  0.0230  0.0165 -0.0847
29457W        W46304   2.889  13.346  11.652  0.1512  0.3271  0.2641
29458W        W46305  16.498   1.104  10.261 -0.1624 -0.0553 -0.2420
29459W        W46306  15.847   9.028  11.354 -0.1599 -0.0534 -0.2806
29460W        W46307   7.179  13.779   0.573 -0.1394  0.0480 -0.2459
29461W        W46308  13.227  13.477   3.801  0.1297  0.4305  0.1648
29462W        W46309   2.585  17.563   1.053 -0.2371  0.3073 -0.1956
29463W        W46310   9.953   9.989  12.397 -0.1199  0.1119 -0.2027
29464W        W46311   1.667   9.856  14.059  0.0821 -0.0295 -0.0151
29465W        W46312   6.079  17.592   9.713 -0.0226 -0.0301 -0.2001
29466W        W46313   5.554  15.978   2.750 -0.3362  0.0415  0.3458
29467W        W46314   8.735   9.105   0.043 -0.2747  0.0663  0.2646
29468W        W46315  13.664   9.496  14.248  0.3252  0.0371  0.0360
29469W        W46316   2.096  14.764  10.672 -0.1194 -0.2838 -0.0081
29470W        W46317   2.709  16.778   0.446 -0.0604 -0.2477  0.4037
29471W        W46318  17.303  16.297  11.481 -0.1231  0.1019  0.0175
29472W        W46319   8.149   2.391  10.604 -0.1015  0.0241  0.1818
29473W        W46320  16.644   1.868  11.475  0.1543 -0.2148  0.1352
29474W        W46321  16.223  11.885   9.372 -0.2466  0.0509  0.0320
29475W        W46322   3.508  13.869  12.329  0.0923 -0.1444 -0.1806
29476W        W46323  14.799   9.508   5.614  0.2119 -0.2032  0.0958
29477W        W46324  16.526   3.534   0.817  0.2156 -0.1413  0.1741
29478W        W46325  11.549  13.941  12.197  0.0999 -0.2705  0.0012
29479W        W46326   2.000  18.696  12.350 -0.0475  0.0274 -0.1982
29480W        W46327  12.287  11.917  13.357  0.2847 -0.2287 -0.0166
29481W        W46328   8.721  16.171  13.774  0.0948  0.0207  0.2061
29482W        W46329   7.640   0.667  12.520 -0.0953 -0.0303  0.1175
29483W        W46330  17.243  18.942   3.486 -0.3815 -0.1048  0.0662
29484W        W46331  14.277   3.032  14.158  0.2422 -0.0935 -0.0104
29485W        W46332  11.839   3.255  11.778 -0.0121  0.0882 -0.0845
29486W        W46333  15.681  16.473  12.348  0.1631  0.0275  0.2775
29487W        W46334   2.846  10.706  10.531  0.1923 -0.4524  0.0963
29488W        W46335   7.555  15.620  12.588 -0.0618  0.0955  0.1844
29489W        W46336   9.178   2.157   4.147  0.0844 -0.1226 -0.2265
29490W        W46337   7.706  16.621   2.409 -0.0611 -0.1515 -0.0977
29491W        W46338   0.769  14.984   1.892  0.0424 -0.3267 -0.1696
29492W        W46339   9.782   9.596   2.082 -0.2147  0.1217 -0.1392
29493W        W46340   8.646   2.846   5.146 -0.0357  0.2512 -0.0589
29494W        W46341  14.993   7.565   4.881  0.0665  0.1984 -0.2520
29495W        W46342  13.590  12.446   5.339 -0.0345  0.3037  0.1786
29496W        W46343  15.577  16.432   1.009  0.2634  0.2092 -0.3991
29497W        W46344  11.672  15.386  14.296 -0.1657  0.2508  0.3051
29498W        W46345  11.691   1.150   0.229  0.2014 -0.2574 -0.2353
29499W        W46346   9.464   8.492   0.764 -0.1121  0.0092  0.0434
29500W        W46347   0.330  10.882   3.477  0.1951 -0.4140  0.1212
29501W        W46348  13.947  13.444  12.600  0.2484 -0.0031  0.2699
29502W        W46349  16.272  13.542  11.737 -0.2558  0.0572  0.4506
29503W        W46350   5.934  13.425   3.997 -0.1439  0.1218 -0.0891
29504W        W46351   4.367   2.481  11.597  0.1333 -0.0780 -0.3507
29505W        W46352  16.091  18.704   2.889 -0.0024 -0.0939  0.1158
29506W        W46353  18.569  16.927   4.834  0.0113  0.4956 -0.0169
29507W        W46354  10.613   8.508  12.656 -0.0415 -0.1180 -0.0353
29508W        W46355   8.671  12.229   4.486 -0.3132  0.0416 -0.1217
29509W        W46356   9.794  10.841  10.457 -0.1942  0.3020  0.0811
29510W        W46357   2.773  10.366  11.294  0.0902 -0.0992  0.0625
29511W        W46358   9.928  14.616   2.344 -0.0660 -0.0169 -0.3745
29512W        W46359   9.176   1.268   4.353 -0.1949  0.1076 -0.0125
29513W        W46360   6.191  13.383   5.265  0.0258 -0.3710  0.2137
29514W        W46361  14.215   0.300  10.634 -0.1270 -0.1511 -0.2470
29515W        W46362   5.607  12.898   1.288 -0.2984  0.1784  0.1975
29516W        W46363   2.043  15.696   2.726  0.1377  0.1658  0.1216
29517W        W46364  19.807  18.653  12.413  0.0771  0.0041 -0.0868
29518W        W46365   3.640  18.738  11.912 -0.0030 -0.5300  0.2228
29519W        W46366  14.795   8.870   4.578 -0.0067  0.2296  0.1412
29520W        W46367   7.320   5.418   5.523 -0.4145  0.0428 -0.0027
29521W        W46368   2.168  19.334  14.239 -0.2672  0.0721  0.2293
29522W        W46369   2.731   1.207   4.166  0.1836 -0.3698 -0.3610
29523W        W46370  10.445  19.482   1.927  0.2497  0.0143  0.2167
29524W        W46371   5.036  14.691   0.289 -0.0637  0.0047 -0.1843
29525W        W46372   3.616  14.517  13.541 -0.0910 -0.0874 -0.1225
29526W        W46373  10.463   2.766   0.626  0.1191  0.2310  0.0481
29527W        W46374   6.499   7.049  10.558 -0.1783  0.4653 -0.1472
29528W        W46375   7.587   8.260  13.873 -0.0304  0.0940 -0.0252
29529W        W46376   7.224   3.024  13.975 -0.0886 -0.2941 -0.0070
29530W        W46377  15.349   4.575   9.607  0.0314 -0.0373  0.3403
29531W        W46378   3.043  19.559  13.819 -0.4557 -0.1041  0.1182
29532W        W46379   5.573  14.574   1.226 -0.3612  0.3960 -0.7046
29533W        W46380   4.454   0.177   9.331  0.1084 -0.0702 -0.0782
29534W        W46381  13.334   7.755  11.987  0.0129 -0.1149 -0.2406
29535W        W46382   4.224   0.044   9.767 -0.1029 -0.0618 -0.3054
29536W        W46383  19.160  18.077   0.136 -0.1263 -0.1329 -0.0929
29537W        W46384   5.751  13.566  12.194  0.0550 -0.2051 -0.3423
29538W        W46385  12.695  18.893  11.802 -0.0309  0.0909 -0.2393
29539W        W46386  18.013   0.588   2.774  0.1684  0.0661  0.3719
29540W        W46387  13.883  14.617  10.342 -0.0442  0.0696 -0.1826
29541W        W46388  12.413  14.020   3.460  0.2573  0.2615  0.4140
29542W        W46389  19.623  15.523   0.338 -0.3625 -0.0397  0.1406
29543W        W46390   6.035  12.689  13.311 -0.1469 -0.0624  0.0037
29544W        W46391   5.779   4.476   9.541 -0.0940  0.1545  0.1482
29545W        W46392  14.735   2.428  10.893  0.0441 -0.4227 -0.1276
29546W        W46393   2.761  16.835  13.365  0.3820 -0.0663  0.3088
29547W        W46394  14.976   7.632   3.590  0.0913 -0.2496 -0.0236
29548W        W46395   5.674  14.996  12.039  0.2614 -0.4112  0.2626
29549W        W46396   6.673   9.180  10.496 -0.2639 -0.0040 -0.1985
29550W        W46397   1.150   0.266   3.576 -0.0784  0.0783  0.1000
29551W        W46398  18.466  17.441  11.435  0.0206 -0.0240 -0.0061
29552W        W46399  12.595   1.593  11.927 -0.0071 -0.0124  0.0408
29553W        W46400   6.633  10.663  13.724 -0.3425 -0.2042  0.3903
29554W        W46401  18.463  10.122  10.326 -0.0395  0.3222  0.1575
29555W        W46402  10.179   8.608   2.278  0.0745  0.0804  0.2145
29556W        W46403   4.372  17.414  13.905  0.1465 -0.1645  0.3070
29557W        W46404   8.532  14.807   3.792 -0.0287  0.0904 -0.2093
29558W        W46405   7.575  14.802   1.111  0.0248 -0.1162 -0.0109
29559W        W46406   2.769   9.779   1.392  0.0796 -0.1445 -0.1713
29560W        W46407   6.562   7.245  10.100  0.3091  0.0254 -0.2544
29561W        W46408  13.915  10.273  10.750  0.0804 -0.1007  0.0805
29562W        W46409  19.025  14.902   2.324  0.0246  0.3083  0.1505
29563W        W46410   5.599   5.706   3.200 -0.1337  0.0510 -0.0376
29564W        W46411   0.725  13.067  13.293 -0.0731  0.0452  0.1958
29565W        W46412  10.131   2.141  10.189 -0.0614 -0.2950 -0.0694
29566W        W46413  19.427   0.394  14.289 -0.0793 -0.0596 -0.3294
29567W        W46414   9.502   8.355   9.975  0.1747 -0.1165  0.0000
29568W        W46415   2.419  17.907  13.851 -0.1083 -0.3319  0.2923
29569W        W46416  19.811  13.617  12.271  0.0928 -0.0403  0.0055
29570W        W46417   5.021  12.059   1.983  0.1487  0.2952  0.2496
29571W        W46418  14.650  18.630   1.102 -0.2712  0.0155  0.3364
29572W        W46419   9.475   3.730  12.922  0.0041  0.3691 -0.1968
29573W        W46420   3.603   1.921   0.164  0.2450 -0.2149  0.0599
29574W        W46421   7.009  11.218  13.604 -0.1492  0.0023  0.1270
29575W        W46422   4.387   2.385   2.600 -0.0055 -0.1889 -0.0083
29576W        W46423   4.581  17.613  11.281  0.1012 -0.0443 -0.2228
29577W        W46424  15.287   5.903   3.563  0.0156  0.0452 -0.1254
29578W        W46425  16.088  18.637  12.879  0.1333  0.1424  0.1804
29579W        W46426  13.147  19.488   4.619  0.3672  0.2651 -0.1475
29580W        W46427   0.134   7.666   0.150 -0.0268  0.1059 -0.0717
29581W        W46428   2.548   7.861   3.319  0.0025  0.3073 -0.1140
29582W        W46429  13.359   0.878  13.489 -0.2497 -0.0495  0.1852
29583W        W46430  16.186   8.175   2.828 -0.1491  0.0549  0.3968
29584W        W46431   4.564  13.237   0.524  0.0533 -0.1130  0.1466
29585W        W46432  17.661   4.385   1.034 -0.1526 -0.0398  0.1475
29586W        W46433   5.907  10.401   9.752  0.2852  0.1178  0.2862
29587W        W46434   2.714  18.023   1.562 -0.0102 -0.2216 -0.0667
29588W        W46435   9.064  19.256  13.992  0.0953  0.1293  0.4799
29589W        W46436  16.593  16.594   3.343 -0.0602 -0.1402 -0.2941
29590W        W46437  16.111  15.025  10.347 -0.3745 -0.0573  0.0058
29591W        W46438  10.822   5.390   4.397  0.1375 -0.1567  0.0157
29592W        W46439   7.576  14.939  14.083  0.1021 -0.0994  0.0204
29593W        W46440  14.226   8.892  14.132  0.2209  0.3135  0.2920
29594W        W46441  12.224  14.485   1.886 -0.5405  0.0312  0.0146
29595W        W46442  17.207   4.826  10.136 -0.1007  0.1881  0.0887
29596W        W46443  17.198   5.727   1.009  0.0110 -0.3405 -0.1108
29597W        W46444  10.421  15.955  11.569 -0.0848  0.0978 -0.0842
29598W        W46445   1.246   5.418  13.133 -0.0238 -0.1725 -0.0992
29599W        W46446   0.550  17.171  14.230  0.0795  0.3228 -0.0070
29600W        W46447  10.827  15.130  10.836 -0.0193 -0.3395  0.0035
29601W        W46448   0.844   4.991  12.033 -0.0824 -0.1028  0.1641
29602W        W46449   9.716  12.171  12.335  0.2032 -0.2806  0.0058
29603W        W46450  12.146   7.475  12.188  0.1920  0.0351  0.2133
29604W        W46451  15.560  16.978  11.120  0.0861  0.4181 -0.1652
29605W        W46452   5.337  17.872   4.457  0.0342  0.0567 -0.0465
29606W        W46453  14.395  14.369   3.371  0.2014  0.2651 -0.1394
29607W        W46454   3.999   2.840   0.067 -0.0488  0.0824 -0.2097
29608W        W46455  10.705   7.143  10.680 -0.0198 -0.0701 -0.1984
29609W        W46456  18.912  13.458  12.914 -0.2102 -0.0474  0.2698
29610W        W46457  10.267  13.229   4.109 -0.0656 -0.2794 -0.0374
29611W        W46458   1.167   9.064  11.923 -0.1930  0.0972 -0.1231
29612W        W46459   3.858   8.434  10.582  0.2085  0.0013 -0.3360
29613W        W46460   5.543  17.782   9.673  0.1157 -0.1772 -0.2381
29614W        W46461  12.403   0.365  13.705  0.2521 -0.3143  0.0763
29615W        W46462   2.395   1.966   5.275 -0.1006  0.2234  0.0982
29616W        W46463  16.988   4.154   3.728  0.0795 -0.0745 -0.3349
29617W        W46464   4.828  19.776   3.176  0.3021 -0.3249 -0.2140
29618W        W46465  12.298   7.507   0.049  0.0393 -0.2325  0.0479
29619W        W46466  16.939   7.558   2.447 -0.0476  0.1995 -0.1055
29620W        W46467  14.812  11.889   1.129 -0.0117  0.2277  0.3705
29621W        W46468   4.972  11.318   1.028 -0.0089  0.3048  0.0387
29622W        W46469   4.923  16.314  11.885  0.1218  0.1097 -0.1661
29623W        W46470   2.507  17.809  10.402 -0.0371  0.1762 -0.1012
29624W        W46471   6.118   1.923  13.954  0.1576  0.0941 -0.1333
29625W        W46472   3.687  11.401   2.307  0.0365  0.1678 -0.0072
29626W        W46473   1.802  17.545  13.281  0.0233 -0.3092  0.1491
29627W        W46474   4.556  19.451  11.022  0.0867  0.0462  0.0664
29628W        W46475  15.096  14.705   4.949  0.0301  0.0784  0.1810
29629W        W46476   0.432   6.489  10.291  0.2077 -0.0580 -0.2110
29630W        W46477   6.862   9.912   5.253 -0.0054 -0.0017 -0.3070
29631W        W46478  15.516  12.882  13.869  0.3288  0.0049 -0.2692
29632W        W46479   5.166  19.695  10.816  0.2429 -0.1520  0.1339
29633W        W46480  19.094  11.843  12.267 -0.1045  0.2646 -0.1766
29634W        W46481  13.072  15.092   4.734 -0.0507 -0.1592 -0.1819
29635W        W46482  12.822  19.331   3.863 -0.0552 -0.1184  0.0567
29636W        W46483   0.158  15.438   0.046 -0.0863  0.1117 -0.1476
29637W        W46484   5.108  12.865  11.993  0.0461 -0.0183 -0.2280
29638W        W46485  14.261   0.016   2.315  0.2563  0.2215  0.4107
29639W        W46486  17.755   0.052  13.919  0.0906  0.6054  0.0223
29640W        W46487   3.632   4.659  12.583  0.1467  0.1076 -0.0776
29641W        W46488  11.002   9.445  10.927  0.1932  0.1902  0.0322
29642W        W46489   5.611   2.217   5.118 -0.3215  0.2031  0.0743
29643W        W46490  17.859  15.076   1.762  0.2664 -0.0918  0.1822
29644W        W46491   5.472  19.333  11.037 -0.0506  0.2891 -0.0737
29645W        W46492  14.277   6.331  13.315  0.2377  0.0361 -0.0887
29646W        W46493  18.241   5.097   1.527 -0.0966 -0.2297 -0.2016
29647W        W46494   4.027  17.081   2.518 -0.1018 -0.1912 -0.1992
29648W        W46495  14.989   9.143   2.685 -0.1804 -0.1502  0.1137
29649W        W46496   8.840  15.486   4.477 -0.1275 -0.1363  0.1397
29650W        W46497   1.338  14.862  11.715  0.1027 -0.1664 -0.0182
29651W        W46498   8.302  13.850   3.697  0.0854 -0.5127 -0.0767
29652W        W46499   0.993  12.023   3.711 -0.0964 -0.1679  0.2004
29653W        W46500  14.105  14.008   1.817 -0.1800  0.1767 -0.0472
29654W        W46501  17.549   2.105   0.891 -0.1396  0.0163  0.1541
29655W        W46502  17.446  11.915   2.719 -0.2279 -0.2180  0.0641
29656W        W46503  18.949  14.617  11.224  0.1987 -0.3885  0.1649
29657W        W46504   4.949  19.525  13.433 -0.0711 -0.0756 -0.0648
29658W        W46505  12.159  10.325   1.098 -0.3544  0.0052  0.2408
29659W        W46506  18.799   9.941   4.025  0.2649  0.4725  0.0839
29660W        W46507   8.197   0.646   5.170  0.1322  0.2172  0.3305
29661W        W46508   6.480   3.004  13.295  0.0589 -0.1823  0.1306
29662W        W46509  17.308  19.123  10.641  0.3807 -0.2351 -0.0499
29663W        W46510  18.576   1.291  13.791 -0.2150 -0.1755 -0.0437
29664W        W46511  18.490   7.768   9.251 -0.2428 -0.1361  0.1260
29665W        W46512  18.590   4.040  13.203 -0.0767 -0.0943  0.0266
29666W        W46513  11.934   0.124   1.179  0.2225 -0.4218  0.0548
29667W        W46514   9.689  10.888   0.984 -0.0002  0.0752  0.3176
29668W        W46515  12.313  19.008  14.305 -0.0122 -0.2590 -0.0667
29669W        W46516  18.726   8.128   0.803 -0.2138  0.4691  0.1737
29670W        W46517   5.790   4.968  10.908  0.1512 -0.1364 -0.0972
29671W        W46518   6.849   9.830   2.429 -0.1696 -0.2679  0.0821
29672W        W46519  17.493  10.208   1.044  0.1775 -0.0002 -0.2502
29673W        W46520  12.516   2.784   2.275 -0.1641 -0.3780  0.0321
29674W        W46521   4.792  12.504   8.782 -0.0193 -0.5319  0.0355
29675W        W46522   0.292  13.315   5.050  0.2965 -0.3875 -0.0128
29676W        W46523  16.222   1.543   5.034  0.1029  0.0936  0.0296
29677W        W46524  10.097   5.054  12.514 -0.0838  0.2840  0.1123
29678W        W46525   0.281   3.136   4.278  0.1280 -0.0260 -0.0210
29679W        W46526   3.233   9.482   2.745 -0.0171  0.1232  0.1826
29680W        W46527   1.026  16.775  13.215 -0.1210 -0.0814  0.2487
29681W        W46528   1.910  12.037   2.882  0.1196 -0.0652 -0.1115
29682W        W46529   1.513  19.309  12.256  0.2829 -0.1846 -0.1691
29683W        W46530   7.631  19.155   4.422 -0.0679  0.3452 -0.1722
29684W        W46531  12.153  19.496  13.031 -0.0212  0.0470 -0.1254
29685W        W46532  19.503   3.112   1.930  0.0972  0.0496  0.2899
29686W        W46533   5.830  14.996  11.402 -0.4755 -0.0324 -0.6487
29687W        W46534   9.967  13.547   3.276 -0.0858  0.0151  0.2276
29688W        W46535   9.485  14.396   9.948  0.0479 -0.3628 -0.2767
29689W        W46536  12.225  14.152   0.668  0.2733  0.0610  0.0641
29690W        W46537   5.275   2.661  11.238  0.0884 -0.0518  0.1803
29691W        W46538   8.228  15.864   2.765  0.0058  0.2547  0.3045
29692W        W46539   2.778  13.994   9.001 -0.0452 -0.0721  0.1052
29693W        W46540  17.586  19.538   1.715  0.0555  0.0648 -0.1723
29694W        W46541   3.762  17.788   3.809  0.3046 -0.0512 -0.1182
29695W        W46542  19.580   0.043  13.790  0.0675 -0.0220 -0.2552
29696W        W46543   6.402  11.991  14.195  0.1506 -0.0278  0.2206
29697W        W46544   6.104  17.446  11.513 -0.2578  0.0383 -0.1288
29698W        W46545   9.178   5.778   0.549  0.1649 -0.0182  0.0304
29699W        W46546   9.806  11.044  10.902  0.2069 -0.0284 -0.0190
29700W        W46547  18.569  11.129   0.036 -0.0809  0.2319  0.3075
29701W        W46548  14.267   2.416   2.230  0.4599  0.0581 -0.0688
29702W        W46549  11.305  17.906  11.746  0.2021  0.2129  0.4440
29703W        W46550   3.891   6.834   4.347  0.1493 -0.0293  0.0416
29704W        W46551   0.277   7.202   5.272  0.3047 -0.1844 -0.0885
29705W        W46552   6.085  12.460   0.393 -0.0741 -0.3374  0.2300
29706W        W46553   7.043  12.820   2.392 -0.0217 -0.3253 -0.2170
29707W        W46554   2.257   2.792   2.896 -0.1196  0.0824 -0.2890
29708W        W46555   9.108  15.085  13.210 -0.0821  0.2056 -0.0231
29709W        W46556  16.126   0.848  14.298 -0.1122 -0.1265 -0.2090
29710W        W46557   5.921  11.637   1.002 -0.1782  0.1914  0.1495
29711W        W46558  14.765   1.370   0.347  0.1910  0.2150  0.2127
29712W        W46559   7.503   6.424  13.149  0.1448  0.0906 -0.0856
29713W        W46560   6.532  11.493  13.350  0.4028  0.0426 -0.0886
29714W        W46561  11.603  11.604  10.668 -0.0122  0.0842 -0.1055
29715W        W46562   8.872   8.289   0.674 -0.1286 -0.2914  0.2951
29716W        W46563  11.029   9.776  11.407  0.1255  0.0850 -0.1620
29717W        W46564   2.972  19.379   4.247 -0.1660 -0.2020 -0.3029
29718W        W46565  18.354   0.175  10.114  0.0301  0.1613  0.0619
29719W        W46566  18.744  15.507   9.651  0.1188 -0.3516 -0.0278
29720W        W46567  14.457   3.959   3.248 -0.0689 -0.3074  0.2234
29721W        W46568  16.322  15.939  11.914  0.0257  0.2796  0.1234
29722W        W46569  19.767   0.608  10.847  0.1938  0.3245  0.0024
29723W        W46570   1.313  16.355   2.445  0.0744  0.0627  0.0240
29724W        W46571  19.783   1.635  11.654  0.2414  0.5045  0.2885
29725W        W46572  12.823  12.745  10.101 -0.2529 -0.2744 -0.2210
29726W        W46573  19.146   5.933  10.503 -0.0073  0.2618 -0.2561
29727W        W46574  11.612   9.497  12.502  0.0302  0.0849  0.1837
29728W        W46575  15.012   1.699   4.692  0.1101  0.0962  0.2097
29729W        W46576  16.843   9.269   2.104  0.0932 -0.1937 -0.1541
29730W        W46577   5.811   8.999   3.691 -0.3601 -0.1131  0.1180
29731W        W46578   0.545  15.135  12.823  0.0283  0.1123 -0.1964
29732W        W46579   4.193   4.164   1.181  0.0618 -0.1457  0.0259
29733W        W46580  18.319   2.033   1.358 -0.1059  0.0690  0.0649
29734W        W46581   7.292   4.389   5.129 -0.0329  0.0629 -0.1434
29735W        W46582  10.916  16.535  13.754 -0.3920  0.0472  0.1127
29736W        W46583  14.179   5.762   1.953  0.5783  0.1825 -0.3106
29737W        W46584   1.029  14.580   4.356  0.2290 -0.1725  0.1578
29738W        W46585  14.732   7.167   1.501 -0.1370 -0.1966 -0.0984
29739W        W46586  15.232  17.517  13.786 -0.0078  0.1648  0.0310
29740W        W46587  13.501   8.552  13.052 -0.2981 -0.1693 -0.0715
29741W        W46588  13.104   5.179   2.690 -0.2749 -0.2792 -0.1795
29742W        W46589   0.259  15.287  10.660  0.1086 -0.2232 -0.1923
29743W        W46590  13.845  13.823  13.016 -0.2236 -0.0361  0.0142
29744W        W46591  14.146   1.901   0.767 -0.3051  0.1671 -0.1797
29745W        W46592   8.274   0.861  10.524 -0.1432  0.5983 -0.2552
29746W        W46593   3.472  17.867   4.544 -0.0939 -0.0292  0.2969
29747W        W46594   6.293  12.979   3.267  0.0497 -0.1828  0.1349
29748W        W46595  16.181   2.900  13.536  0.2027  0.0874  0.1365
29749W        W46596   3.757  12.121  12.387  0.0780  0.0449  0.0634
29750W        W46597  11.183   0.639  13.417 -0.2371  0.4152 -0.0483
29751W        W46598  18.227  17.492  13.026 -0.1996 -0.1951  0.0675
29752W        W46599  11.919  15.542   4.195  0.0454  0.1667  0.1716
29753W        W46600  13.908  19.032  12.990 -0.1201  0.2564 -0.1033
29754W        W46601   2.611  13.159  10.982  0.3956 -0.1831 -0.1732
29755W        W46602   9.547  19.762  12.048  0.0070  0.0293  0.1276
29756W        W46603   0.952  18.024  11.505 -0.1569  0.2548  0.2629
29757W        W46604   1.580  11.625  13.504 -0.1536 -0.0082  0.0505
29758W        W46605   6.436  11.524   0.249  0.0359  0.1559 -0.1796
29759W        W46606   8.303  12.794  10.879 -0.2701  0.2279 -0.1613
29760W        W46607  18.846  15.420  10.187  0.1562  0.0512  0.0746
29761W        W46608  12.360   6.024  12.605 -0.3416 -0.2766 -0.2624
29762W        W46609   9.389   9.053   3.938  0.2388  0.4726 -0.1143
29763W        W46610  13.089   4.840   0.992 -0.1765  0.1354 -0.2311
29764W        W46611   2.012  13.964   1.332  0.0258 -0.0480 -0.0218
29765W        W46612   8.502   7.963   4.943 -0.1143 -0.0010 -0.1025
29766W        W46613   6.979  12.528   1.240  0.1640  0.0047 -0.3382
29767W        W46614   1.936   6.289   2.468 -0.4114 -0.0542  0.0748
29768W        W46615   6.889   2.883   1.851 -0.0769 -0.2591  0.0944
29769W        W46616   6.248  13.514  11.524 -0.0757 -0.2225 -0.0122
29770W        W46617   1.785   7.233   3.172  0.1398  0.1129 -0.0241
29771W        W46618   7.944   3.030   3.126  0.1841 -0.2051 -0.0781
29772W        W46619  14.057  15.841  11.107 -0.1640  0.1098  0.0552
29773W        W46620  18.778   6.153  12.194 -0.0317 -0.0314 -0.0201
29774W        W46621  13.711  11.519  11.426  0.3496 -0.4464  0.1216
29775W        W46622   2.301  11.732   0.379  0.1970  0.0441  0.2335
29776W        W46623  12.179  17.407   2.544 -0.1924  0.2068 -0.2986
29777W        W46624   8.326  10.489   2.009 -0.3060  0.0122  0.0146
29778W        W46625   1.988   3.285  10.049  0.2828 -0.0470 -0.0631
29779W        W46626   0.939  11.809  13.166 -0.4964 -0.1439 -0.4125
29780W        W46627   8.641   3.582  10.155 -0.0940 -0.1387  0.2555
29781W        W46628  19.365  14.103   2.292 -0.2563 -0.0663  0.0314
29782W        W46629   3.828   6.316   5.190  0.0994  0.2131 -0.2353
29783W        W46630  12.281  16.046  10.784  0.0269 -0.1245 -0.0627
29784W        W46631  10.735  19.420   3.276 -0.0213 -0.0835  0.1571
29785W        W46632   4.748  13.387  13.280  0.0715  0.0961  0.2635
29786W        W46633  10.851   0.191   4.544  0.2298  0.0936 -0.1547
29787W        W46634   5.915  19.841  13.164  0.1917 -0.4167  0.1517
29788W        W46635   2.186  15.808   9.953  0.0835 -0.0995 -0.0153
29789W        W46636  13.780   8.925   0.020  0.0838  0.0259  0.1552
29790W        W46637  15.300   1.826  14.107 -0.3678 -0.1424 -0.0790
29791W        W46638  14.922   3.256  11.011 -0.4623 -0.2280  0.2445
29792W        W46639   1.978   6.718   5.459 -0.1228  0.0730 -0.1222
29793W        W46640  12.196   7.184   1.337  0.2690  0.0053 -0.1431
29794W        W46641  12.934  13.982   2.457 -0.0416  0.1672  0.1239
29795W        W46642   5.029   1.280  12.183 -0.0131 -0.2606  0.2329
29796W        W46643   6.756  19.548  11.635  0.0787  0.0615 -0.2233
29797W        W46644  16.014   3.043  11.644  0.2009 -0.0431 -0.0796
29798W        W46645   0.176  14.981  11.068  0.1699 -0.3245  0.0687
29799W        W46646  10.285   4.186  10.616  0.0420  0.0150 -0.0081
29800W        W46647   1.586  17.411   3.113  0.1966 -0.1333 -0.0839
29801W        W46648   0.918   0.553   1.515 -0.2640 -0.0087 -0.0509
29802W        W46649   0.698   1.555   0.250 -0.0297 -0.0191 -0.1139
29803W        W46650  17.831  17.436   0.032  0.1023  0.2460  0.2643
29804W        W46651  12.757  19.056  12.472 -0.0223 -0.1260  0.2170
29805W        W46652  17.428  14.821  13.505  0.1858  0.0211  0.1959
29806W        W46653   4.317   9.783  12.586  0.0285  0.4376 -0.2372
29807W        W46654  12.318  12.475   0.973 -0.0358  0.0210 -0.1440
29808W        W46655  13.266  12.597  14.125  0.0365  0.1471 -0.1759
29809W        W46656  18.780   2.061   1.185  0.0321 -0.1900  0.1227
29810W        W46657  18.849  12.803   2.026  0.1556  0.0881  0.0490
29811W        W46658  11.960   8.780   3.370  0.1411 -0.1629  0.1958
29812W        W46659   0.539  14.361   4.107 -0.3929  0.0479 -0.0242
29813W        W46660  13.393  18.626  13.793  0.6338  0.1844  0.0618
29814W        W46661   0.472   6.070   4.719 -0.0711  0.0603 -0.1435
29815W        W46662  14.342   1.170  12.155  0.2028  0.0948  0.0558
29816W        W46663   5.546   0.689   2.705 -0.3171 -0.1262 -0.0544
29817W        W46664   3.326   6.028   0.182 -0.2061 -0.2723  0.4181
29818W        W46665   1.489  14.626   4.402  0.0117  0.0245  0.0001
29819W        W46666  15.702   5.261   2.326 -0.0487  0.1130  0.0926
29820W        W46667   6.549  18.718   2.596  0.3533  0.0157  0.1479
29821W        W46668  13.628  13.802   4.736  0.0801  0.2270 -0.1890
29822W        W46669   4.550   6.953   4.534  0.0380  0.1245  0.4100
29823W        W46670  13.747   4.744  11.480  0.4669  0.1693  0.0181
29824W        W46671   2.905   5.970  11.961 -0.3497 -0.1478 -0.1997
29825W        W46672   6.576   1.097  13.442  0.2692  0.1794  0.3850
29826W        W46673  13.341   9.648   1.458 -0.0068 -0.0526 -0.0808
29827W        W46674   4.492  12.289  11.669  0.4788  0.1664 -0.0302
29828W        W46675   6.642  19.570  12.722 -0.0372 -0.2520  0.0391
29829W        W46676  10.708   0.057   9.581 -0.1175  0.0117 -0.0949
29830W        W46677  17.194   6.494   0.383  0.1285 -0.1756 -0.0909
29831W        W46678   8.976  13.710  11.917  0.0241 -0.2217  0.1718
29832W        W46679  13.448  19.482   0.384  0.2359 -0.1312 -0.0053
29833W        W46680  11.513   1.606   0.461  0.2704 -0.2064  0.1594
29834W        W46681  18.638   8.535  11.953  0.0100 -0.1135  0.1913
29835W        W46682  15.429   2.504   0.790 -0.1629 -0.4225  0.0601
29836W        W46683   6.426   5.908   1.760  0.1654  0.3911 -0.0407
29837W        W46684   9.563   7.512  13.132 -0.0515 -0.2888  0.0421
29838W        W46685  10.526  16.030   3.172 -0.2765  0.2975  0.0537
29839W        W46686  13.263   0.450   0.083 -0.3786 -0.0152 -0.0918
29840W        W46687  12.854  16.560   0.584 -0.0808  0.1247  0.1105
29841W        W46688   6.109  15.370   4.945 -0.1737 -0.1155  0.1378
29842W        W46689   1.251  16.278  13.226  0.3029  0.0390  0.0665
29843W        W46690  14.670  12.326   3.629  0.1324 -0.1570 -0.1612
29844W        W46691  15.226  16.682  11.780 -0.2328 -0.0546  0.1138
29845W        W46692   7.604  10.374   3.131  0.1024 -0.2222  0.1633
29846W        W46693  14.546  11.028  10.706 -0.1058  0.3294  0.1290
29847W        W46694  11.297   6.783  11.437 -0.1546 -0.1052  0.2162
29848W        W46695  10.988   4.960  12.807  0.0971  0.0540  0.2513
29849W        W46696  17.974   7.880   0.690  0.1314  0.3094  0.0382
29850W        W46697   6.391  15.517  12.210 -0.0664  0.0889  0.1224
29851W        W46698   3.001  17.236   3.514 -0.2111  0.3828  0.0332
29852W        W46699   1.822  16.133   1.525  0.1023 -0.0268  0.2699
29853W        W46700   0.578   8.218   1.324  0.0202 -0.1335  0.1305
29854W        W46701   9.952  10.191   3.434  0.4699  0.1388 -0.4095
29855W        W46702  15.846   0.784  13.434 -0.2011 -0.2877 -0.0746
29856W        W46703   1.468  18.788  12.257 -0.2015  0.1606  0.1051
29857W        W46704  17.457  11.400  12.599 -0.0249  0.2347 -0.1790
29858W        W46705   2.480  17.323  12.516  0.1590 -0.0797 -0.4066
29859W        W46706  14.043   6.995  10.785 -0.2604  0.0797  0.1765
29860W        W46707   0.472   1.320   0.686  0.3195  0.1806 -0.1563
29861W        W46708   0.208   4.751  12.395 -0.0202  0.0559  0.2436
29862W        W46709   2.486  10.193   2.157 -0.0664  0.1899  0.1155
29863W        W46710   7.623   9.271  11.620 -0.0156 -0.0203  0.0493
29864W        W46711   2.410   6.311   2.793 -0.2042  0.1780  0.0018
29865W        W46712   9.310  15.894   3.541 -0.1465  0.2243  0.1384
29866W        W46713  19.107   5.909  14.306  0.0106  0.0850  0.2432
29867W        W46714  17.821  12.997   1.644  0.1862  0.0527 -0.1160
29868W        W46715   4.976  13.305   2.725 -0.0249 -0.1232  0.1612
29869W        W46716   6.897  14.031   3.298  0.3574  0.0980 -0.0469
29870W        W46717  13.738  18.870  11.136  0.0985  0.0312 -0.1849
29871W        W46718   2.914   0.038   3.450 -0.3384 -0.1547  0.2457
29872W        W46719   6.986  12.850   4.516  0.1003  0.1318  0.0609
29873W        W46720  11.646   2.346  10.775  0.3992  0.0565 -0.0419
29874W        W46721   2.607  13.065   9.503  0.1384 -0.1150 -0.1586
29875W        W46722   4.648  16.920  10.165 -0.1735 -0.0391 -0.1513
29876W        W46723   2.004  13.534  13.824 -0.1024 -0.0064 -0.1227
29877W        W46724  17.317  19.535  11.439 -0.2079  0.1904 -0.0621
29878W        W46725   1.386   4.014  11.077 -0.1237  0.2083 -0.0229
29879W        W46726   9.538   4.617  11.334 -0.0843  0.1921 -0.2559
29880W        W46727  11.583   8.937   4.831  0.1481  0.2106  0.0892
29881W        W46728  18.172  16.392   2.391 -0.0887 -0.0359  0.1601
29882W        W46729  14.156  18.554  14.246  0.1329  0.0701 -0.1559
29883W        W46730   5.656   3.088  12.618  0.1484  0.1942 -0.1839
29884W        W46731  18.071  16.191   4.496  0.3534  0.0125 -0.0652
29885W        W46732   6.248   7.775  13.098  0.0779 -0.0796 -0.0808
29886W        W46733  17.757   3.364   3.253  0.0678 -0.0246 -0.0746
29887W        W46734   3.712   2.630  10.369  0.0868  0.0264 -0.1384
29888W        W46735  17.557  18.551  10.651  0.0142 -0.2415  0.2189
29889W        W46736  15.689  12.543   3.533 -0.0203  0.1155 -0.0403
29890W        W46737   4.020   4.077   0.717 -0.2760  0.0821  0.3330
29891W        W46738  19.172  17.603   3.672  0.1015  0.0993 -0.0098
29892W        W46739   1.306  11.197   4.301  0.1007  0.1060  0.2746
29893W        W46740   0.732   0.216   2.269 -0.2324 -0.1421  0.0282
29894W        W46741   9.489   4.439   1.426  0.0100 -0.0254 -0.0658
29895W        W46742   4.297   5.184   1.317 -0.0291  0.0480 -0.0546
29896W        W46743  16.910   0.846  10.713  0.1088 -0.0308  0.3681
29897W        W46744   2.941  10.107   1.032  0.2271  0.0516  0.1245
29898W        W46745   6.224   9.896  12.038 -0.0582  0.1813  0.0495
29899W        W46746   6.057   8.602   1.152 -0.0059 -0.1034 -0.1222
29900W        W46747  11.513   5.872  12.847  0.1562  0.0357 -0.2714
29901W        W46748  17.726  15.793  11.904  0.0502 -0.0291  0.0621
29902W        W46749  11.741  10.864   3.916  0.5100 -0.0898 -0.0813
29903W        W46750   1.497  13.160  10.640  0.1627  0.0339 -0.4003
29904W        W46751  11.993  18.908   0.937 -0.0958 -0.0479 -0.0809
29905W        W46752   7.569  16.422   1.483 -0.0824  0.0162 -0.0908
29906W        W46753  12.597  12.438   4.280 -0.1845 -0.0024 -0.0857
29907W        W46754   8.736  11.444  12.813 -0.1135 -0.0664  0.3510
29908W        W46755  10.789  16.538  10.879 -0.0089  0.0221 -0.2024
29909W        W46756   1.102  11.598   1.171  0.1145  0.0802  0.2488
29910W        W46757  16.917  11.189  11.725  0.0770  0.2931  0.0005
29911W        W46758   3.781  12.303  11.541  0.4545 -0.0295 -0.0611
29912W        W46759   0.896   0.106  11.026 -0.2749 -0.0628  0.1537
29913W        W46760   6.298   9.015   1.780  0.1631  0.1491 -0.2636
29914W        W46761   3.286  19.228  13.524 -0.1783  0.2413 -0.1359
29915W        W46762  12.187  15.140   0.233  0.0679  0.2147 -0.0329
29916W        W46763  16.057  13.879  11.078 -0.0466 -0.5155  0.2566
29917W        W46764  10.047  10.219  14.073 -0.0008  0.1505  0.0722
29918W        W46765   1.299  19.288  14.035  0.1481  0.0815  0.1302
29919W        W46766   3.204   9.428  10.488  0.0152  0.1319  0.1120
29920W        W46767   7.791  19.578   3.911 -0.0644  0.4595 -0.2537
29921W        W46768  14.203   8.114   0.520  0.0224  0.1858 -0.1257
29922W        W46769  13.372  19.194  11.228 -0.0029 -0.3209 -0.1553
29923W        W46770   6.636   7.085   0.639 -0.0801  0.2578 -0.2920
29924W        W46771  12.773   3.045  11.420  0.2288 -0.0324  0.1086
29925W        W46772  12.129  17.809   1.272  0.0877  0.1786  0.2001
29926W        W46773  18.547   0.037   0.684  0.3774 -0.2780  0.3805
29927W        W46774  16.806   2.691   1.971  0.2002  0.0316  0.1257
29928W        W46775  14.051   3.631  13.377 -0.1269 -0.2437  0.1145
29929W        W46776  15.382   8.623  12.560  0.0061  0.0299  0.1680
29930W        W46777  16.002   4.777  14.098 -0.0853  0.0019 -0.1297
29931W        W46778  15.164   8.616   5.060  0.0781 -0.1790  0.3095
29932W        W46779  16.521   7.609  10.766 -0.0854 -0.1133 -0.3629
29933W        W46780   0.598   5.393  14.014 -0.1608  0.1106  0.3413
29934W        W46781  13.466   2.771   0.886  0.0915  0.3722  0.1934
29935W        W46782   6.019   4.946   0.105 -0.0118  0.2365 -0.0360
29936W        W46783  18.264  19.446  11.868  0.1740 -0.0479  0.1318
29937W        W46784   3.001   5.461  12.661 -0.1058 -0.0707  0.0816
29938W        W46785  12.292  11.495  10.142 -0.1964 -0.1175 -0.1561
29939W        W46786  15.437   8.610   0.908  0.2096 -0.2430 -0.0581
29940W        W46787  19.531   9.622  10.598 -0.2311 -0.3456 -0.1916
29941W        W46788   6.739  12.938  14.167  0.2550 -0.2477 -0.1166
29942W        W46789  13.644   7.363   3.236  0.0204 -0.1030 -0.1681
29943W        W46790   0.050   4.820  10.312 -0.0103  0.1972 -0.1122
29944W        W46791  16.459   2.168  11.068 -0.0640  0.1600  0.0291
29945W        W46792   6.920  17.934  12.678  0.2851 -0.0730 -0.0798
29946W        W46793   4.908  11.817  11.386  0.0277 -0.4016  0.0553
29947W        W46794   9.163  13.400   0.589 -0.1155 -0.1661 -0.1116
29948W        W46795  14.589  18.288  11.221 -0.3349 -0.0506 -0.1006
29949W        W46796  14.599   3.331  13.101 -0.1742  0.2612 -0.1483
29950W        W46797   2.589  19.802  13.700 -0.0617 -0.2219 -0.2622
29951W        W46798   3.783  19.442  12.334  0.0587 -0.0223  0.0216
29952W        W46799  19.867  19.042  13.217 -0.3795 -0.6175 -0.1507
29953W        W46800   5.537   3.834   4.823 -0.2096 -0.0410 -0.2046
29954W        W46801  14.275   5.171  10.651  0.0414 -0.1316 -0.1686
29955W        W46802  11.969   1.838   2.687  0.0472 -0.2509  0.1314
29956W        W46803   3.212   7.154  10.218 -0.0632 -0.0439  0.0613
29957W        W46804   8.293  12.926   2.411  0.0421  0.1946 -0.2243
29958W        W46805  11.780  10.912  10.682  0.3054 -0.1513  0.0208
29959W        W46806  17.089  15.373  12.890  0.0536 -0.0682 -0.2356
29960W        W46807  14.008  18.319  10.193  0.2057 -0.1622 -0.2736
29961W        W46808  12.769  15.097   1.385  0.1363 -0.0315 -0.1787
29962W        W46809   2.292  16.891   9.018  0.0085  0.1843 -0.1166
29963W        W46810  14.234   9.607  13.914  0.0442  0.1031  0.3713
29964W        W46811  14.334   8.341   0.940  0.2132 -0.0506 -0.2059
29965W        W46812   0.051  15.512  12.802  0.3573 -0.0633 -0.1234
29966W        W46813  18.481  12.315   3.908  0.0550 -0.0964 -0.0375
29967W        W46814  14.118   0.345  13.852 -0.2328  0.1521  0.1795
29968W        W46815   0.878   8.150   3.309 -0.2200 -0.1046  0.1882
29969W        W46816   0.680   8.519  12.850 -0.3017 -0.1704  0.1444
29970W        W46817  14.912  18.845  12.852 -0.2369  0.1468 -0.0330
29971W        W46818   0.447   2.977   2.968  0.0496 -0.3702  0.2988
29972W        W46819  16.708  15.032   3.284  0.3467  0.1202 -0.1805
29973W        W46820  17.008   1.879  13.262  0.1132 -0.0646 -0.3713
29974W        W46821   0.829  17.207   2.723 -0.2640  0.1086 -0.1306
29975W        W46822  10.114  15.515  11.499 -0.1715  0.1578  0.0553
29976W        W46823  16.035   8.923   2.057 -0.0272  0.3480 -0.1294
29977W        W46824   5.697   4.926   4.263 -0.1879  0.1685 -0.2503
29978W        W46825   0.055   2.914   3.386  0.2529 -0.1453 -0.0032
29979W        W46826   7.994  13.011  14.197 -0.2848 -0.0726  0.1885
29980W        W46827  12.517  19.346  10.121 -0.0444 -0.0586 -0.2703
29981W        W46828   3.418  19.373   9.481 -0.1428  0.1077 -0.2124
29982W        W46829   9.759   3.384  13.181 -0.2678 -0.1120  0.0538
29983W        W46830   5.813  10.812  14.107 -0.3889 -0.3131  0.2849
29984W        W46831   2.824   7.759   4.033  0.0801  0.0922 -0.2522
29985W        W46832  19.269   0.686  12.555  0.0842  0.0178  0.0312
29986W        W46833  11.094   4.029   0.751  0.1430 -0.0985  0.0705
29987W        W46834  16.251  15.208  10.815  0.1091 -0.0225 -0.1889
29988W        W46835   8.823  13.604  11.213  0.3472 -0.2736  0.1571
29989W        W46836  14.163  17.196   2.769 -0.2845  0.3153 -0.2977
29990W        W46837  16.595  13.799   1.975  0.0311  0.0895  0.0818
29991W        W46838  16.109   7.040   9.514 -0.1469 -0.0546  0.3163
29992W        W46839  17.716  10.652   1.038  0.3411  0.4081 -0.2246
29993W        W46840  10.537  17.027   3.618  0.1529 -0.0793  0.2118
29994W        W46841  18.309  12.815  10.227 -0.3442 -0.2702 -0.2240
29995W        W46842  18.103   3.629  12.547 -0.0919  0.3601  0.2263
29996W        W46843  18.221   1.921   3.450  0.0225 -0.1920 -0.1055
29997W        W46844  11.668  10.122  12.666  0.0063  0.2629  0.1240
29998W        W46845  13.281  16.465   3.417 -0.3243  0.1079  0.1816
29999W        W46846   2.919  12.377  12.684  0.2046  0.1803  0.1074
30000W        W46847  14.258   1.183   1.661 -0.1116  0.0730 -0.2727
30001W        W46848  13.442   4.047   3.669 -0.0029 -0.1553 -0.3899
30002W        W46849  16.488   4.714  12.933  0.1418 -0.0942  0.0671
30003W        W46850   1.843   8.735  10.455  0.1307  0.3994 -0.1491
30004W        W46851   0.318  14.429   1.382  0.0802 -0.1276 -0.2100
30005W        W46852  12.958   9.874   2.237  0.0655  0.1534  0.3633
30006W        W46853  14.398  13.921  13.046  0.0883  0.2383 -0.0477
30007W        W46854   6.332   1.225   3.859  0.0760 -0.2951 -0.0934
30008W        W46855   8.310   6.338   1.786 -0.4687 -0.2521 -0.0918
30009W        W46856   9.075   0.970   3.956  0.2792  0.1059  0.3610
30010W        W46857   0.557   2.582   3.357 -0.2073  0.1058 -0.0520
30011W        W46858  15.534  19.666   3.043 -0.1079  0.1387 -0.0766
30012W        W46859  18.080   2.217   0.887  0.2691 -0.0300  0.1435
30013W        W46860   3.285  19.690   4.513  0.1715  0.0469  0.0821
30014W        W46861   7.045   2.661  13.074  0.0437 -0.0173  0.1129
30015W        W46862   1.986   8.924  13.128  0.1337  0.1122  0.2354
30016W        W46863  18.648   7.115   2.520  0.0441  0.2289 -0.0723
30017W        W46864   2.770   4.224  11.162 -0.1172  0.0067 -0.0369
30018W        W46865   8.690  14.821  10.499  0.2901 -0.0691 -0.3219
30019W        W46866   3.819  17.517   4.875  0.2757  0.1108  0.0884
30020W        W46867  14.590  11.032  13.838  0.0444 -0.0824 -0.0756
30021W        W46868   1.182  12.720   0.340 -0.1046 -0.2046 -0.3014
30022W        W46869  14.230   7.625  10.551  0.1338 -0.3468 -0.2016
30023W        W46870  19.593   1.488   3.178  0.2159  0.3790 -0.1500
30024W        W46871   1.029   8.785   3.913  0.2364 -0.1040 -0.1467
30025W        W46872  10.086   5.669  10.641  0.1178 -0.1947 -0.1778
30026W        W46873   0.518   4.405  14.224 -0.0321  0.0352 -0.0799
30027W        W46874   6.028   8.986   0.872  0.0065  0.4632  0.1490
30028W        W46875  18.373   9.969   1.335  0.4037  0.0829 -0.0816
30029W        W46876  13.749  16.320   0.238 -0.0207 -0.1299  0.1849
30030W        W46877  18.909  18.616  12.033 -0.2498  0.4992 -0.4757
30031W        W46878   8.651  15.292   1.338 -0.1034 -0.0349 -0.1745
30032W        W46879  14.728   7.221   3.142  0.3045  0.0356  0.0462
30033W        W46880  11.652   3.147   3.002 -0.1298 -0.0379 -0.1977
30034W        W46881   1.902  14.590   3.918 -0.2292 -0.0118 -0.0177
30035W        W46882   0.090   9.815   9.990 -0.1143  0.0747  0.2366
30036W        W46883   0.288  13.217   1.388 -0.2018 -0.1256  0.2662
30037W        W46884   8.487   3.242   1.432  0.1129 -0.0685 -0.4149
30038W        W46885   8.639  16.479   3.337 -0.2390  0.1681  0.1414
30039W        W46886  10.079   7.298   2.066 -0.4535 -0.4195 -0.1595
30040W        W46887  18.557  19.079  13.854 -0.1138 -0.0554  0.0547
30041W        W46888   2.858   7.079  11.513 -0.0585 -0.2609  0.0820
30042W        W46889   6.214  11.976   0.408  0.0139 -0.2302 -0.0064
30043W        W46890  12.342  16.246  13.296 -0.2384 -0.1909  0.1401
30044W        W46891   2.164  19.531   2.221  0.3516 -0.0161  0.3027
30045W        W46892  14.288   5.011   4.667  0.1218 -0.0953 -0.0023
30046W        W46893  16.811  15.210  10.281  0.0898  0.2743  0.1439
30047W        W46894  18.311   1.300   4.856  0.1438  0.1332  0.1003
30048W        W46895   2.641  19.503  14.083 -0.0078 -0.3083  0.2604
30049W        W46896   6.763   6.624  11.911  0.1856 -0.0500  0.0277
30050W        W46897   2.645   3.685  11.516 -0.4395 -0.0571 -0.0289
30051W        W46898  19.317   5.084  11.005 -0.0882 -0.2870 -0.1994
30052W        W46899  18.675  19.421  12.186  0.0938  0.0068 -0.1520
30053W        W46900   7.835  12.708   0.279  0.1487  0.2721  0.3405
30054W        W46901   9.146  16.772   1.079  0.0348 -0.2037 -0.2809
30055W        W46902  12.373   7.943   9.942  0.2929  0.1196  0.1006
30056W        W46903   6.067  16.783  14.283 -0.0592  0.1779  0.0927
30057W        W46904  14.950  12.352  12.446 -0.0814 -0.1558 -0.0185
30058W        W46905   9.231   8.724   1.303 -0.0983  0.2519 -0.0533
30059W        W46906  19.818   5.157  12.222 -0.2523  0.1836 -0.1776
30060W        W46907  16.918   4.507  11.877  0.3169 -0.1633 -0.0868
30061W        W46908   4.861  17.250   0.459  0.1576  0.2476 -0.2114
30062W        W46909   2.433   3.472   3.821  0.0248 -0.3641  0.2079
30063W        W46910  10.081   6.523   1.085 -0.0311  0.1208 -0.1737
30064W        W46911  13.804  15.669   4.376  0.1301 -0.1962 -0.1881
30065W        W46912  10.996  16.822   3.607 -0.2981  0.0797 -0.0435
30066W        W46913  18.968   0.439   0.742  0.2934 -0.0024 -0.0343
30067W        W46914  12.872   1.796   4.074  0.1401 -0.3929  0.1214
30068W        W46915  10.317   4.915  13.589 -0.0582 -0.0738  0.0923
30069W        W46916  11.172  19.184  11.732  0.1337 -0.3590 -0.1801
30070W        W46917  10.297  10.862  10.551  0.0904  0.1079 -0.1229
30071W        W46918   3.225   2.746   3.386 -0.0841 -0.1093 -0.1102
30072W        W46919  19.490  15.727  11.623 -0.1920  0.0234  0.0177
30073W        W46920   6.222   4.272   1.280 -0.2369 -0.0395 -0.0760
30074W        W46921   5.808   0.436  11.460 -0.0057 -0.1413 -0.1255
30075W        W46922  16.497   5.111   1.683  0.1922  0.1951  0.1666
30076W        W46923   1.262  19.649  10.922 -0.2584  0.2811  0.2114
30077W        W46924  16.347   4.819  11.285 -0.0754 -0.0141 -0.1738
30078W        W46925  17.859   3.634  11.747  0.1359 -0.0039  0.1276
30079W        W46926  17.342   6.652  13.844 -0.0116 -0.3852 -0.2938
30080W        W46927   3.277   2.599   0.629  0.1611 -0.1143  0.4136
30081W        W46928  19.012  15.981   3.761  0.1039 -0.1962  0.1087
30082W        W46929  17.535  14.899  13.967 -0.0417  0.0964 -0.2202
30083W        W46930  19.746   7.330   5.712 -0.1303  0.0484  0.0969
30084W        W46931  11.097   3.559   4.802 -0.1754 -0.0720 -0.0885
30085W        W46932  10.500   8.125   2.249  0.1343  0.0071  0.0930
30086W        W46933   2.357  15.255  13.667  0.0110 -0.1160 -0.3334
30087W        W46934  10.136   8.732  12.829  0.0924 -0.0182 -0.0521
30088W        W46935  13.188   9.562  11.858  0.0189  0.2549 -0.1975
30089W        W46936   9.996   6.343  13.097 -0.4624  0.1633  0.0727
30090W        W46937   0.754  15.392   2.203  0.3748 -0.1053 -0.1642
30091W        W46938   6.853   9.631  10.779  0.2751  0.3659 -0.2237
30092W        W46939  16.075  17.687   2.629 -0.4853 -0.0468 -0.1039
30093W        W46940  12.185  17.937   0.713  0.1225  0.1314  0.2018
30094W        W46941   0.279   3.980   9.909 -0.2200  0.1067  0.0010
30095W        W46942  10.722   5.555   0.597  0.1426 -0.0025  0.1461
30096W        W46943  14.103  11.281  12.147 -0.1486  0.4964  0.0528
30097W        W46944  12.457  15.796  14.029 -0.1286 -0.1863  0.0985
30098W        W46945   1.303   8.718   2.282  0.0918 -0.0409 -0.0691
30099W        W46946  10.838  18.391   3.083 -0.1123  0.0237  0.0962
30100W        W46947  14.365   4.886  13.613  0.3039  0.1314 -0.2765
30101W        W46948  16.018   2.871  10.218 -0.3390  0.3192 -0.0892
30102W        W46949   5.826  17.193   4.044 -0.3004  0.1146  0.0823
30103W        W46950  13.229   5.472  12.327  0.1408 -0.0326  0.0644
30104W        W46951  15.723  15.151  11.237 -0.2177 -0.2810  0.1155
30105W        W46952  18.283   4.697   0.002  0.1242 -0.0086  0.5033
30106W        W46953  10.330  14.369   1.500 -0.0189 -0.1554  0.1573
30107W        W46954  10.235   0.937  10.401  0.1456 -0.0144  0.0099
30108W        W46955   4.604   8.395  12.261 -0.1846 -0.0735 -0.0562
30109W        W46956   5.311   4.458   9.407  0.3050  0.0875  0.0221
30110W        W46957   9.056   1.218   1.937 -0.1457 -0.2854 -0.2342
30111W        W46958   1.763   7.708   3.078  0.0995  0.1457 -0.1211
30112W        W46959  14.821   1.923   0.033  0.0395  0.0310  0.1045
30113W        W46960   4.183   3.900   9.728 -0.2242  0.0367  0.0340
30114W        W46961   0.076   5.398  13.947  0.2710 -0.0529 -0.0620
30115W        W46962   9.733   6.348   4.034 -0.3182  0.2070  0.1829
30116W        W46963   5.434  10.936   3.266 -0.0935  0.3868  0.0021
30117W        W46964  16.160  14.255   3.776  0.4636 -0.3552 -0.1944
30118W        W46965  18.060  18.654  11.091  0.3911 -0.0852  0.1695
30119W        W46966   9.261  13.493  13.251 -0.1766 -0.1223  0.0420
30120W        W46967  13.280  18.160   0.556 -0.2231  0.5057  0.0486
30121W        W46968  17.712   0.115   1.623  0.2471  0.0638  0.0048
30122W        W46969  10.268   0.150   2.670 -0.1422 -0.3244  0.1900
30123W        W46970  16.330  15.645  12.900 -0.0556 -0.0630  0.2730
30124W        W46971  19.236   8.376   3.122  0.2668 -0.1264  0.1556
30125W        W46972   2.792  15.126   4.178  0.2422 -0.1240  0.2359
30126W        W46973  15.572   4.013   0.367  0.1965  0.1448 -0.1655
30127W        W46974   2.218  19.891  10.450  0.4932  0.0546 -0.0005
30128W        W46975  12.460  16.723  12.448  0.0300  0.1044  0.0359
30129W        W46976  16.831   5.739   2.251 -0.0709  0.1054 -0.1565
30130W        W46977  11.758   1.435  14.094 -0.0446 -0.0750  0.1890
30131W        W46978  17.388   6.217   1.281  0.0691 -0.2808  0.0054
30132W        W46979  19.068  18.571  11.502 -0.4039 -0.0833  0.3525
30133W        W46980   4.784  18.008  11.666 -0.1498  0.1811  0.2335
30134W        W46981  13.768  14.387  10.835 -0.4355 -0.0222  0.0966
30135W        W46982  18.094   4.345   2.927  0.0122  0.1994 -0.0600
30136W        W46983  10.424   6.131   1.248 -0.1416  0.0159 -0.3575
30137W        W46984   1.037  15.740  14.011  0.2635  0.1943  0.0701
30138W        W46985  13.268  18.272   2.542  0.1402  0.2001  0.0300
30139W        W46986  10.432  10.981   4.661  0.1291 -0.0743  0.2563
30140W        W46987  13.464  11.827   2.322  0.2040  0.2627 -0.2150
30141W        W46988   2.123   8.038   1.564 -0.0228 -0.2081 -0.0808
30142W        W46989   0.257   3.037   1.630 -0.2565  0.0581 -0.0575
30143W        W46990   3.684  13.073  12.617  0.2213 -0.1881  0.1025
30144W        W46991   3.902   7.340  11.688 -0.0748 -0.0709  0.1247
30145W        W46992  14.616  13.762  13.545  0.0081  0.0544  0.1434
30146W        W46993  15.145  16.004   1.780  0.0716 -0.1112  0.0269
30147W        W46994   7.164  10.608  10.429  0.0847  0.2871 -0.0462
30148W        W46995  14.383  12.971  10.480  0.2827 -0.0827  0.1058
30149W        W46996   0.879  13.100   0.227 -0.0730  0.2498 -0.0314
30150W        W46997   1.762  13.609  10.765 -0.1644  0.4290  0.4128
30151W        W46998  13.397  15.198  11.284 -0.1488 -0.3633  0.0220
30152W        W46999   3.587   3.697  14.194 -0.0168  0.3743  0.0175
30153W        W47000   1.176   3.734   0.232 -0.1161  0.1235 -0.4042
30154W        W47001   0.641   9.975  11.075 -0.2463  0.0867 -0.1826
30155W        W47002   3.337  12.932  13.150 -0.1856  0.2933 -0.2831
30156W        W47003  15.009   6.807   1.639  0.0042  0.1723  0.0342
30157W        W47004  19.363   4.198  12.643  0.1239 -0.1454  0.2044
30158W        W47005   9.460   9.972   2.395  0.0082  0.0807  0.0398
30159W        W47006  19.063   1.374   4.653 -0.2494 -0.3422  0.1168
30160W        W47007   5.436   7.911  12.431  0.1656 -0.1111 -0.1706
30161W        W47008  17.376   3.300   0.467 -0.2068  0.0469  0.0381
30162W        W47009   1.974  19.333  12.582  0.1527  0.2287  0.1283
30163W        W47010  10.994  15.229   0.812 -0.3043  0.0247  0.1140
30164W        W47011  19.890   9.538   2.453 -0.0555  0.3384 -0.0641
30165W        W47012   5.737  17.197   2.563 -0.0992  0.0512  0.2261
30166W        W47013   5.795   9.496   2.199 -0.0148 -0.2703  0.1430
30167W        W47014   3.705  18.973   9.422 -0.0025  0.0525 -0.2089
30168W        W47015  11.431   0.775  11.603 -0.1419 -0.1148  0.1940
30169W        W47016  11.048   7.846  14.131 -0.0278 -0.0175  0.0718
30170W        W47017   9.019  14.100   1.144  0.4942 -0.2786  0.3452
30171W        W47018   6.753   1.897   2.790 -0.1283  0.0150 -0.2199
30172W        W47019   8.868  15.902  11.360 -0.2060 -0.0328  0.0245
30173W        W47020  13.760  16.564  12.553 -0.2020  0.2535 -0.2761
30174W        W47021   5.526  11.853   4.817 -0.1478 -0.0067 -0.2092
30175W        W47022   3.450  19.783  14.064 -0.0423 -0.4093 -0.0378
30176W        W47023  10.875   7.087  11.625 -0.2336  0.0437  0.4062
30177W        W47024  12.328  19.623   2.896 -0.0567  0.4269 -0.0191
30178W        W47025  13.189   3.907   2.508 -0.3270 -0.1148 -0.0837
30179W        W47026   1.832  13.999   0.543  0.1897 -0.0411 -0.2507
30180W        W47027  18.896   9.393  12.753 -0.3915 -0.1184  0.3261
30181W        W47028  19.840   4.265  11.270  0.0456 -0.2612 -0.0284
30182W        W47029   6.292   1.291  10.762 -0.0838  0.1476  0.2804
30183W        W47030  18.105   4.066   0.616 -0.0512 -0.3246 -0.0462
30184W        W47031   2.842   1.348   0.519  0.2688 -0.4530  0.0560
30185W        W47032   6.273  11.027   3.060 -0.2855  0.0599  0.2146
30186W        W47033  14.133   6.514   0.122  0.2359  0.2630  0.1955
30187W        W47034   3.256  17.109  13.462 -0.4263 -0.1328 -0.1303
30188W        W47035  18.095  10.602  11.650  0.1296  0.3014  0.4086
30189W        W47036   8.947   1.266  13.765  0.1678 -0.0822 -0.3450
30190W        W47037   1.542  15.075  12.565 -0.3123 -0.2930 -0.0116
30191W        W47038  14.335   2.936  12.075  0.0969  0.3104  0.0982
30192W        W47039   8.533  19.544  13.129 -0.2563 -0.2442  0.0377
30193W        W47040  19.091  18.690  13.746 -0.1027 -0.0476  0.3081
30194W        W47041   1.149  11.252   9.735  0.0324 -0.0211 -0.1908
30195W        W47042   4.078   9.399  11.859 -0.1276  0.2421 -0.0825
30196W        W47043   1.716   2.149   2.061 -0.0815  0.3110 -0.1034
30197W        W47044  17.574   1.545   1.083  0.0832 -0.2078 -0.1394
30198W        W47045  11.054   1.065  12.485 -0.1003 -0.1027  0.0508
30199W        W47046  14.529   4.542  13.222  0.0731 -0.1317 -0.2178
30200W        W47047  19.238   4.097   0.436  0.1578  0.0196  0.0760
30201W        W47048  14.300  18.626   2.682 -0.0534  0.1496 -0.3051
30202W        W47049   3.838  10.969   0.884  0.1256  0.0792  0.1907
30203W        W47050   3.859   6.256   2.151  0.0770  0.2347 -0.0774
30204W        W47051   5.312   4.503   0.254  0.1009  0.0936 -0.0939
30205W        W47052   1.369  15.051   2.009 -0.1445  0.2294  0.1221
30206W        W47053   0.380  18.922   3.535  0.0501  0.0883  0.1693
30207W        W47054  13.627  15.292   0.177 -0.0169  0.0261  0.4607
30208W        W47055  19.381  12.783   1.119 -0.2378  0.0556 -0.0210
30209W        W47056  18.129  10.991   4.547 -0.1159  0.0954 -0.3056
30210W        W47057  14.433  12.200   5.486 -0.0362 -0.1866  0.1114
30211W        W47058   8.584   2.063   4.797 -0.2267 -0.0544 -0.2518
30212W        W47059  10.883   9.964   3.277  0.0984  0.1869  0.2337
30213W        W47060   8.594  13.117   4.821  0.2922  0.0564 -0.2350
30214W        W47061  13.083   5.399   0.892  0.0864  0.0658  0.0179
30215W        W47062  12.459  17.521  10.846  0.1893  0.0262 -0.1182
30216W        W47063   3.823   4.494  13.205 -0.0953  0.2081  0.0827
30217W        W47064  16.502   1.716   2.504  0.1417  0.0249 -0.4382
30218W        W47065   5.828  16.682   4.180  0.1623 -0.0362  0.2000
30219W        W47066  18.833   5.355   0.777 -0.1942  0.0929 -0.2397
30220W        W47067   7.494  19.630   9.937 -0.1484 -0.1650 -0.0517
30221W        W47068  10.595  19.469   1.414  0.1450  0.1420  0.0604
30222W        W47069   7.576  10.897   3.924  0.3569  0.2092  0.0927
30223W        W47070  15.692  18.020   2.326  0.3236 -0.1543 -0.2639
30224W        W47071  19.405   3.128  10.383  0.2602  0.0257 -0.2610
30225W        W47072  11.682  18.435  11.877 -0.0978 -0.0582  0.0119
30226W        W47073  10.427   4.308  12.425  0.1458 -0.0086  0.1058
30227W        W47074  11.154   8.607  10.246  0.1741  0.0200 -0.3460
30228W        W47075   9.856  10.730  13.916 -0.0987  0.0522  0.0949
30229W        W47076   2.700  15.157   1.429 -0.1365  0.2693 -0.0564
30230W        W47077   6.933  14.254  11.701 -0.1787  0.1249 -0.2923
30231W        W47078   0.887   8.163   1.765  0.0882  0.0390  0.2333
30232W        W47079  13.166   3.336  11.368 -0.0283  0.1305  0.0837
30233W        W47080  13.780   0.603  10.431  0.1922  0.0063  0.0838
30234W        W47081   8.546   6.119   2.193  0.1913  0.2271 -0.0344
30235W        W47082   1.463  16.742  12.957 -0.1851 -0.4608  0.0999
30236W        W47083   3.665  16.399   1.787  0.1542 -0.1484 -0.3320
30237W        W47084   9.996  10.544  10.802 -0.0491 -0.1965 -0.0363
30238W        W47085   1.982   7.761  10.253 -0.0085  0.0396  0.0373
30239W        W47086   6.299   4.236   1.816 -0.0307 -0.0678 -0.0965
30240W        W47087   7.669   4.190   5.370 -0.5965  0.2910  0.1182
30241W        W47088  19.476   7.189   4.764 -0.0466  0.0454  0.1397
30242W        W47089  16.346  16.626  12.610  0.0209  0.4263  0.2582
30243W        W47090   8.342   1.628  13.867  0.0438  0.0932  0.2405
30244W        W47091  19.064   5.334   2.482  0.2051 -0.0537 -0.0148
30245W        W47092   2.207   4.887  11.280 -0.0144  0.0396  0.2689
30246W        W47093  16.467   7.701  12.995  0.0848 -0.2173 -0.0728
30247W        W47094   8.267  17.205  13.278 -0.2096 -0.2801 -0.1993
30248W        W47095   5.213   4.528  12.663  0.1865 -0.2346  0.2709
30249W        W47096  16.836   8.617  14.050  0.3660 -0.1424 -0.3878
30250W        W47097   3.694  19.481   1.256  0.3028  0.1548  0.0987
30251W        W47098  11.997  14.987   1.970  0.2334  0.1330 -0.0589
30252W        W47099   3.282  16.628   2.304  0.2370  0.2684  0.2393
30253W        W47100   5.650   8.427   1.801 -0.0401 -0.0495 -0.1470
30254W        W47101  13.042  15.261   3.774  0.1941  0.0628 -0.2884
30255W        W47102   7.896  14.393   1.121  0.0593 -0.2023  0.2202
30256W        W47103  13.002  10.389  10.833 -0.0477  0.0483 -0.2386
30257W        W47104   3.298  15.152   4.045 -0.4579 -0.0044  0.1941
30258W        W47105   4.647   6.032  13.584 -0.2407  0.0955 -0.0396
30259W        W47106  19.657  16.431   2.519  0.1754  0.3054  0.0466
30260W        W47107   6.040  15.879  13.486 -0.1190  0.1617 -0.2227
30261W        W47108   0.147  17.608  12.935  0.1095 -0.0784 -0.1785
30262W        W47109   3.500  18.694   4.054  0.0498  0.0681  0.1729
30263W        W47110   4.187   2.389  14.245  0.0890  0.0448  0.0998
30264W        W47111   7.791   5.165  10.063 -0.0806 -0.1602  0.1261
30265W        W47112  17.772   3.775  10.118 -0.1930  0.1159  0.1385
30266W        W47113   5.657   7.233   3.002 -0.1869  0.0231  0.0710
30267W        W47114  17.822   1.079   1.297  0.1028 -0.0437 -0.0516
30268W        W47115  13.295   5.841   1.057  0.0961  0.0119 -0.1501
30269W        W47116   3.955  13.863   0.390  0.1555  0.2640 -0.3509
30270W        W47117  17.628   4.198  12.366  0.0930  0.0190 -0.1068
30271W        W47118  14.631   4.800   5.103  0.1961 -0.0326  0.0349
30272W        W47119   4.955  18.068  12.142  0.0659  0.1319  0.0105
30273W        W47120   5.250   1.760   1.295  0.1899 -0.2984  0.0989
30274W        W47121   2.906  17.761  13.793 -0.1396 -0.0419 -0.1347
30275W        W47122  18.572   9.445  12.388 -0.0564  0.2225 -0.4434
30276W        W47123  11.554   8.153  11.075 -0.1074 -0.0343  0.1449
30277W        W47124  15.208  17.566  14.249  0.3781 -0.2400 -0.1279
30278W        W47125  12.453   1.062   4.632  0.1197  0.2451  0.2517
30279W        W47126  19.012  19.118  14.127 -0.2360  0.0802 -0.1237
30280W        W47127  15.572  16.650   1.531 -0.1343  0.1836 -0.0807
30281W        W47128  11.808   6.614  13.026  0.0137 -0.2483  0.2525
30282W        W47129   3.272   4.151  11.859 -0.1174 -0.0085 -0.2961
30283W        W47130   9.291   0.070  10.485 -0.1680 -0.1533 -0.1840
30284W        W47131  11.357   0.527   2.022 -0.1527 -0.2756  0.1656
30285W        W47132  16.894  16.580   1.260 -0.0071 -0.1978  0.2140
30286W        W47133  12.140   1.856  14.065  0.0566  0.0882 -0.1327
30287W        W47134  16.076  18.402  10.030  0.1770 -0.0170 -0.0711
30288W        W47135   3.403   4.357   0.327  0.0195  0.0520 -0.4797
30289W        W47136  18.886  11.460   0.934 -0.0908 -0.0734  0.0406
30290W        W47137  16.657  12.519   1.025 -0.4333 -0.1163 -0.1216
30291W        W47138   5.906  12.184   1.659 -0.0703  0.0097  0.1634
30292W        W47139   9.230   0.121   3.005 -0.1095  0.2343 -0.0747
30293W        W47140  14.006  11.188   2.554 -0.2063 -0.1725  0.2723
30294W        W47141   5.054  13.717   4.493 -0.2255  0.4827 -0.0266
30295W        W47142  12.490  14.843  13.943 -0.3061 -0.1558  0.3751
30296W        W47143   7.726   2.096   2.687  0.1125  0.0430 -0.4028
30297W        W47144  12.178  16.524   3.769 -0.3762  0.0310 -0.0850
30298W        W47145  15.215   4.140   0.079 -0.1096 -0.0627 -0.2130
30299W        W47146   3.900  19.591   0.766  0.0094  0.1493  0.1773
30300W        W47147  11.225  17.761   3.878  0.0928  0.1525  0.2138
30301W        W47148   7.357  18.443   2.654 -0.1011  0.3244 -0.1426
30302W        W47149  13.268  13.210  11.538  0.2549 -0.0452  0.1473
30303W        W47150  10.234   8.870   0.134 -0.2432  0.1670 -0.0122
30304W        W47151   8.240   4.328  11.660  0.1640  0.0583 -0.1009
30305W        W47152   0.200   9.520   0.117 -0.1715 -0.3809 -0.1622
30306W        W47153   4.116  17.127   2.984 -0.1992 -0.2112 -0.3918
30307W        W47154   8.489  15.797   4.809 -0.3586 -0.2122 -0.0966
30308W        W47155  16.756  17.543  13.635  0.0646  0.0241 -0.1276
30309W        W47156  13.547   9.128   3.717  0.1778 -0.1264  0.3782
30310W        W47157   6.920   2.113  13.401 -0.1397  0.3527 -0.2521
30311W        W47158   1.124   5.833   4.042 -0.2804  0.0498  0.3480
30312W        W47159  16.015  11.938   4.015 -0.1212  0.0700  0.1095
30313W        W47160  10.213   7.734   2.456  0.1733 -0.0949 -0.0781
30314W        W47161   6.976   5.024  14.171 -0.0614  0.1430 -0.3476
30315W        W47162  15.860  18.328   3.361 -0.1272  0.0976  0.0778
30316W        W47163  12.692   9.403   0.233 -0.0311  0.0361 -0.3501
30317W        W47164   8.278   7.379  10.106  0.1656 -0.2948  0.0187
30318W        W47165  11.329   3.303  11.043 -0.0137  0.0288  0.1521
30319W        W47166   1.643   5.771   9.519 -0.3584 -0.0496 -0.0396
30320W        W47167   4.060   9.559   3.136  0.1423 -0.0367 -0.2371
30321W        W47168   1.961  11.504   1.284 -0.4253  0.0357  0.2715
30322W        W47169   8.844   4.510   2.164 -0.0118  0.0478  0.0581
30323W        W47170  15.457  15.503   1.656  0.0476 -0.0240 -0.2236
30324W        W47171  17.768   9.144   3.641  0.0887 -0.2382 -0.0171
30325W        W47172   8.876   2.164   2.023  0.0551 -0.0090  0.5220
30326W        W47173   7.664  14.752  13.597 -0.0277  0.0730  0.0045
30327W        W47174   1.554   5.697   9.975 -0.1743  0.1186  0.1962
30328W        W47175  19.886  14.900   1.752 -0.1412 -0.2856  0.2668
30329W        W47176   6.533   0.431   4.585 -0.1023 -0.1354  0.0152
30330W        W47177  14.765  16.865  13.569  0.0490  0.2359 -0.2058
30331W        W47178  17.924  16.929   3.543 -0.2143  0.0151  0.1710
30332W        W47179  14.137   0.328  10.148  0.0951 -0.0736 -0.3412
30333W        W47180   0.050   7.727   4.229  0.0307  0.2422  0.0966
30334W        W47181   9.462  13.737   4.353  0.1662 -0.2018  0.3218
30335W        W47182   9.941  19.022   0.969 -0.0146 -0.2127  0.1857
30336W        W47183  10.173   5.853   2.778 -0.3339  0.0376 -0.1321
30337W        W47184  11.419   1.480   0.978 -0.1123 -0.0917  0.1496
30338W        W47185  16.406  16.707   2.413  0.1778 -0.3793 -0.1134
30339W        W47186   7.298   3.507  13.303  0.2097  0.4935 -0.1171
30340W        W47187   5.138  11.757   2.873  0.1532  0.0357 -0.0899
30341W        W47188  10.576  15.917   0.656  0.2499 -0.0562 -0.2046
30342W        W47189  16.267   1.128  10.851 -0.0557  0.1328 -0.0237
30343W        W47190  16.505   1.035  13.164  0.2045 -0.2466 -0.0604
30344W        W47191   9.020   0.660  11.145  0.1155  0.0450  0.3802
30345W        W47192  11.520   1.271  12.346  0.4923 -0.0599 -0.0365
30346W        W47193  12.682   2.826   0.258  0.0132 -0.2752  0.5654
30347W        W47194  19.750  15.930  12.832  0.2149  0.0109  0.1640
30348W        W47195  18.984   0.680   5.268 -0.2821  0.0500  0.0794
30349W        W47196   5.323   3.628  11.946 -0.3956 -0.0344 -0.2848
30350W        W47197   4.550   1.170  12.416  0.0311 -0.3282  0.2743
30351W        W47198  19.881   1.874  13.378  0.1499  0.0774 -0.2463
30352W        W47199  15.651  16.003   1.716 -0.0749  0.1162 -0.0611
30353W        W47200  10.635   6.639  10.838 -0.2207  0.1833  0.0875
30354W        W47201   1.376   4.266   0.629 -0.0211  0.0613 -0.2992
30355W        W47202   6.405   7.563   1.964  0.0846  0.0762 -0.0029
30356W        W47203   1.276   7.333   1.591  0.0460  0.2725  0.2382
30357W        W47204  14.714  10.949  13.368 -0.2086 -0.1699 -0.4573
30358W        W47205  10.435   9.004   2.465  0.0604 -0.0407 -0.1098
30359W        W47206   2.485   6.238  14.135  0.2281  0.3180 -0.5545
30360W        W47207   9.396   7.125  12.841 -0.0691  0.1256  0.2107
30361W        W47208   3.234   5.433  10.651  0.0172  0.2518  0.1330
30362W        W47209  11.973   5.915  13.823 -0.1546  0.1198  0.0829
30363W        W47210   2.086   0.635  14.260  0.0682 -0.0369  0.2063
30364W        W47211  10.969   4.510   0.274  0.0877 -0.2009  0.0101
30365W        W47212   0.254   2.038   1.627  0.0060 -0.1556  0.0447
30366W        W47213  15.158  10.249   3.348  0.1837  0.0447  0.0785
30367W        W47214   2.700  11.572   1.263 -0.0051  0.1200 -0.1885
30368W        W47215   1.593  11.596   9.637 -0.1667  0.3473  0.0765
30369W        W47216   7.357   9.741  14.184 -0.1210  0.2567 -0.0816
30370W        W47217   6.733   7.709   4.525 -0.0345 -0.1281 -0.0050
30371W        W47218   2.979   0.545   5.003 -0.0542 -0.1198 -0.3663
30372W        W47219  10.112  11.443  11.084  0.1455 -0.0929  0.4086
30373W        W47220   3.674  19.337  13.180 -0.1550  0.0705 -0.0834
30374W        W47221   9.113   6.700   3.849  0.0847 -0.0425  0.3853
30375W        W47222  18.726   9.395  11.151  0.0894 -0.1584 -0.1992
30376W        W47223   8.237   7.696   3.924  0.2987  0.4713 -0.0363
30377W        W47224  19.316  14.075  13.434  0.0186  0.0845  0.0098
30378W        W47225   4.614  11.371   2.272 -0.1244  0.1504 -0.1636
30379W        W47226   1.597   6.694   2.345  0.1336 -0.1043  0.2263
30380W        W47227   7.641  12.413   0.630  0.0335  0.0144  0.0916
30381W        W47228   3.449  19.511   0.547 -0.1190 -0.0389 -0.3424
30382W        W47229   6.765  11.460   2.022 -0.0690 -0.0876 -0.1175
30383W        W47230  11.176  18.192  12.129 -0.3561  0.2042 -0.1976
30384W        W47231  18.242   9.928   3.059 -0.3432 -0.1230 -0.1810
30385W        W47232  12.883  16.769   2.562  0.1388  0.1631  0.0423
30386W        W47233   8.789  13.120   0.199  0.0534  0.2717  0.2458
30387W        W47234   3.676   3.905  11.547  0.1031  0.0909  0.1420
30388W        W47235  13.789  10.060  10.261  0.0828 -0.0759 -0.2020
30389W        W47236  16.181  12.997   0.536  0.1335 -0.0552  0.1252
30390W        W47237   7.691  11.042   0.606 -0.2636 -0.2363  0.1020
30391W        W47238  10.046   7.958   1.337  0.0858 -0.0178 -0.0544
30392W        W47239  10.068   4.803   0.752  0.0843 -0.1655 -0.3392
30393W        W47240   2.507   4.556  13.772 -0.1133 -0.2842  0.0445
30394W        W47241   1.717  16.430  10.640  0.2249 -0.3020 -0.3603
30395W        W47242   5.726  13.463  11.700 -0.3093 -0.1192 -0.5424
30396W        W47243   3.381  14.278  12.728  0.0121 -0.4356  0.3782
30397W        W47244  11.639  10.505   0.940 -0.1357 -0.1830 -0.2035
30398W        W47245   0.151   0.444   4.114  0.2641 -0.2406 -0.0262
30399W        W47246   9.325   3.236   0.013 -0.1002 -0.2469  0.1481
30400W        W47247   6.252   5.873  13.800  0.1857  0.0377  0.1632
30401W        W47248   7.896  16.902   9.909  0.0722 -0.0909 -0.1847
30402W        W47249  18.522  16.223  10.706 -0.0881 -0.1418 -0.1348
30403W        W47250   3.442  15.567   9.800  0.1357  0.1603  0.0403
30404W        W47251   6.096  17.375   2.257  0.0802 -0.0129  0.2054
30405W        W47252  12.151  19.453   0.980 -0.2956 -0.3944 -0.0147
30406W        W47253   5.780  12.328  12.310  0.5240  0.1011  0.0101
30407W        W47254  10.308   1.318   2.251  0.1219  0.0283 -0.1893
30408W        W47255  14.418  11.405   0.806  0.1558  0.3840  0.0800
30409W        W47256  19.430  17.240  13.323  0.0284  0.0982 -0.0208
30410W        W47257   2.445  13.740   4.198  0.1380  0.1451  0.1682
30411W        W47258  17.622   6.815   4.423  0.3074  0.5107  0.0845
30412W        W47259   2.984   0.059  14.038  0.3390  0.0247  0.0138
30413W        W47260   0.442  11.068  12.374  0.3667  0.2519 -0.1214
30414W        W47261   5.413   6.948  12.575 -0.0012 -0.4156  0.2989
30415W        W47262   4.614   2.330   2.174  0.0846 -0.1210  0.0789
30416W        W47263   7.954  13.998   0.110  0.0858 -0.0923 -0.0133
30417W        W47264  19.361   6.012  10.893  0.1436  0.0800 -0.1459
30418W        W47265   9.933  16.630  12.927 -0.2272 -0.0539  0.2058
30419W        W47266   4.443  15.601   3.656 -0.0753 -0.0618 -0.1185
30420W        W47267   8.077  13.760  10.085 -0.3121 -0.0093  0.0306
30421W        W47268  17.398   1.888  13.612 -0.0735 -0.1333 -0.0922
30422W        W47269   3.571   9.566   1.178  0.1591  0.0433 -0.0165
30423W        W47270  16.317  18.446   1.017  0.0501 -0.1602 -0.0504
30424W        W47271   4.258  14.461   9.895  0.3294 -0.2512 -0.1513
30425W        W47272  15.763   9.580   4.226 -0.0479  0.2754 -0.3391
30426W        W47273  17.968   7.967  11.314  0.0501  0.0092 -0.1919
30427W        W47274  16.564   7.622  11.341  0.1290  0.1296  0.2139
30428W        W47275  10.051   8.211   2.593 -0.2247 -0.2834  0.1729
30429W        W47276   1.435  16.975   0.019 -0.3171  0.1655 -0.0566
30430W        W47277  12.222  14.769   2.352  0.0155 -0.2789 -0.0609
30431W        W47278  13.307  15.531  13.651 -0.0309 -0.2412 -0.0780
30432W        W47279  12.166  19.247   3.699  0.0255  0.3203  0.1571
30433W        W47280  12.162  10.239  13.170  0.1380 -0.0669 -0.0336
30434W        W47281  13.688  10.721  10.885 -0.1299 -0.1510  0.1744
30435W        W47282  14.317   9.768   4.582  0.0961  0.1553  0.1807
30436W        W47283  15.807   9.977   2.207  0.1354 -0.0691 -0.0809
30437W        W47284   0.669   1.652   3.713 -0.0522  0.0807 -0.3554
30438W        W47285   0.820  18.442  11.218  0.1043 -0.0589 -0.3292
30439W        W47286  15.707  19.235  10.034 -0.1253 -0.1361 -0.0832
30440W        W47287  11.118   3.836   9.960  0.1485  0.0643  0.0913
30441W        W47288   3.806   9.512  13.389 -0.2157 -0.0108  0.0115
30442W        W47289  15.365  13.042   3.401  0.0410 -0.1047 -0.3396
30443W        W47290   2.296   2.420   3.967 -0.0698 -0.0524 -0.0164
30444W        W47291  15.320  19.141  10.910  0.0837 -0.0578  0.2105
30445W        W47292   9.314  18.301  13.733  0.2649  0.2934  0.1004
30446W        W47293   4.900  10.698   2.609  0.1363  0.0262 -0.2415
30447W        W47294   2.857   2.114   3.926  0.0797  0.0472 -0.4427
30448W        W47295  18.645  17.056   2.543  0.2758 -0.0648  0.1578
30449W        W47296  13.658  18.661  13.307  0.1649  0.3069  0.1030
30450W        W47297  19.312  12.501   2.427  0.2646  0.0943  0.2891
30451W        W47298   1.166  16.395  12.283  0.1538 -0.1087  0.0187
30452W        W47299  16.335   8.612  13.359 -0.3397 -0.0491  0.4651
30453W        W47300   3.952  17.972  12.179  0.1253  0.1163 -0.0850
30454W        W47301  18.400   7.204  11.418 -0.0839 -0.2001 -0.1113
30455W        W47302  16.715   2.829  12.930 -0.1734 -0.1337 -0.0318
30456W        W47303   9.010   3.640  13.496  0.0448 -0.1923  0.1538
30457W        W47304  11.019  10.557   0.878 -0.0321  0.0606 -0.1922
30458W        W47305   9.323   5.079  12.620  0.5241 -0.0990 -0.0772
30459W        W47306  18.623   0.642   3.005 -0.2640 -0.0142  0.0156
30460W        W47307   2.156  16.524  14.179  0.0723 -0.1003  0.0568
30461W        W47308   8.732  14.292  10.360 -0.2529 -0.0432  0.2979
30462W        W47309   5.398   2.863   3.691 -0.0889  0.1357 -0.1418
30463W        W47310  19.344   4.017   4.510 -0.0079 -0.1179 -0.2438
30464W        W47311  14.525  14.150   0.453 -0.3051  0.3335  0.0316
30465W        W47312   5.562   9.777  11.184  0.0786  0.0697  0.1429
30466W        W47313  15.645   7.916  13.373  0.0802  0.3813 -0.1689
30467W        W47314   5.618  10.485   4.889 -0.2589 -0.2738  0.3646
30468W        W47315   4.134   0.829   3.733 -0.1624 -0.0376 -0.1240
30469W        W47316  11.456  14.364   3.958 -0.1765 -0.0861  0.2042
30470W        W47317   5.482  16.994  14.207  0.1857 -0.2148 -0.1660
30471W        W47318   4.792   9.920   3.918 -0.0581  0.1159 -0.1532
30472W        W47319   9.035   3.905   9.819 -0.1242 -0.1105 -0.1738
30473W        W47320  16.334   6.035   2.306  0.1704 -0.3808 -0.0152
30474W        W47321  17.704   3.997  10.534 -0.2805 -0.2664 -0.1597
30475W        W47322  18.277  18.393  13.365  0.2443  0.0787 -0.2980
30476W        W47323   5.120  17.930  13.826 -0.2028 -0.0921  0.1137
30477W        W47324  16.497   5.399  13.789 -0.0364  0.1863 -0.0407
30478W        W47325   2.828  11.176   2.126  0.0348  0.1385 -0.0692
30479W        W47326  10.236  11.388  11.669  0.3568  0.0383 -0.2381
30480W        W47327  15.303  11.896   4.629 -0.1081 -0.2349 -0.0391
30481W        W47328   6.775   8.088   0.169  0.0899  0.0097 -0.2218
30482W        W47329  18.400  16.322  12.743 -0.2630 -0.2388  0.1793
30483W        W47330  13.134   3.055   1.822  0.2746  0.0998 -0.1647
30484W        W47331   5.447  15.675   1.235 -0.1988 -0.0482  0.1681
30485W        W47332  14.199  10.921  13.618 -0.3141 -0.0081 -0.0228
30486W        W47333   9.534   6.026   2.220  0.1760  0.0853  0.1220
30487W        W47334   3.971  14.011  12.225 -0.4069  0.3881 -0.1023
30488W        W47335   8.975   0.492   3.144  0.1208  0.1848  0.1711
30489W        W47336  18.919  17.904   1.037  0.1202  0.0869 -0.1513
30490W        W47337   9.969   2.014  13.481  0.2918  0.0312 -0.1973
30491W        W47338   6.372  13.437   2.395 -0.5189  0.1074 -0.0924
30492W        W47339   6.315  16.008   9.787 -0.0824 -0.4855 -0.1347
30493W        W47340  15.149  18.190   4.311 -0.3057  0.0433  0.0852
30494W        W47341   4.358  10.448   1.920  0.1993 -0.0437 -0.2615
30495W        W47342   7.558   9.715  10.269 -0.2150 -0.1243 -0.2029
30496W        W47343   3.320   4.063   4.610 -0.1860  0.1774 -0.3312
30497W        W47344   5.231   9.914  12.870  0.0574 -0.2818  0.0209
30498W        W47345  12.540   4.646   1.559 -0.0223 -0.0207  0.2136
30499W        W47346   6.814   4.740   0.569  0.0604 -0.1742 -0.0761
30500W        W47347  10.150   1.453  12.965 -0.1347 -0.0673 -0.0692
30501W        W47348  12.422  11.272  12.963 -0.0373  0.1431  0.1660
30502W        W47349  11.536   7.191  10.072  0.2172  0.0702  0.3058
30503W        W47350  17.806  11.795   2.296 -0.2743  0.0400  0.2317
30504W        W47351   8.402  14.569   3.095  0.2488  0.1958 -0.1276
30505W        W47352  17.971  19.202   4.728  0.1272 -0.2807  0.1509
30506W        W47353  12.305   3.652  13.733 -0.3887  0.0712  0.0035
30507W        W47354  11.987   6.117   0.298  0.0213  0.1985 -0.1730
30508W        W47355   6.567   3.275   0.692 -0.1961  0.2707  0.2520
30509W        W47356   0.060  16.658  10.719 -0.3546 -0.2495 -0.0143
30510W        W47357  16.593  12.373  11.380  0.1908  0.0077 -0.0144
30511W        W47358  16.977   6.117   2.567 -0.0286 -0.3320  0.0928
30512W        W47359   7.305   2.423   2.834 -0.0912  0.2088 -0.0148
30513W        W47360   5.226  14.799   3.508  0.0137  0.1757 -0.0781
30514W        W47361   3.717  13.661   1.892 -0.1340 -0.0122 -0.3615
30515W        W47362  13.019   0.660  10.771  0.1523 -0.1427 -0.2709
30516W        W47363  11.098   4.595  10.274  0.0908  0.4420 -0.0800
30517W        W47364  19.468  10.410   0.208 -0.0084 -0.1131 -0.1281
30518W        W47365  11.593  13.577  12.577 -0.2175 -0.0556 -0.1421
30519W        W47366   3.316  14.262   3.619 -0.4000 -0.0010 -0.1850
30520W        W47367   3.898   0.652  14.134 -0.0776 -0.2827 -0.1042
30521W        W47368  13.121   8.395   1.025  0.1039 -0.0098 -0.2057
30522W        W47369  14.900  17.309   2.094 -0.1093  0.0937  0.1579
30523W        W47370   1.590  13.292   3.810  0.0085  0.1282 -0.0273
30524W        W47371   2.877  17.870  10.741  0.1368 -0.0470 -0.0303
30525W        W47372  11.226  11.335  10.950 -0.0356  0.3697 -0.2547
30526W        W47373   4.836  16.279  10.040  0.0750  0.0393  0.1087
30527W        W47374  15.400  19.103  14.188  0.0126 -0.0946  0.1841
30528W        W47375   4.352   8.165   2.211  0.0231 -0.1258  0.4057
30529W        W47376   2.750  14.596   2.763 -0.2554  0.0649  0.3701
30530W        W47377   7.615  10.463  12.606  0.0299  0.0315  0.1132
30531W        W47378  16.372   9.369  12.180  0.0593  0.1470  0.2235
30532W        W47379  14.512   8.427  14.012 -0.2391 -0.0036  0.3363
30533W        W47380   3.453   0.756   4.836 -0.0573 -0.3226 -0.0171
30534W        W47381  14.647  12.771  10.830 -0.0504 -0.0980  0.1207
30535W        W47382   5.886   6.104   3.055  0.3530 -0.2641  0.0895
30536W        W47383  11.539  13.848   3.664  0.1239 -0.0237  0.0001
30537W        W47384  16.886  12.662  11.104  0.1798  0.1713  0.4897
30538W        W47385   5.063  11.079  10.285 -0.0633 -0.0846 -0.0202
30539W        W47386  13.175   8.001   0.204 -0.2585  0.0090  0.0381
30540W        W47387  12.495   3.215  13.621  0.1798  0.2333 -0.1513
30541W        W47388  15.539   1.795   2.612 -0.3124 -0.2039 -0.3063
30542W        W47389  19.505   0.443   1.889 -0.1921  0.0677  0.1631
30543W        W47390   5.293   2.667   0.442 -0.2379  0.2611  0.2402
30544W        W47391  10.186  18.227   2.331 -0.2541  0.0779 -0.0185
30545W        W47392  11.219   1.972   0.913  0.5029 -0.2517  0.0245
30546W        W47393  19.157  18.729  12.542 -0.0304  0.4323  0.0898
30547W        W47394  17.083   1.879  12.678 -0.0398 -0.1318 -0.1850
30548W        W47395   5.764   4.585   1.634  0.0100 -0.0378  0.2338
30549W        W47396   6.100  17.529  13.010  0.0176  0.0973 -0.4078
30550W        W47397   7.985   7.554   0.084  0.0718 -0.0133 -0.2888
30551W        W47398  16.522  15.605  11.080 -0.2652 -0.1570  0.0295
30552W        W47399   1.059   7.196  13.522  0.2144 -0.2119 -0.0460
30553W        W47400   8.910  15.884  12.273  0.1801 -0.1792 -0.0368
30554W        W47401   3.408   3.022   1.884 -0.5125  0.1932  0.1821
30555W        W47402   4.549  10.653  13.159  0.2336  0.0528  0.0458
30556W        W47403  10.589   8.050  10.781 -0.1660 -0.1123 -0.1680
30557W        W47404  10.149  11.215   3.362 -0.0706  0.0960  0.3188
30558W        W47405   2.378   9.738  11.932 -0.0711  0.0441  0.1770
30559W        W47406   6.462  11.564   2.416  0.3279  0.3677  0.3343
30560W        W47407   4.179   8.487   3.030  0.2948 -0.0400 -0.1301
30561W        W47408  10.909  19.380   4.832  0.0661 -0.0685  0.0558
30562W        W47409   1.890  13.812   2.322  0.1016  0.1717  0.2848
30563W        W47410  19.747   7.259   4.344  0.0521 -0.0012 -0.2549
30564W        W47411   5.917   8.622   0.470 -0.3376 -0.2313  0.2222
30565W        W47412  19.730  10.488   1.465  0.2682  0.2321 -0.1841
30566W        W47413  12.383  18.263   1.045 -0.0966 -0.2035  0.1859
30567W        W47414   6.591  15.327  10.878  0.4455 -0.0252  0.0700
30568W        W47415   3.790   7.317   0.083  0.0141 -0.2409 -0.4181
30569W        W47416   4.565  13.103   2.846  0.2726  0.1951 -0.0621
30570W        W47417  10.719   9.466   4.966 -0.0854 -0.4402 -0.1987
30571W        W47418  12.543  16.655   5.068  0.1570  0.5290  0.1320
30572W        W47419  14.517  11.102   3.248 -0.0359  0.0212  0.1738
30573W        W47420   4.872   8.951   2.824 -0.0717  0.0196  0.1592
30574W        W47421   7.393   4.527  13.373 -0.1781 -0.0831  0.0559
30575W        W47422  16.184  14.411  10.579  0.1591  0.3578  0.0277
30576W        W47423   0.198   6.362   3.279  0.0888 -0.1452 -0.0343
30577W        W47424  16.934  19.486   9.884 -0.0109  0.0733  0.0104
30578W        W47425  19.825   3.530   3.744  0.0833  0.0942  0.1178
30579W        W47426  16.752   3.687  11.846  0.0404  0.2162 -0.0380
30580W        W47427  13.424  10.236  11.570  0.3028 -0.0084 -0.2249
30581W        W47428  16.099   4.429   1.064 -0.0076 -0.1202 -0.5346
30582W        W47429   3.343   2.364  10.163  0.1314 -0.0555 -0.1219
30583W        W47430  18.211  11.232  11.197  0.0895 -0.1043 -0.0641
30584W        W47431   8.727  18.608   0.568  0.2182  0.0790 -0.0987
30585W        W47432  19.644   6.090   2.598  0.0996  0.0660  0.3061
30586W        W47433  16.146  14.113   2.702  0.0447 -0.0588 -0.1684
30587W        W47434  14.780  16.483   5.509  0.1201  0.2421  0.3298
30588W        W47435   3.468   2.001   4.407 -0.3241  0.1115  0.2934
30589W        W47436  19.720   6.525   0.573  0.2493  0.0884 -0.1332
30590W        W47437   8.384  16.352   2.804  0.0797  0.0269 -0.0304
30591W        W47438  14.557  11.049   0.435 -0.1150 -0.1170  0.0964
30592W        W47439  18.337  19.286  13.325 -0.1034  0.2498  0.4144
30593W        W47440   0.544   0.389  13.177 -0.2398  0.0320  0.1766
30594W        W47441   8.314   9.793  11.345  0.1490  0.2314 -0.0284
30595W        W47442   1.584  14.166   1.474  0.3400  0.1852  0.0484
30596W        W47443  19.835  18.200   3.633  0.1390 -0.0643  0.1557
30597W        W47444  15.878  17.227   2.360  0.4629 -0.0515 -0.0709
30598W        W47445  10.803   6.350   1.360  0.3889 -0.0443 -0.0389
30599W        W47446  16.088  14.350   4.395 -0.2947 -0.2579  0.0876
30600W        W47447  13.707   0.432  13.588 -0.0935 -0.3696  0.1792
30601W        W47448  16.107  15.158  13.168 -0.0047 -0.0570  0.1718
30602W        W47449  13.318   0.540   4.759 -0.0463  0.0631  0.0287
30603W        W47450   6.035   3.414  12.489 -0.0939  0.2029 -0.2434
30604W        W47451  13.598  13.553  13.394  0.0623 -0.3280 -0.1197
30605W        W47452  15.085   9.110   0.263 -0.3201 -0.1946  0.3301
30606W        W47453  14.543  19.105  12.455  0.0759 -0.2149  0.0780
30607W        W47454  13.170  12.675   2.715 -0.1421  0.1071  0.1698
30608W        W47455   2.882  15.636  12.064 -0.3433  0.1011 -0.4859
30609W        W47456  11.662   2.501  11.272  0.4279 -0.1331  0.0900
30610W        W47457   0.847  10.765   1.207  0.0638 -0.2860  0.1973
30611W        W47458   4.263   6.568   1.430 -0.0017  0.1221 -0.2423
30612W        W47459  18.607   6.980   3.051  0.1975  0.0498 -0.1373
30613W        W47460   2.732  11.483   9.751  0.1067 -0.2645 -0.1642
30614W        W47461   5.257   9.793  12.321 -0.2333 -0.0914  0.0835
30615W        W47462  11.278   4.149  12.523  0.1277 -0.2033 -0.2159
30616W        W47463   6.205  10.799   0.992 -0.1230  0.1386  0.0695
30617W        W47464  17.708   3.338  11.316  0.0690 -0.0137 -0.0809
30618W        W47465   7.087   7.363   0.528 -0.0011  0.1133 -0.0645
30619W        W47466   6.006  12.155   0.839 -0.0867  0.1030  0.0001
30620W        W47467  12.844   3.900   1.480  0.1834  0.1958  0.0449
30621W        W47468  12.058  16.646   1.006 -0.1921 -0.1018 -0.4484
30622W        W47469  11.083   5.793   4.223  0.0990 -0.2200 -0.2383
30623W        W47470  10.797  18.860   1.327 -0.3653 -0.1909 -0.3725
30624W        W47471  16.819   9.234   3.087  0.2157  0.2151 -0.1395
30625W        W47472   4.008  15.263   2.127 -0.0246  0.1667  0.0665
30626W        W47473   6.235  18.811   3.867  0.1084  0.1057 -0.1757
30627W        W47474  19.829   3.309   4.571  0.0035  0.3944 -0.2550
30628W        W47475  13.969   6.740   2.755  0.2644  0.2116 -0.0327
30629W        W47476   6.974   9.954   0.604 -0.3218 -0.1595  0.2840
30630W        W47477   7.855   2.745  12.716  0.4211 -0.2632  0.2169
30631W        W47478   5.131   1.820  11.963  0.0789 -0.2533  0.4413
30632W        W47479  10.551   7.032  11.190 -0.0413 -0.1052  0.3159
30633W        W47480  15.765  15.810   4.382 -0.1781  0.0212 -0.3651
30634W        W47481  16.944   4.925   3.010 -0.1342  0.2706 -0.1957
30635W        W47482  10.730  14.222   2.445  0.0187 -0.1203  0.1640
30636W        W47483   4.815  17.163   4.376  0.3181  0.0890 -0.1969
30637W        W47484   4.969  18.012  10.623  0.0074 -0.0985 -0.0529
30638W        W47485  11.143  17.513  12.702 -0.2149 -0.0517 -0.1686
30639W        W47486   9.826   0.129  11.302  0.1113 -0.1710  0.1773
30640W        W47487   8.988  11.123   3.810 -0.2340 -0.1381 -0.1263
30641W        W47488  14.336  18.858   0.286 -0.2683 -0.0782  0.0437
30642W        W47489  10.993  17.520  11.375 -0.1193 -0.0053 -0.2007
30643W        W47490  14.659   6.416   0.243 -0.2067  0.0530 -0.0545
30644W        W47491  12.229   6.820  12.741  0.1658 -0.0424  0.0780
30645W        W47492  14.095  18.958  12.402 -0.1229 -0.2757  0.0414
30646W        W47493   5.156   5.588   1.010 -0.0704 -0.3410 -0.0107
30647W        W47494  17.492  17.006   0.775  0.0664  0.2211  0.0350
30648W        W47495  17.104   2.986  12.499  0.1506  0.1227 -0.0293
30649W        W47496   5.683  14.599  12.885  0.2275  0.1915  0.0443
30650W        W47497   5.181   5.461  13.068  0.2816 -0.1256  0.0438
30651W        W47498   7.963  19.330   1.184  0.2563 -0.5506  0.0507
30652W        W47499   5.941   7.563   2.133  0.0603  0.1553  0.0383
30653W        W47500   3.287  12.905   1.942  0.0256 -0.0721  0.2046
30654W        W47501   0.740   3.491   5.106  0.2128  0.2196 -0.5488
30655W        W47502   7.566  15.854  14.089  0.1112  0.4349 -0.1472
30656W        W47503   1.434  14.761  14.251  0.3144 -0.0373  0.0296
30657W        W47504  12.102  15.338  12.542  0.2035  0.1236  0.4520
30658W        W47505  10.783  12.815  14.122 -0.1635  0.0403 -0.0262
30659W        W47506   6.740   8.579   1.813 -0.0152 -0.1385 -0.1705
30660W        W47507  16.292  14.783  12.824  0.0315 -0.1125 -0.1958
30661W        W47508   0.645   1.965   1.141  0.0398 -0.1571  0.2489
30662W        W47509   4.829  15.614   2.027  0.1702 -0.3037 -0.0587
30663W        W47510  17.778   2.954   0.423  0.0152  0.1696  0.0949
30664W        W47511  14.160  14.630  13.831 -0.3086 -0.0534  0.2105
30665W        W47512  13.546   5.723  11.446  0.1256  0.3727 -0.1799
30666W        W47513   5.250  13.671   0.102  0.0827 -0.0166 -0.1669
30667W        W47514  15.198  12.047   9.630 -0.1995  0.0700 -0.0354
30668W        W47515  11.016  14.165  13.402  0.0856  0.4273  0.2373
30669W        W47516   5.094  10.759  10.694  0.0759 -0.3387  0.2313
30670W        W47517   0.745   1.105  12.614 -0.1649  0.0173  0.0090
30671W        W47518  10.538   2.302   3.384 -0.2119  0.0819 -0.1605
30672W        W47519  14.602   9.670   1.457  0.0266 -0.1505 -0.2010
30673W        W47520  17.572  11.717  13.332 -0.1749 -0.0626  0.1901
30674W        W47521   8.270   5.307  13.482 -0.0744  0.1037  0.2339
30675W        W47522  13.226  17.370   1.598 -0.0525  0.0778 -0.1493
30676W        W47523  16.523  14.182   2.246 -0.1208 -0.1403 -0.1132
30677W        W47524  19.470  11.045   3.355  0.1814  0.1645  0.3627
30678W        W47525   2.410  12.052  14.028  0.2057 -0.2692 -0.3236
30679W        W47526   7.616   0.014  11.766  0.0785  0.1870 -0.1696
30680W        W47527   0.500  11.701  12.953  0.0480  0.4766  0.0326
30681W        W47528  10.610  17.654  13.638  0.0709  0.0743  0.1602
30682W        W47529  17.267   5.582  11.215  0.0929  0.1825 -0.1497
30683W        W47530  16.843  19.155   2.172 -0.3544  0.2266 -0.0249
30684W        W47531   2.301  17.343  11.375 -0.1354  0.3640 -0.1560
30685W        W47532  15.887   2.702   4.009 -0.0789  0.0761  0.2592
30686W        W47533  17.753  16.437  13.949  0.1341  0.2911 -0.0385
30687W        W47534  18.281  12.300   4.386  0.0566 -0.0233  0.0707
30688W        W47535  11.365   6.974  14.106 -0.0627 -0.0317  0.0428
30689W        W47536   9.732   2.402  13.299  0.1883  0.0188 -0.0946
30690W        W47537   0.021  15.878   0.204 -0.2066  0.0982 -0.2880
30691W        W47538  19.518  11.119   3.905  0.0117 -0.1709  0.2727
30692W        W47539   0.411  11.674   4.952  0.0093 -0.0224  0.1233
30693W        W47540  13.816  11.243   3.107  0.2205 -0.4209 -0.0112
30694W        W47541  16.963  10.524  12.930  0.0394 -0.2001  0.4964
30695W        W47542   7.308  19.037   0.581  0.1119 -0.3544 -0.2738
30696W        W47543   9.565   9.612   1.659 -0.4057  0.0669 -0.0547
30697W        W47544  13.019  13.928  12.241 -0.1466  0.1145  0.0607
30698W        W47545  14.888   8.664   1.527  0.1253  0.0432 -0.0504
30699W        W47546  16.220  19.801   4.069  0.1133 -0.0124 -0.1634
30700W        W47547   5.236  11.291  10.698 -0.0183  0.0295  0.0569
30701W        W47548  18.396   3.259   1.140 -0.0914 -0.2987  0.0773
30702W        W47549  13.065  15.198   2.714 -0.1819 -0.1268  0.3283
30703W        W47550  13.783  16.470   3.788  0.0644  0.0342  0.0479
30704W        W47551   4.146  12.248  13.731  0.2403 -0.0815  0.1420
30705W        W47552  10.479  13.831   2.159  0.0772 -0.3519 -0.2531
30706W        W47553   4.104   6.056   3.396  0.3271  0.0920 -0.1346
30707W        W47554  12.160   3.224   9.623 -0.0945 -0.0943  0.0880
30708W        W47555  13.459   3.593   3.651  0.0299  0.0848  0.0715
30709W        W47556  18.456   0.040  11.292  0.2109  0.1560  0.2907
30710W        W47557  11.831  15.855  10.489  0.3426 -0.0145  0.2601
30711W        W47558  19.100  19.022   4.814  0.0318  0.0145 -0.2500
30712W        W47559   9.696   3.376  10.865 -0.2939  0.1807 -0.2183
30713W        W47560  10.704  16.294  10.318 -0.2347 -0.0918  0.0529
30714W        W47561   7.072  14.093  11.251  0.1859 -0.2315  0.1077
30715W        W47562   6.330   7.255   2.349  0.2183 -0.1467 -0.3995
30716W        W47563   5.993  18.689   3.468  0.1514  0.0667  0.0135
30717W        W47564  12.872   1.037  11.423  0.0067  0.1311 -0.0100
30718W        W47565  18.727  13.085   1.550 -0.1320 -0.1369  0.1620
30719W        W47566   4.171  17.498  10.869  0.1140  0.3449 -0.2050
30720W        W47567  11.926  12.097  12.399  0.1915 -0.2374 -0.0791
30721W        W47568  16.851   8.849  10.395 -0.1509  0.4660 -0.1372
30722W        W47569  10.894  12.598  13.061  0.0165 -0.0137 -0.1625
30723W        W47570  14.465   2.371   0.716 -0.0845  0.0069  0.0110
30724W        W47571  17.780  15.310   4.320  0.0011  0.2878 -0.0181
30725W        W47572  18.376  13.016  13.784  0.1669 -0.0686 -0.1338
30726W        W47573   8.101   5.588  10.228 -0.0505 -0.2060 -0.1123
30727W        W47574  12.789  11.915   3.331 -0.2258 -0.0744 -0.0817
30728W        W47575  15.546  19.591   0.486 -0.1595 -0.1257  0.3059
30729W        W47576   7.839   5.663   4.227 -0.3828  0.1355 -0.1323
30730W        W47577   0.486   3.372   1.383 -0.0182 -0.2769 -0.0791
30731W        W47578  16.063  16.668   3.428  0.1917  0.0110 -0.0778
30732W        W47579   3.149  13.956  10.152 -0.0167 -0.1635  0.3618
30733W        W47580  18.355   4.470   9.901  0.0136  0.2121  0.2521
30734W        W47581  17.067   3.088   4.673 -0.3019 -0.0332 -0.0063
30735W        W47582  18.698   0.430  13.369 -0.1785  0.0570  0.0985
30736W        W47583   0.213  17.823  10.824 -0.0270  0.1101  0.2038
30737W        W47584   7.166   7.584  13.588 -0.1909  0.1935 -0.3094
30738W        W47585  12.581  17.562   3.232  0.0644 -0.1128  0.1905
30739W        W47586   7.873   8.565   4.433  0.1729  0.0164  0.4793
30740W        W47587  13.924   2.225   3.103 -0.0845  0.1224  0.0521
30741W        W47588   9.923  10.498   1.613 -0.3358 -0.1505 -0.3856
30742W        W47589  18.884   8.485  13.018  0.1563  0.0947 -0.2143
30743W        W47590  14.484  16.184  14.129  0.3047  0.0361  0.0082
30744W        W47591   8.582   6.300   3.245 -0.1153  0.3131  0.6123
30745W        W47592   6.578   5.515   2.963 -0.1437  0.1476  0.2497
30746W        W47593  14.102  13.702  12.119 -0.0922 -0.2853 -0.3275
30747W        W47594   5.787  16.059  10.975 -0.1469 -0.1887 -0.1579
30748W        W47595   1.269   4.501   3.384 -0.5991 -0.1082  0.0734
30749W        W47596  12.974   4.864   1.597 -0.1408 -0.1611  0.2514
30750W        W47597   3.625  10.065   1.252 -0.0421  0.3143  0.2926
30751W        W47598   3.412   8.925   4.290  0.2651  0.1146 -0.0565
30752W        W47599   6.780  15.396  14.248 -0.1038  0.2252  0.2009
30753W        W47600  19.104   7.714   2.730  0.2863 -0.5581  0.2412
30754W        W47601   1.600   5.144   8.721  0.2530  0.3379 -0.2529
30755W        W47602  12.440   1.421   1.293  0.1802 -0.1617  0.0281
30756W        W47603   2.706  11.142   4.238  0.4307  0.2519 -0.1793
30757W        W47604   5.052   1.043   4.042  0.1132 -0.0701  0.2630
30758W        W47605  17.737  14.212   2.140 -0.2883  0.0800  0.1216
30759W        W47606   8.318  19.390  12.130 -0.0045 -0.3045 -0.2884
30760W        W47607  13.543  10.668  12.769  0.0433 -0.1595  0.1534
30761W        W47608  18.601  10.787   1.685  0.1077  0.3873 -0.2027
30762W        W47609  19.107   8.521  12.181 -0.0268  0.3912  0.0839
30763W        W47610   9.037  17.922  13.420 -0.2986 -0.1809 -0.2843
30764W        W47611  16.809  18.723  10.500 -0.2992 -0.0386 -0.2469
30765W        W47612   4.144   8.342   3.866  0.0134 -0.5184  0.1167
30766W        W47613   5.671   2.719  11.557  0.3110  0.1103 -0.0978
30767W        W47614  15.240   0.594   1.576 -0.0768  0.1005 -0.0888
30768W        W47615  13.815  11.772  10.100  0.1913 -0.2515 -0.2083
30769W        W47616  10.195   5.525  12.172  0.4375 -0.0412  0.0821
30770W        W47617   1.526  14.832   8.999 -0.0252 -0.2444 -0.2529
30771W        W47618   7.634   6.310   3.447 -0.1778  0.2115  0.0264
30772W        W47619  16.687   8.077   4.591  0.1471  0.1801  0.3034
30773W        W47620  15.302   9.791   2.072  0.3008  0.1463  0.0881
30774W        W47621   6.274   9.431  11.887  0.2657  0.1359  0.1667
30775W        W47622   9.789  19.137  12.782 -0.1558 -0.1497  0.1186
30776W        W47623   2.555  17.029   3.745 -0.1331 -0.0730  0.0128
30777W        W47624  18.611  11.107   2.115 -0.0589 -0.1424  0.0078
30778W        W47625  13.464   6.006   4.820 -0.0032 -0.1381 -0.1132
30779W        W47626  14.445   3.665   4.980 -0.1210 -0.0829  0.4047
30780W        W47627   7.180   5.124   1.802  0.1727  0.2186 -0.0244
30781W        W47628   1.990   4.067  12.741  0.1052  0.2975  0.0421
30782W        W47629   6.200  15.571  11.680 -0.0543 -0.1342  0.2484
30783W        W47630  17.910   9.904   1.481  0.0984  0.1241  0.0251
30784W        W47631  13.842   0.674   2.833 -0.1247  0.0504  0.0470
30785W        W47632  11.721   8.206  13.684  0.1481 -0.1983  0.1963
30786W        W47633  14.437  19.561  10.672  0.2200  0.2676  0.2184
30787W        W47634  11.733  14.286  11.788 -0.1512  0.1045 -0.0319
30788W        W47635  17.293  12.273  13.610  0.4513  0.0539 -0.0241
30789W        W47636   0.618  14.444  10.603  0.3349 -0.1442 -0.2824
30790W        W47637   1.900  17.526  12.357  0.3421  0.1044 -0.0591
30791W        W47638   5.735   2.778   0.624 -0.3090  0.0863 -0.1541
30792W        W47639  10.325   8.905   4.184 -0.0658  0.2139  0.0031
30793W        W47640   6.871  18.838   0.575  0.1413  0.2901 -0.2442
30794W        W47641   5.849  18.844  11.287 -0.0266 -0.5187 -0.2622
30795W        W47642   4.126  11.350   4.060  0.4455 -0.0338 -0.0329
30796W        W47643  13.721  11.454   1.740  0.2022  0.0556  0.0766
30797W        W47644  17.191  11.395   3.603 -0.2498 -0.3601  0.0413
30798W        W47645   6.326   2.672  13.674 -0.1041 -0.1712  0.0333
30799W        W47646  13.642  13.902   1.878  0.1992  0.0119  0.2253
30800W        W47647   1.540   1.229   1.699 -0.0751  0.1009 -0.1574
30801W        W47648  11.967   1.754   1.333 -0.4164 -0.0312 -0.2925
30802W        W47649   3.921  14.280  12.643 -0.2292 -0.1062 -0.1780
30803W        W47650  17.679  19.377  11.057  0.0920 -0.1695 -0.0482
30804W        W47651  17.101   4.393  12.340  0.1102 -0.0692  0.2983
30805W        W47652  17.559  11.277   2.933 -0.0512 -0.2480  0.0641
30806W        W47653  18.384   7.531   4.093  0.1976  0.0953  0.2055
30807W        W47654   5.229   7.147  14.235  0.0533  0.1452  0.0656
30808W        W47655  15.942  17.294   5.204  0.1512 -0.0224 -0.0472
30809W        W47656   7.183   5.832  10.619 -0.0973  0.0502  0.1738
30810W        W47657  15.576  14.954   2.683  0.2650 -0.2657  0.1685
30811W        W47658  19.738   6.449  12.006 -0.0050 -0.0198  0.1958
30812W        W47659  13.252  10.821  11.682 -0.0315  0.1421 -0.2411
30813W        W47660  12.727   3.858  10.695 -0.1375 -0.2107 -0.0643
30814W        W47661  14.477  18.217   0.863  0.0620  0.4229  0.3537
30815W        W47662   0.216  19.109  12.522  0.0336 -0.0316  0.0740
30816W        W47663  14.734   7.335   2.188 -0.0564  0.2677  0.1980
30817W        W47664  12.959  18.388   4.454  0.3756 -0.1815 -0.2560
30818W        W47665   5.054   5.467  10.907 -0.3055  0.1498  0.1774
30819W        W47666  16.709   1.284  10.669 -0.0920  0.1672  0.0373
30820W        W47667  17.059   3.759  13.891 -0.0833  0.0689 -0.0746
30821W        W47668  17.985   2.957   1.277  0.3056  0.0036 -0.2917
30822W        W47669   1.722   3.964  13.756  0.0501  0.0947 -0.0792
30823W        W47670  13.497  19.650  12.228  0.0444  0.2148 -0.2158
30824W        W47671   1.590  18.000  11.829  0.0233 -0.0756  0.1459
30825W        W47672  17.355   3.854   5.774  0.0460 -0.3480  0.1773
30826W        W47673  18.529   9.430  10.277 -0.1724 -0.1567 -0.0949
30827W        W47674  15.201  13.956  11.007 -0.2053  0.1043  0.2625
30828W        W47675   0.663   7.184   3.551 -0.1782  0.0293  0.3708
30829W        W47676   5.266  11.529  11.147  0.0056 -0.2255 -0.2400
30830W        W47677  15.113   7.365  13.448 -0.0488 -0.3236  0.3919
30831W        W47678  19.659  11.171   0.910 -0.1990  0.0542 -0.1546
30832W        W47679  13.284  11.455   2.688  0.5439  0.0070 -0.1024
30833W        W47680   0.914  13.956   1.056  0.2447  0.1618  0.0147
30834W        W47681   0.114   6.173   9.647 -0.1838 -0.0213 -0.3828
30835W        W47682  12.885   7.508  13.305  0.0603 -0.0648 -0.2028
30836W        W47683  18.538  18.656  12.343  0.0130  0.2442  0.2328
30837W        W47684  15.808  15.078   1.387 -0.1280  0.0454 -0.2559
30838W        W47685   3.826   6.420  12.805 -0.1277 -0.0127  0.0409
30839W        W47686   3.248   7.703  12.955 -0.1946  0.0040 -0.1502
30840W        W47687   8.298   9.272  12.638 -0.3925 -0.1092 -0.1052
30841W        W47688   9.498   2.768   0.699 -0.0790  0.0615 -0.1665
30842W        W47689  12.765  16.149   1.328  0.1412  0.1527 -0.5242
30843W        W47690   0.580  11.621   3.354 -0.0762 -0.0771  0.3377
30844W        W47691  15.205  15.590   2.823  0.3712 -0.0008  0.0861
30845W        W47692   2.549   1.324   9.869  0.5559  0.0867 -0.2489
30846W        W47693   4.905   2.143  12.466  0.0410  0.1321 -0.0229
30847W        W47694  14.376  18.087   3.152  0.2344  0.0356  0.0481
30848W        W47695   1.308  19.334  11.411 -0.0644 -0.0244 -0.1320
30849W        W47696  16.450  13.722  10.136  0.2732 -0.0928  0.0828
30850W        W47697   6.473   5.334   0.877  0.2321  0.0065 -0.0406
30851W        W47698  10.120   3.064   2.640  0.2160  0.0536  0.0246
30852W        W47699  12.175  15.505   1.189 -0.2268 -0.2980  0.2202
30853W        W47700  18.328  12.301   3.131 -0.3218  0.0214 -0.1357
30854W        W47701   2.713   5.822   2.878  0.3800 -0.1140  0.1460
30855W        W47702  19.434   4.022  10.828 -0.3543 -0.0692  0.1741
30856W        W47703  15.210   5.909  13.972 -0.0556 -0.2530  0.0051
30857W        W47704  18.160   4.783  11.704  0.0441 -0.1722 -0.0514
30858W        W47705   8.689   5.273  11.433  0.4145 -0.4036 -0.2875
30859W        W47706   0.824   8.753   3.443 -0.1226 -0.1647  0.0640
30860W        W47707   6.541  16.471  11.477  0.0210  0.1067 -0.1457
30861W        W47708  12.912   0.916   4.461  0.1114  0.0650 -0.0331
30862W        W47709  18.120  19.247  12.880 -0.1510 -0.0186 -0.2193
30863W        W47710   9.721  12.992  12.552  0.0764 -0.1894  0.4040
30864W        W47711   0.931  13.871   3.305 -0.5555  0.1936  0.2122
30865W        W47712   1.189   6.111   1.735 -0.1937  0.0271 -0.1778
30866W        W47713  10.899   0.479   1.742 -0.0083 -0.0694  0.0979
30867W        W47714  11.200  16.359   3.327 -0.3787 -0.2444 -0.0921
30868W        W47715  14.538   2.321  11.316  0.1345 -0.0031  0.0010
30869W        W47716  15.793   2.020   3.616 -0.2442  0.4306 -0.2090
30870W        W47717   3.963   4.967   1.550 -0.2719 -0.0811  0.1041
30871W        W47718  18.926  13.931   2.504 -0.0851  0.0413 -0.3542
30872W        W47719  10.293   4.366   1.877 -0.0382 -0.1061 -0.0803
30873W        W47720  13.725  12.809  13.940 -0.1690 -0.3827 -0.1363
30874W        W47721   4.573   5.175   0.863 -0.2147  0.2427  0.2968
30875W        W47722  15.308  14.395  10.749  0.0734 -0.1589  0.1769
30876W        W47723  13.370  14.802   2.872 -0.1348 -0.3084  0.2783
30877W        W47724   4.261   8.482   0.992 -0.0665 -0.0914 -0.1657
30878W        W47725   5.646   7.901  11.918  0.1718 -0.1193 -0.1463
30879W        W47726   7.904   2.014   3.167  0.0817 -0.1373  0.2908
30880W        W47727  10.067  19.147   2.010 -0.2026  0.2510 -0.2495
30881W        W47728   7.061  18.919   4.116  0.3033 -0.1476 -0.0296
30882W        W47729   9.071   2.441  12.722 -0.2458 -0.0432 -0.2305
30883W        W47730   6.891  16.752   1.102  0.0834 -0.1838 -0.1497
30884W        W47731   2.050   9.940   0.547  0.0028  0.1690 -0.0685
30885W        W47732   5.873   6.502   0.270  0.3244  0.1948 -0.1255
30886W        W47733   5.437  16.072  13.964 -0.3157 -0.2090 -0.1596
30887W        W47734   0.589  13.210  12.150  0.1431  0.4475 -0.1459
30888W        W47735  18.509   6.843   1.775  0.1727 -0.3186 -0.1202
30889W        W47736   5.704  17.769   3.317 -0.2140  0.1459 -0.2534
30890W        W47737  13.969   4.348   4.500  0.0209 -0.0011  0.2056
30891W        W47738  16.037  12.012   1.740 -0.2022  0.3613  0.1351
30892W        W47739  12.992  13.972  11.694  0.0970  0.1593 -0.0200
30893W        W47740  11.035  15.090   2.035 -0.1637 -0.0995 -0.1614
30894W        W47741  17.843   8.733   3.238 -0.1718 -0.1857 -0.1224
30895W        W47742   1.255   3.719   3.343  0.1061 -0.0085  0.0766
30896W        W47743  13.847   9.803  13.684 -0.0466  0.4851 -0.4187
30897W        W47744  13.126   5.931  12.068 -0.0196 -0.0527 -0.2883
30898W        W47745   5.511  12.748  13.387  0.0097  0.1809 -0.2274
30899W        W47746   9.113   1.558   2.370  0.1069  0.0550 -0.1059
30900W        W47747   7.491   1.941  12.554 -0.1428 -0.0886  0.0451
30901W        W47748   7.113   6.274   0.813  0.0369  0.0397 -0.0138
30902W        W47749   9.192  19.750  13.274  0.1717  0.2559  0.0420
30903W        W47750  17.258   2.293  12.890 -0.1939  0.6613 -0.1143
30904W        W47751   1.942   6.865   1.207  0.0315  0.3382 -0.0179
30905W        W47752   4.434   8.323  12.796  0.0456 -0.0320 -0.2051
30906W        W47753   7.807  15.977   1.422 -0.1388 -0.0056  0.0021
30907W        W47754   4.415  11.213   9.779 -0.0160  0.4003 -0.0555
30908W        W47755   2.325   6.686  12.542  0.0054 -0.0672  0.2759
30909W        W47756  19.565  19.511   0.378 -0.2076 -0.1249 -0.1119
30910W        W47757  11.225   7.693   9.494 -0.0247 -0.1590  0.2480
30911W        W47758   3.228   2.153  11.690 -0.2305  0.0027 -0.0187
30912W        W47759   2.607  17.636  11.050  0.3536 -0.0533  0.0607
30913W        W47760  14.666  10.139   1.307 -0.2410  0.1460 -0.0220
30914W        W47761  18.998  16.355   4.137 -0.0007  0.2668 -0.0924
30915W        W47762   2.922  14.014   1.382 -0.1807  0.1520  0.0108
30916W        W47763  10.828  15.649  11.729  0.1072  0.2269  0.0192
30917W        W47764  19.066   7.009   3.260  0.2527 -0.3300  0.1637
30918W        W47765   6.560   0.204   0.174  0.0569  0.1340  0.0145
30919W        W47766   8.753   5.129  12.474  0.0987  0.2118  0.2298
30920W        W47767   0.490   7.325  13.298  0.0455 -0.2078 -0.0633
30921W        W47768   8.300   1.387   4.246  0.0986 -0.1406 -0.2073
30922W        W47769  12.827   2.104   1.789 -0.2757 -0.1613  0.1591
30923W        W47770  13.953  10.071   2.601  0.0439  0.1379 -0.0211
30924W        W47771   8.701  18.096   9.898  0.1777 -0.1485  0.0395
30925W        W47772  18.848  16.291  12.435  0.2211 -0.1843 -0.0270
30926W        W47773   7.766  10.736   2.355  0.0829 -0.1567  0.0388
30927W        W47774   6.084  19.404  13.256  0.3023  0.1594  0.1405
30928W        W47775  13.458   1.977  13.421 -0.0719 -0.0178 -0.2397
30929W        W47776  13.607   5.302  12.584  0.0149 -0.0201  0.0001
30930W        W47777  12.956   7.829  13.714  0.1023 -0.2692 -0.0012
30931W        W47778  13.262   4.875  12.469 -0.1166  0.0295 -0.0290
30932W        W47779  15.478   1.250  14.127 -0.0284  0.3438 -0.1149
30933W        W47780  10.321  16.016   1.136 -0.2230 -0.1832 -0.2212
30934W        W47781  16.361   4.014  12.570  0.2154  0.1003 -0.1467
30935W        W47782  11.329  19.020  10.104 -0.1166 -0.2250 -0.5018
30936W        W47783   0.147  16.972   3.634  0.1166  0.2912 -0.0568
30937W        W47784   4.235  11.494  13.023  0.0076  0.0900  0.1573
30938W        W47785   3.704  12.162   9.620 -0.1538  0.1216 -0.0601
30939W        W47786  16.199  19.658   9.370 -0.1200  0.0653  0.0680
30940W        W47787   5.580  19.314  14.005  0.0299  0.1278  0.3537
30941W        W47788  11.940   4.445   2.160 -0.0070  0.2539 -0.1007
30942W        W47789  19.654  19.311  11.862  0.4762  0.2168  0.1387
30943W        W47790   7.339   5.783   3.532 -0.1907  0.0382 -0.1108
30944W        W47791   8.635  13.273   8.972  0.0944  0.0964  0.0441
30945W        W47792  12.971  17.371   1.110  0.0638  0.1052 -0.0641
30946W        W47793   4.211  17.162  12.612 -0.0780  0.0334 -0.3877
30947W        W47794  10.427   5.558   1.166 -0.3058  0.2037 -0.0146
30948W        W47795   0.489   4.566   0.370  0.0497  0.0162  0.0723
30949W        W47796  16.267   3.444  12.565  0.0393  0.1084  0.0434
30950W        W47797   2.276   2.023   1.157 -0.2661  0.0384 -0.0790
30951W        W47798  13.170  16.712   2.975 -0.2022 -0.0224  0.1036
30952W        W47799  16.162  14.792  12.199  0.3331  0.1100  0.2911
30953W        W47800   1.246  10.253   2.206  0.0186  0.0025 -0.1643
30954W        W47801  19.533   5.734   4.023  0.0429 -0.3265 -0.0412
30955W        W47802  17.924   3.100  11.822 -0.0449 -0.3893  0.0689
30956W        W47803  17.411  15.128   0.150 -0.0884 -0.1705 -0.1115
30957W        W47804   3.710  16.020  12.695 -0.2132 -0.2008 -0.0493
30958W        W47805   5.641   5.329  11.783  0.0386 -0.1804 -0.3199
30959W        W47806   9.579  18.000  13.414  0.0279 -0.0300 -0.2138
30960W        W47807   9.871  14.771   1.409 -0.2890  0.1498 -0.0175
30961W        W47808  10.319   8.456  13.828 -0.2323  0.1356 -0.1177
30962W        W47809   9.680   9.064  12.030 -0.3391  0.3669  0.1830
30963W        W47810  12.480   9.973   3.392 -0.3384  0.1468  0.5203
30964W        W47811  17.879  17.048   4.291  0.1957  0.1252  0.0577
30965W        W47812   1.537   0.166  13.596  0.3848  0.1524 -0.2340
30966W        W47813  11.057   0.314  12.724  0.1255  0.2388 -0.0283
30967W        W47814  18.472   5.324   9.532 -0.0153  0.3635  0.0979
30968W        W47815   5.997  10.917   4.809 -0.2462  0.5048  0.2428
30969W        W47816  18.354  13.598   3.229 -0.3898  0.0143  0.1368
30970W        W47817  11.224  18.979   2.891  0.1897 -0.2084  0.3040
30971W        W47818   3.628   5.844   1.451  0.0604  0.2889 -0.2753
30972W        W47819   8.751   6.587   4.242  0.2091 -0.3557  0.2206
30973W        W47820  15.264  17.604  11.829 -0.5171  0.1868  0.0302
30974W        W47821  18.246   7.081   3.863  0.2111  0.1400  0.0272
30975W        W47822  10.755  17.353   0.433  0.1252 -0.1393 -0.0183
30976W        W47823   2.436   3.227   3.240 -0.2117  0.0186 -0.0468
30977W        W47824  12.368   0.527  14.291 -0.1178  0.2207  0.2937
30978W        W47825   2.247   8.926   0.403 -0.0402  0.0222  0.1498
30979W        W47826  17.060  10.737   0.341 -0.0978 -0.3043  0.1319
30980W        W47827  17.087  18.326  13.107  0.1918  0.1477 -0.1200
30981W        W47828  11.722  16.399  14.160  0.1357 -0.2263  0.0965
30982W        W47829  13.949  11.052  11.490 -0.0029  0.2038 -0.0521
30983W        W47830   5.649   4.823   3.424  0.2062  0.0469  0.2059
30984W        W47831   1.243   2.931  10.478 -0.2033  0.1190 -0.5024
30985W        W47832  10.456  12.690  12.742 -0.1030 -0.1733 -0.2644
30986W        W47833  18.263   3.590   0.760  0.0497 -0.1190  0.3012
30987W        W47834  19.481  16.009  10.323  0.3557  0.1306  0.0856
30988W        W47835  15.554   9.894   9.463  0.1195  0.0985 -0.1903
30989W        W47836  19.626  19.207  12.475 -0.0819 -0.1914  0.2353
30990W        W47837  10.953  17.066   2.482 -0.1994  0.1911 -0.0319
30991W        W47838  19.588   5.520   2.091  0.1322 -0.0277  0.2558
30992W        W47839  19.377   7.580   0.398 -0.2918  0.0505  0.0722
30993W        W47840   9.460   1.010   3.437  0.0869 -0.1898  0.0616
30994W        W47841  15.857  18.420  10.502  0.0534 -0.1129 -0.1004
30995W        W47842  12.933  18.047   3.818 -0.4840  0.1810  0.1089
30996W        W47843  15.094  15.700  13.740 -0.3100  0.1521  0.0108
30997W        W47844  10.623   1.259  11.241 -0.0217 -0.1360  0.1470
30998W        W47845  17.134   8.332   3.865 -0.2846 -0.0575  0.1288
30999W        W47846  13.909   4.107   9.823 -0.1840 -0.1446 -0.0568
31000W        W47847  19.269  18.326  10.406  0.0666  0.0903 -0.0965
31001W        W47848   3.350   4.194  12.446 -0.2340 -0.2048 -0.2446
31002W        W47849   3.283  19.355   1.043 -0.0751 -0.0335  0.0054
31003W        W47850   4.852   1.674   1.000  0.0976 -0.1040  0.1973
31004W        W47851   6.205   6.919  13.616  0.2373 -0.1683  0.0724
31005W        W47852  14.039  17.979   0.679  0.3460  0.0806 -0.1199
31006W        W47853   4.487  10.200   9.678 -0.0796  0.1733 -0.1700
31007W        W47854  17.444   6.705  10.683 -0.0812  0.2015  0.3034
31008W        W47855   4.404  18.867   0.712 -0.3490 -0.0776 -0.1529
31009W        W47856   3.674   5.359   0.053  0.2549  0.0629 -0.0675
31010W        W47857  14.269   9.918   1.741 -0.0445 -0.1235 -0.0588
31011W        W47858   0.010  16.964   0.583  0.0559 -0.0549 -0.1410
31012W        W47859  18.507   6.436   0.702  0.0398 -0.2700  0.2396
31013W        W47860   7.314   3.468  11.903  0.0561  0.0945  0.0446
31014W        W47861   0.313   5.184  12.557 -0.1901  0.0130  0.3086
31015W        W47862  15.096  16.638  10.522 -0.0830 -0.0942 -0.4131
31016W        W47863  14.906  13.057   3.177  0.0562  0.0355  0.0766
31017W        W47864   3.460  14.786  11.925 -0.0065  0.0390 -0.1467
31018W        W47865   1.860  18.690  13.617 -0.3007  0.1199 -0.0013
31019W        W47866  12.037   9.450  10.365  0.0619  0.0241  0.1865
31020W        W47867  14.186  13.076   8.996  0.0967 -0.3839 -0.2368
31021W        W47868  11.204   2.329   1.686 -0.2539  0.2575  0.0324
31022W        W47869  18.719  15.270   2.343 -0.1841 -0.1256  0.0697
31023W        W47870  17.383  14.318   1.577 -0.0166  0.2754  0.0986
31024W        W47871  15.105   3.505   4.534  0.1761 -0.1373  0.1660
31025W        W47872  12.995   2.652  11.780 -0.0437 -0.1943 -0.0449
31026W        W47873  16.915   0.021  11.477  0.0079 -0.3654 -0.0258
31027W        W47874  18.676  15.923  11.515  0.0631  0.0087 -0.0186
31028W        W47875   9.965   7.819  11.387  0.3255  0.0604  0.1267
31029W        W47876   0.984   2.538   4.769 -0.0554 -0.0733 -0.0056
31030W        W47877  15.813   1.029  12.272  0.1124  0.0261  0.2055
31031W        W47878   6.048  18.715  13.948  0.1205 -0.3474  0.0612
31032W        W47879  18.914   0.471   0.228 -0.2179 -0.1122 -0.0495
31033W        W47880   0.910   8.468   2.254 -0.1877  0.0017 -0.4180
31034W        W47881  15.556   8.952   1.248  0.1528 -0.0576 -0.0965
31035W        W47882  12.876   6.170   2.199  0.0641 -0.2589 -0.1851
31036W        W47883  14.689   0.789  13.926 -0.0580 -0.2252  0.1168
31037W        W47884  10.632   2.768   1.172  0.0136  0.0107 -0.1404
31038W        W47885  19.017  13.642  10.198 -0.3280  0.1059 -0.1700
31039W        W47886  16.186  15.132   1.096  0.0878  0.1342  0.6407
31040W        W47887  16.336   9.970   3.636  0.1806 -0.0836  0.2012
31041W        W47888  12.070   7.436   1.723  0.1110 -0.3499 -0.0846
31042W        W47889  15.937  17.618   1.422 -0.1628  0.2089 -0.0395
31043W        W47890   1.447  14.301   8.980  0.0093  0.1660 -0.2308
31044W        W47891  19.700   5.915   0.045  0.0721  0.1478  0.0982
31045W        W47892   3.385  14.946   8.634 -0.0383  0.2549 -0.0385
31046W        W47893   2.407  17.095   4.242 -0.2813  0.0522 -0.1141
31047W        W47894   3.731   1.953   2.447  0.0465 -0.1248 -0.2961
31048W        W47895   4.208   0.045  13.722 -0.1202  0.0846 -0.1999
31049W        W47896   5.891   1.806   2.766 -0.2755  0.2785 -0.2693
31050W        W47897  12.755  16.586   3.462  0.2945  0.1180  0.1725
31051W        W47898   1.252   3.620  13.698 -0.1304 -0.0354  0.0785
31052W        W47899   7.249   1.289   3.437  0.1897 -0.0126 -0.0893
31053W        W47900  16.203   3.987  13.440  0.1150  0.1498  0.0812
31054W        W47901   4.424   5.237   3.224  0.1271  0.0657  0.0536
31055W        W47902  17.360  13.308   1.260  0.0087 -0.0772  0.2990
31056W        W47903  18.348  14.314   0.953  0.0469  0.0483  0.0430
31057W        W47904  19.258  18.843  10.135  0.1839  0.0590  0.1259
31058W        W47905  16.299   0.568  13.308  0.0829 -0.3317  0.0887
31059W        W47906   7.032   2.463   0.926  0.2749 -0.1839  0.1030
31060W        W47907  14.455  17.894  10.593 -0.1476 -0.1101  0.1125
31061W        W47908   2.060   2.957   1.263 -0.1028  0.0262  0.0227
31062W        W47909  15.042  11.215  13.617  0.1032  0.0763  0.2902
31063W        W47910  13.433   1.799   1.782 -0.2751 -0.0389  0.1845
31064W        W47911  15.730   4.813  10.529 -0.4360  0.0285  0.0812
31065W        W47912   4.600  19.681   9.948 -0.2544  0.0034  0.0001
31066W        W47913  16.624   0.581  14.029 -0.1260 -0.1417 -0.0766
31067W        W47914   0.909   2.554   1.022  0.0002  0.2164  0.1038
31068W        W47915   1.698   6.698   1.733  0.0208  0.1204  0.4718
31069W        W47916  18.074   3.413  10.909 -0.0370 -0.1438 -0.2176
31070W        W47917  17.324  13.858   1.160 -0.1025 -0.1600 -0.1440
31071W        W47918  18.948   7.948   3.137  0.1193 -0.0077 -0.1238
31072W        W47919   5.719   0.632  13.007 -0.3614  0.3298 -0.2087
31073W        W47920   6.143  15.134  11.887  0.1208 -0.2098  0.1438
31074W        W47921  17.051   5.972  10.396  0.1768 -0.1251  0.0669
31075W        W47922  18.732   1.829   0.191  0.2376 -0.1921 -0.2908
31076W        W47923   8.112  11.366  13.065 -0.1128 -0.1612 -0.4248
31077W        W47924  18.861   1.741   4.345  0.1230  0.2169  0.2794
31078W        W47925  16.185  12.727   2.226 -0.0136 -0.1495  0.0130
31079W        W47926   4.491  10.548   4.074  0.0071 -0.1306  0.1964
31080W        W47927   7.204   1.194   0.868 -0.1792  0.1932 -0.2975
31081W        W47928   6.663  15.719   0.327 -0.1248 -0.1020  0.2465
31082W        W47929   0.578  10.050   1.554 -0.3207  0.1936 -0.0140
31083W        W47930  12.525  12.071   5.235 -0.0016 -0.3080  0.2185
31084W        W47931  11.341  10.501   2.690  0.2099 -0.1442 -0.0187
31085W        W47932   6.587  12.552  13.283 -0.1099 -0.0154 -0.0669
31086W        W47933  16.593   4.600   4.634  0.1605 -0.0849 -0.2088
31087W        W47934   2.829   2.357  11.072 -0.0436  0.0901 -0.0197
31088W        W47935   0.548   7.666   2.289 -0.0720 -0.1282 -0.2317
31089W        W47936  17.204  13.432   3.025  0.3795  0.0948 -0.3106
31090W        W47937  11.350   2.623  12.657 -0.0316  0.1606 -0.0576
31091W        W47938   0.278   5.279  10.450 -0.0318  0.2467  0.0332
31092W        W47939  15.734  14.153  10.555  0.1235 -0.1174 -0.0755
31093W        W47940   7.071  18.914   0.152  0.2603  0.0427  0.1140
31094W        W47941  18.523   5.708   1.001  0.0369 -0.3776 -0.5583
31095W        W47942  14.661   5.091   0.113 -0.1228 -0.0464 -0.0728
31096W        W47943  10.218  16.626   1.314  0.3492 -0.3762 -0.1101
31097W        W47944   2.110   0.432   4.769 -0.0565 -0.0090  0.1435
31098W        W47945   8.450   0.305  12.708 -0.1239  0.0287 -0.0380
31099W        W47946  18.851   4.647  11.062 -0.2446 -0.4844  0.0636
31100W        W47947  13.173   9.282   3.377  0.0210 -0.0212  0.2748
31101W        W47948  12.722   6.321  12.781  0.0695 -0.3122  0.4048
31102W        W47949  14.023   8.235  12.657 -0.1474 -0.1889  0.2298
31103W        W47950   0.390   2.613   1.817  0.0383 -0.0557 -0.0972
31104W        W47951  17.271   2.838   4.305 -0.1864 -0.0337  0.2823
31105W        W47952   1.379   8.842   4.976  0.4525 -0.0550 -0.2078
31106W        W47953  14.555  11.251  12.926  0.0615 -0.2484  0.3378
31107W        W47954   1.029  18.203   9.547  0.0330  0.0601 -0.1860
31108W        W47955  15.174   7.498   2.004 -0.0355  0.1577  0.1957
31109W        W47956  16.207   8.969  12.488  0.0071  0.0195  0.0807
31110W        W47957  18.147  10.358   0.457 -0.1451 -0.2852  0.1276
31111W        W47958  15.897  16.878  11.478  0.3837 -0.2330  0.0327
31112W        W47959   8.081  17.089   3.515  0.1793  0.2207 -0.0754
31113W        W47960  13.945  18.872   1.063  0.1927  0.0928 -0.1035
31114W        W47961   0.234  15.718   9.225  0.3601 -0.1128 -0.0918
31115W        W47962  14.393   1.327  13.233  0.0619 -0.0159  0.2764
31116W        W47963   3.889  17.494   0.778  0.0610  0.0643  0.0392
31117W        W47964  18.468  16.399   4.119 -0.2566 -0.0702  0.1207
31118W        W47965  17.767   7.137   0.282  0.2139 -0.1802 -0.0044
31119W        W47966   1.870   8.597  12.650 -0.0113  0.1360  0.2522
31120W        W47967   9.759   5.077  11.405 -0.2062  0.0460 -0.1347
31121W        W47968   1.408   8.579  14.190  0.0105  0.2350  0.1269
31122W        W47969  14.048  16.992   0.924  0.0818 -0.2923 -0.2535
31123W        W47970   9.667   0.818   4.221  0.0630  0.0430  0.1768
31124W        W47971  12.586   8.722   2.176 -0.0494  0.1280 -0.0808
31125W        W47972  19.246   1.206  11.499  0.0446  0.3514 -0.1067
31126W        W47973   1.258  12.075   1.591  0.0520 -0.1127 -0.0549
31127W        W47974  17.052   1.695   1.798 -0.3997 -0.2054  0.0789
31128W        W47975  13.784   7.576   4.421  0.0550  0.0432 -0.0630
31129W        W47976   6.664  19.682  12.141 -0.0435  0.3427  0.0080
31130W        W47977  15.040  13.853   2.054  0.3300  0.1983 -0.3654
31131W        W47978   1.632   5.220  12.936 -0.2434 -0.0419 -0.1607
31132W        W47979  11.104   2.146  13.796 -0.0556  0.3274 -0.0158
31133W        W47980   3.835  13.649   1.455  0.0246 -0.2658 -0.1465
31134W        W47981  18.628  18.170   4.285 -0.1171 -0.1464 -0.1027
31135W        W47982   8.720  19.143  12.143  0.1791  0.1134 -0.1536
31136W        W47983  15.878  16.496   3.893  0.0934 -0.1306 -0.2383
31137W        W47984  19.858   4.922  14.030  0.0767  0.1532 -0.0298
31138W        W47985  13.654   5.117   5.174  0.1369 -0.0889  0.0468
31139W        W47986  16.287   1.648  11.740  0.2645 -0.3016  0.1642
31140W        W47987  11.087   5.953  12.558 -0.2268  0.0543  0.0321
31141W        W47988   3.408  10.041   3.393  0.1514  0.1833  0.1197
31142W        W47989  17.037   6.114   5.654  0.2064 -0.0283 -0.3907
31143W        W47990  15.082   1.834  12.569 -0.0934 -0.1838 -0.1930
31144W        W47991  15.150   9.264   4.393 -0.2779  0.1089  0.1400
31145W        W47992   6.315  10.043  10.705 -0.0715  0.1991  0.6095
31146W        W47993  17.363   6.417   3.452  0.1848 -0.2096 -0.0448
31147W        W47994   2.891   6.401  12.566 -0.0909 -0.1747 -0.1536
31148W        W47995   1.561   2.285  11.823  0.1150 -0.4088  0.0523
31149W        W47996  13.860  11.549   0.926 -0.2375 -0.2416 -0.3103
31150W        W47997   0.968   4.661   9.480 -0.3650  0.0300 -0.1209
31151W        W47998  15.926  17.308  12.141 -0.2047 -0.1277  0.1253
31152W        W47999  10.680  19.285   0.573 -0.3634  0.1431 -0.1889
31153W        W48000  16.973  13.911   0.710 -0.1884  0.0118 -0.0788
31154W        W48001  17.283  18.237  11.062  0.0327  0.3404  0.1382
31155W        W48002  13.192   0.540   3.446 -0.0128 -0.0485 -0.1551
31156W        W48003  19.707   5.261  10.615 -0.1994 -0.1917 -0.2693
31157W        W48004  15.974  19.759  12.065  0.1277 -0.1590  0.0506
31158W        W48005  17.040  17.915  13.441  0.0210  0.1948 -0.0844
31159W        W48006   6.501  19.640   2.623  0.2361  0.2295  0.1568
31160W        W48007  16.085   1.681  12.261  0.1433  0.2564  0.2122
31161W        W48008   4.948   3.711   0.304  0.3271 -0.1161 -0.2357
31162W        W48009  13.626  18.243  13.570  0.1499  0.3395 -0.0396
31163W        W48010   2.391  15.642   3.829 -0.2504  0.0707 -0.0147
31164W        W48011   1.293  10.654  13.727 -0.2008 -0.1206  0.0796
31165W        W48012   8.813   0.935  11.593  0.2124  0.1384 -0.1259
31166W        W48013  15.994   8.734  10.881 -0.3244 -0.0076 -0.1440
31167W        W48014  13.817   7.069   4.736 -0.0399 -0.0465 -0.3011
31168W        W48015   9.320  12.232   2.321  0.1803 -0.0970 -0.0503
31169W        W48016   7.201  15.085   0.186  0.2197  0.2945 -0.0777
31170W        W48017  14.271   7.374  11.003 -0.2757 -0.2864  0.0363
31171W        W48018   0.762  19.180   4.345  0.1147 -0.0109  0.3050
31172W        W48019  14.746  19.704   3.436  0.1635  0.1477 -0.1233
31173W        W48020  18.437   4.188  12.283 -0.0504 -0.2755  0.4404
31174W        W48021   8.735  12.596   0.333  0.0173  0.0664  0.3034
31175W        W48022  10.881  16.089   3.541  0.2011 -0.1297  0.1922
31176W        W48023  14.367  12.861   1.654  0.0213  0.3013  0.1396
31177W        W48024   1.267  16.669  13.648  0.0304  0.1516 -0.1848
31178W        W48025  16.698  16.549   4.827 -0.0146  0.0476  0.0040
31179W        W48026  18.380   7.631  10.536  0.2295 -0.3086 -0.2564
31180W        W48027   2.126   6.176  11.400  0.2991 -0.0106  0.4757
31181W        W48028   3.345   5.128   2.378 -0.0026 -0.0882 -0.4070
31182W        W48029   2.565   3.926   4.129  0.0835 -0.1176 -0.1014
31183W        W48030   7.008  19.294  14.095 -0.0738 -0.0434 -0.1535
31184W        W48031  14.467  10.078  10.646 -0.0175  0.0828  0.0413
31185W        W48032  18.296  15.834   4.846 -0.3060  0.0945 -0.1971
31186W        W48033   1.153  13.160   0.711 -0.1145 -0.2148  0.4456
31187W        W48034  12.039  11.938   4.525  0.1984  0.1966  0.2731
31188W        W48035  13.097   1.406  10.469 -0.0552  0.0038  0.3447
31189W        W48036  13.715  15.376   9.698  0.0058  0.0116  0.4397
31190W        W48037  15.438   4.549   1.086  0.0891 -0.2606  0.1586
31191W        W48038  17.937   1.758  11.216 -0.1356  0.0169  0.0245
31192W        W48039   6.538  16.551   0.070 -0.0465 -0.0752 -0.3112
31193W        W48040   2.578   8.332  10.208 -0.2969 -0.1378 -0.0225
31194W        W48041   5.417   1.979  13.329 -0.0899 -0.1653 -0.3421
31195W        W48042   5.616  15.099   1.128  0.2941 -0.1376 -0.1806
31196W        W48043  18.187   2.564   4.483  0.2143 -0.0010  0.2112
31197W        W48044   9.701   1.431  12.710 -0.0618  0.0051  0.0719
31198W        W48045  11.160  18.568  12.503  0.0273  0.2173  0.0658
31199W        W48046  12.603   6.744   0.539 -0.2986 -0.1311  0.1367
31200W        W48047   4.049  17.189  13.121  0.3717  0.4372  0.2769
31201W        W48048   2.942  10.442  12.548 -0.0873 -0.2770  0.2539
31202W        W48049  13.748   9.578   2.680 -0.1192  0.0948 -0.1300
31203W        W48050  15.521   1.539   1.109  0.0994  0.2145  0.0410
31204W        W48051  12.430   9.463  10.058  0.1357 -0.0774  0.0925
31205W        W48052  14.799   8.403   3.895 -0.0190 -0.0440  0.2518
31206W        W48053  10.953  12.731   3.556 -0.4474  0.0032 -0.2354
31207W        W48054  19.222   1.782   0.318  0.0487  0.1013  0.1103
31208W        W48055   6.508  17.403   0.145 -0.0948 -0.0229 -0.2541
31209W        W48056   3.989   7.058   0.741  0.0277  0.0050 -0.1175
31210W        W48057  11.224  12.900   5.012 -0.5287 -0.0296  0.5871
31211W        W48058  16.970   7.718  12.955 -0.0358 -0.1511 -0.3371
31212W        W48059   6.030   4.763  11.850 -0.0778  0.2804 -0.2242
31213W        W48060   9.967   9.167  10.015  0.3159  0.2736  0.1143
31214W        W48061   0.307  15.846   1.043  0.1167 -0.0006  0.0074
31215W        W48062   9.614   7.444   0.182 -0.1340  0.2897 -0.2843
31216W        W48063  15.052  16.528  12.305 -0.1207 -0.0251 -0.0136
31217W        W48064   8.267   3.298  10.786  0.0017 -0.0577  0.1248
31218W        W48065  19.441   8.097  11.441  0.0791 -0.0744  0.1158
31219W        W48066  12.546   2.307   2.420  0.6849  0.1806 -0.1184
31220W        W48067   4.672  17.700   3.250 -0.0954 -0.2333  0.1174
31221W        W48068  15.493  10.721   3.438 -0.0265  0.0238 -0.1149
31222W        W48069   9.723   9.553   2.644 -0.3606 -0.2509  0.1636
31223W        W48070  13.300  14.825  12.830 -0.0634 -0.1063  0.0020
31224W        W48071  12.525   5.370  10.468 -0.0096  0.0515 -0.2591
31225W        W48072  11.201  11.093  12.646  0.1805 -0.0873 -0.0988
31226W        W48073  18.427  10.400   2.028  0.1008  0.0866  0.1249
31227W        W48074   5.300   8.759   2.009 -0.4430 -0.0621 -0.3142
31228W        W48075   1.784   5.640   3.325  0.0082  0.0094 -0.2851
31229W        W48076   1.429   4.209  12.941 -0.3129  0.1808 -0.3683
31230W        W48077   9.155  10.561   2.938  0.1163 -0.2578  0.1594
31231W        W48078  17.602   0.423   3.112 -0.0874 -0.2018 -0.0373
31232W        W48079   2.533   8.123   2.838  0.2767  0.0191  0.0662
31233W        W48080   0.266  16.334   4.695  0.2049  0.0012 -0.1835
31234W        W48081   5.659   9.896   0.892  0.0048  0.1815  0.0528
31235W        W48082  16.959  15.167   2.394 -0.2007  0.1895 -0.0053
31236W        W48083   6.218  19.740   4.127  0.0057 -0.2312 -0.0328
31237W        W48084  16.397   8.999  13.746 -0.3646 -0.3154  0.0533
31238W        W48085  12.837  12.028  12.615 -0.0452  0.2793 -0.0705
31239W        W48086  13.221   3.683   1.171 -0.0949  0.3227 -0.1322
31240W        W48087   4.620  17.553   1.204 -0.0365  0.0246  0.0278
31241W        W48088  12.068   5.841   4.668  0.2423 -0.1643  0.0745
31242W        W48089  19.233   6.531  12.282  0.1175  0.3075  0.0110
31243W        W48090  14.077  12.722  13.213 -0.2378 -0.0618 -0.1170
31244W        W48091   8.025  11.373   3.263  0.0575  0.2667  0.2456
31245W        W48092   4.891   9.353   3.646  0.3521 -0.1268 -0.1858
31246W        W48093   4.267  15.477   1.418  0.0243  0.0743  0.0893
31247W        W48094   9.922  18.153   2.748 -0.1751 -0.1445 -0.1226
31248W        W48095   1.195   4.139  13.782 -0.1633  0.0524  0.0973
31249W        W48096  17.776  19.616  12.142 -0.0590 -0.3189  0.0056
31250W        W48097  16.377  18.379  10.467  0.0219 -0.2220 -0.0803
31251W        W48098  12.792  18.239   2.417  0.2287  0.0471 -0.2229
31252W        W48099   4.721  10.568   0.536  0.1214 -0.0288  0.0330
31253W        W48100  19.143   7.529   1.452  0.0536 -0.1655  0.2109
31254W        W48101   9.854   9.412  11.701 -0.1877  0.2344  0.0239
31255W        W48102   0.496   0.434  11.911  0.0857 -0.2765  0.2916
31256W        W48103   0.164   1.663   3.318 -0.4039  0.2976  0.3280
31257W        W48104  10.363  15.287  10.899 -0.0117  0.2629  0.2328
31258W        W48105   0.582  12.441   3.894  0.2518  0.1597 -0.0301
31259W        W48106   9.571  18.205  12.499  0.0935 -0.0223 -0.1552
31260W        W48107  16.389   1.788   5.459 -0.0233  0.2106  0.1782
31261W        W48108   7.850  18.798   9.012  0.1335  0.1498 -0.2986
31262W        W48109  13.925  11.476   0.020  0.0981  0.0630 -0.0132
31263W        W48110   6.248  12.052   9.535  0.1710  0.1027 -0.2612
31264W        W48111  11.092  12.206   3.727 -0.2153 -0.1702  0.2284
31265W        W48112  15.366  17.925   0.751  0.0067  0.0082  0.2484
31266W        W48113  15.043   6.286   5.311  0.0581  0.0534 -0.0916
31267W        W48114  10.654  13.606   0.209  0.1286 -0.1064  0.3304
31268W        W48115   3.504   0.566  13.190  0.0792 -0.1242  0.2245
31269W        W48116  17.225   9.875  12.353  0.1659  0.0847  0.1012
31270W        W48117   5.509  18.569  10.340 -0.0670 -0.0882  0.1063
31271W        W48118  14.143  19.708  11.351 -0.1833  0.0470 -0.2961
31272W        W48119  12.609  11.581  13.339  0.0316 -0.0954 -0.2447
31273W        W48120   8.198  16.189   2.360 -0.1701  0.2589 -0.0703
31274W        W48121   6.970   3.998  12.452 -0.2931 -0.1360 -0.3480
31275W        W48122  15.413  18.874  12.731  0.1024  0.1394 -0.0979
31276W        W48123  14.492  13.425  10.164 -0.0792 -0.0863 -0.2341
31277W        W48124   1.210   9.097  11.067 -0.1865 -0.0235 -0.1277
31278W        W48125  12.013   3.473   2.569  0.0975 -0.2135 -0.1692
31279W        W48126   4.140  12.439  12.293 -0.0512 -0.2546 -0.2846
31280W        W48127   7.194  16.556   0.445 -0.1983 -0.0316  0.2997
31281W        W48128   6.539  12.959   2.406 -0.0063  0.1332  0.2294
31282W        W48129  10.510   9.416   2.907 -0.1071  0.1896 -0.1735
31283W        W48130  13.853  10.902   4.101 -0.1261  0.1034 -0.0664
31284W        W48131   3.271   4.295   1.913  0.1372 -0.2528  0.0878
31285W        W48132   9.877  11.061   2.357 -0.2152  0.0738  0.1159
31286W        W48133  12.450   4.633   1.073 -0.2980 -0.1837  0.0663
31287W        W48134  15.719  10.404  11.124  0.0360 -0.1464  0.0154
31288W        W48135  11.796   2.667  10.365  0.2827  0.3219 -0.0317
31289W        W48136  16.077  10.584   2.927 -0.1376  0.2095  0.1289
31290W        W48137   8.789   9.821   1.554  0.0539 -0.1409 -0.0891
31291W        W48138  13.242  12.757  11.853 -0.1625  0.1410 -0.0351
31292W        W48139  12.374   1.309  12.414  0.0104  0.0294 -0.3290
31293W        W48140  19.746  19.346  14.193  0.0253 -0.1826  0.1077
31294W        W48141   1.598  19.151  10.876  0.1150 -0.0641 -0.4469
31295W        W48142  16.920  11.663  12.515  0.1265 -0.0723  0.1545
31296W        W48143   9.164   6.990   9.539  0.2673 -0.2139  0.1176
31297W        W48144   8.647  12.471  11.608  0.0046  0.1654 -0.1923
31298W        W48145   9.333  15.942  11.104 -0.1078  0.0964  0.0409
31299W        W48146  13.554   3.892  12.250 -0.2373  0.0917 -0.0929
31300W        W48147  15.961   6.257   1.427 -0.1599 -0.3925 -0.1364
31301W        W48148  18.788   2.875   0.215  0.3289  0.2403  0.1034
31302W        W48149   9.896   7.164  12.933 -0.3014  0.1884  0.0857
31303W        W48150   3.302   9.558  14.148  0.0773 -0.0500  0.2747
31304W        W48151   9.481   3.705  13.480 -0.0922  0.3369 -0.0076
31305W        W48152  12.642   2.283   4.900 -0.2738  0.0189 -0.0508
31306W        W48153   5.002   0.241  10.754 -0.0556  0.2685 -0.3004
31307W        W48154   0.703   8.250  12.058 -0.0808 -0.0842 -0.0182
31308W        W48155  13.569  19.684   1.963  0.0242  0.3203 -0.2449
31309W        W48156   6.375   7.895   1.598 -0.1024  0.0597 -0.2041
31310W        W48157   5.635  14.191   4.371  0.0815  0.0142  0.0109
31311W        W48158  18.499  16.208   2.678  0.1644  0.2544  0.3476
31312W        W48159  16.711  15.963  13.065 -0.3198  0.0784  0.0863
31313W        W48160   8.592   7.629   1.632 -0.2450  0.0820  0.3207
31314W        W48161  18.276   8.399   4.730 -0.0421 -0.3443  0.2562
31315W        W48162  13.749  19.873   2.933 -0.1608  0.0096  0.0082
31316W        W48163  11.987   8.108   4.145  0.1792 -0.0958 -0.0112
31317W        W48164   4.521  18.624   2.441  0.2493 -0.1275  0.1293
31318W        W48165  15.057   5.012  10.889 -0.1626 -0.2226 -0.0482
31319W        W48166  19.661  10.121   1.982 -0.0395  0.1565 -0.1368
31320W        W48167   3.023   3.356   5.177 -0.0426  0.1838  0.0401
31321W        W48168   5.253   2.753  10.238 -0.1701  0.3351  0.2466
31322W        W48169   2.176   2.158  10.491  0.1751  0.3450  0.2524
31323W        W48170  17.416  19.338   0.457  0.3567 -0.2150  0.4041
31324W        W48171  15.106   3.679   3.299  0.2035 -0.2014 -0.5427
31325W        W48172   1.940   0.479   1.036 -0.0593  0.2375  0.0145
31326W        W48173  14.039  16.694  12.961 -0.2621 -0.1961  0.1659
31327W        W48174   6.845  11.092  11.160  0.0573  0.1474  0.2933
31328W        W48175   1.897  14.912  13.440  0.3608  0.1217  0.1648
31329W        W48176  19.177  14.974   3.261 -0.0357  0.4707 -0.1150
31330W        W48177  10.555  12.233  12.701  0.0883 -0.0984 -0.0457
31331W        W48178   7.275   1.083   4.178 -0.1673  0.1223 -0.2161
31332W        W48179   4.082  18.794   2.553  0.0892  0.0801  0.0154
31333W        W48180  18.161  11.665   1.897  0.0106  0.1280 -0.0204
31334W        W48181   7.070   7.399   2.296  0.1982  0.1230 -0.0915
31335W        W48182  14.667  16.714  11.592  0.0342 -0.2346 -0.2037
31336W        W48183   4.777  19.699   4.743 -0.0700 -0.1984  0.1268
31337W        W48184   7.782   8.499   1.794  0.0149  0.0310 -0.1782
31338W        W48185   9.549  18.723   1.108  0.1514 -0.0411  0.1140
31339W        W48186  19.185   0.056   0.441  0.0733  0.0161  0.2003
31340W        W48187   3.569  10.552   5.225  0.2579 -0.0244 -0.0772
31341W        W48188  12.005   1.836   5.431 -0.0413  0.2147 -0.2080
31342W        W48189  10.468  19.571   3.710  0.0601  0.0949  0.0977
31343W        W48190  10.747   2.550   1.695  0.2693  0.1399 -0.0980
31344W        W48191   8.432  17.035   9.958 -0.1516 -0.0623  0.1070
31345W        W48192   7.263   0.181  13.398  0.3344  0.3789 -0.2373
31346W        W48193   1.208   9.380  11.487 -0.0702 -0.0238 -0.2057
31347W        W48194  10.608  14.497   0.483 -0.1279 -0.0187  0.3540
31348W        W48195   5.184   6.707  10.945  0.2822 -0.1530 -0.0690
31349W        W48196   4.446  18.049  12.168 -0.1459 -0.1764 -0.2540
31350W        W48197   8.905  19.342  13.442 -0.0152 -0.1217  0.1870
31351W        W48198   3.960  11.559   0.972 -0.2097  0.1049  0.1182
31352W        W48199  12.383   9.628  13.134 -0.4182  0.2369 -0.1757
31353W        W48200  18.653   4.653   3.752  0.1295 -0.1299  0.1489
31354W        W48201  11.578  10.453  10.826 -0.1994 -0.0196 -0.1915
31355W        W48202   9.269   6.039   1.793 -0.3041 -0.2869  0.1650
31356W        W48203   1.497  13.464   2.233  0.0799 -0.1430  0.0315
31357W        W48204   8.629  16.684   0.565  0.1076 -0.1146 -0.1453
31358W        W48205  18.844   2.589  12.057  0.0069 -0.0168  0.4493
31359W        W48206  13.350   9.927  12.096  0.0628 -0.0509 -0.1050
31360W        W48207   9.523   8.810  12.540  0.2020  0.1990 -0.2327
31361W        W48208  11.708   2.641   2.929  0.2079 -0.0457 -0.3468
31362W        W48209  12.118  13.873  10.644  0.2020  0.0623 -0.1185
31363W        W48210  16.578   2.335  12.154  0.1350  0.3381 -0.3917
31364W        W48211   7.327   0.620  12.084  0.1220  0.3488  0.1152
31365W        W48212  19.190  11.353   9.815  0.1275  0.1175 -0.3366
31366W        W48213   1.041   9.836   2.490  0.0821 -0.0344  0.0279
31367W        W48214   4.847   6.322  12.653 -0.1406  0.4087  0.3887
31368W        W48215  10.409   3.646  13.112  0.1911  0.3590 -0.1299
31369W        W48216   3.660  15.491   5.165 -0.0810 -0.0455 -0.1039
31370W        W48217  15.887   5.805   1.367 -0.2533 -0.0522  0.0479
31371W        W48218   5.296  19.529   4.535 -0.2618  0.0500 -0.2237
31372W        W48219  12.799  15.371   1.795  0.1100 -0.0155 -0.0542
31373W        W48220  10.425  14.693  12.899 -0.0089 -0.0040 -0.1733
31374W        W48221   8.232  13.032   3.819 -0.0717 -0.0525 -0.1571
31375W        W48222   5.795   3.437  11.937  0.3490  0.0768 -0.1034
31376W        W48223   6.156   6.321   1.111 -0.3267  0.2225  0.1710
31377W        W48224   5.163  16.518   2.198  0.2579  0.0114  0.5296
31378W        W48225  16.629   7.545  14.258 -0.2890 -0.0610 -0.2135
31379W        W48226   8.372  16.731   3.690 -0.1104  0.1309  0.1262
31380W        W48227   1.359   4.279  10.318  0.1198 -0.1107 -0.1808
31381W        W48228   0.265  16.559  13.892 -0.2616  0.1618 -0.2560
31382W        W48229   3.406  13.323   3.542  0.1348  0.2924 -0.1249
31383W        W48230   9.991  14.755   2.956  0.1190  0.2972 -0.0384
31384W        W48231   8.846  19.260  10.021  0.3161  0.5167 -0.0621
31385W        W48232   4.764  17.458   9.867 -0.1046  0.1051 -0.1397
31386W        W48233  13.031   3.141  14.218  0.2749  0.1965  0.1793
31387W        W48234  16.709  17.068   1.217 -0.0686  0.2422 -0.0016
31388W        W48235  12.764  13.005   2.390  0.1797  0.0203  0.2222
31389W        W48236  16.982   7.893   4.117  0.0334 -0.0954  0.3289
31390W        W48237  17.113   7.987  13.305 -0.1593 -0.2827  0.1582
31391W        W48238  18.337   3.764   5.356  0.0992  0.1319 -0.1703
31392W        W48239   5.950  16.878   2.906  0.3754 -0.1346 -0.3351
31393W        W48240  17.258  16.104  12.894  0.2991 -0.1346 -0.0308
31394W        W48241  11.267  13.081  10.458 -0.1580  0.0573 -0.0393
31395W        W48242   0.595   1.973  11.472 -0.1740 -0.0871 -0.1507
31396W        W48243   6.961  10.095  13.141 -0.6422 -0.2280  0.0395
31397W        W48244   3.620  18.989   1.365  0.2841  0.0356 -0.4086
31398W        W48245  11.140   7.934  10.812  0.0367  0.3600 -0.1821
31399W        W48246   4.003   8.592  12.712 -0.2671  0.0124 -0.0404
31400W        W48247   2.043  18.828   3.163  0.1295 -0.0330  0.0211
31401W        W48248  10.162  11.894   3.285  0.3843 -0.1992  0.1934
31402W        W48249  11.824   8.576  13.225 -0.1565  0.0863  0.2120
31403W        W48250   1.591  19.297   0.532 -0.0964 -0.3098  0.1661
31404W        W48251   4.284   4.199  12.390  0.1248 -0.0555  0.0128
31405W        W48252   1.566  12.141  13.256 -0.2360  0.1143 -0.3349
31406W        W48253  11.108   3.989   5.011  0.0761 -0.2037 -0.1777
31407W        W48254  10.974  18.910  10.571  0.0378 -0.2224 -0.0063
31408W        W48255   6.328  12.243  12.679 -0.3843 -0.0786  0.2244
31409W        W48256  14.817  13.682   1.620 -0.0255 -0.0295 -0.1242
31410W        W48257   8.337  10.909   1.210 -0.0087  0.3131 -0.2613
31411W        W48258  10.685  12.567  10.440 -0.2109 -0.0795 -0.1825
31412W        W48259  13.449  16.425   5.474 -0.2452  0.1667 -0.1402
31413W        W48260   2.305  11.546   5.038 -0.2004 -0.0510 -0.2965
31414W        W48261   6.126   1.978   1.271  0.0249  0.2869  0.0458
31415W        W48262  14.712  13.027   2.095  0.0184  0.0777 -0.2569
31416W        W48263  10.055  10.495   2.350  0.0996  0.0615 -0.0072
31417W        W48264  17.632  13.660  12.967  0.1457 -0.3340  0.0413
31418W        W48265   8.905  12.336   9.371 -0.2973 -0.2526 -0.1240
31419W        W48266   4.353  10.483  13.584  0.1389  0.1214  0.0046
31420W        W48267   2.951   8.452   2.694 -0.2406  0.0372 -0.0011
31421W        W48268   2.256   2.381  12.971  0.0866 -0.2939  0.2111
31422W        W48269   6.421  12.972  10.514  0.0104 -0.3187  0.2995
31423W        W48270   1.508  15.586   1.147  0.2777 -0.1239  0.2520
31424W        W48271   7.561  18.604   3.704  0.1553 -0.1179 -0.3396
31425W        W48272  13.683   3.210  10.973  0.2385 -0.2460 -0.3666
31426W        W48273  10.438  13.091   0.828 -0.3511 -0.1552 -0.0645
31427W        W48274   5.396  16.879   9.716 -0.2979 -0.2954  0.1947
31428W        W48275  14.371   6.078  12.016 -0.2511  0.1932 -0.1956
31429W        W48276   3.546  15.499   2.220  0.0494  0.1588 -0.2625
31430W        W48277  13.223   0.011  14.090  0.2285  0.0745  0.0835
31431W        W48278  12.681   1.943  12.331 -0.1829  0.1798  0.0412
31432W        W48279  11.140  15.163   3.129  0.0186 -0.1070 -0.2249
31433W        W48280   2.022  13.030   3.809 -0.0209  0.1950 -0.1444
31434W        W48281   0.439   5.475  13.495  0.0383 -0.0341 -0.0130
31435W        W48282   5.685   7.771  10.914  0.0539 -0.3323  0.2063
31436W        W48283   8.551  19.739   2.082  0.1558  0.1774 -0.1098
31437W        W48284   7.167   7.042   0.154  0.2187  0.0409 -0.1058
31438W        W48285   6.624   2.676   3.241  0.0348  0.1830 -0.2464
31439W        W48286  17.946  13.851   3.101  0.0459  0.0367  0.0291
31440W        W48287   0.788   8.341  14.184  0.1594  0.0012 -0.1047
31441W        W48288  14.142   6.785  11.369 -0.3062  0.0932  0.0231
31442W        W48289   3.020  18.839   3.820 -0.1888  0.3122  0.1672
31443W        W48290  11.391   5.159   1.199  0.1394 -0.1569 -0.1294
31444W        W48291   3.384  14.361  12.225 -0.3416  0.4313  0.2199
31445W        W48292   4.070   7.843   3.719  0.0360 -0.1840  0.1020
31446W        W48293   8.240  18.017  12.159 -0.1482 -0.1825 -0.0317
31447W        W48294   0.211   8.842   1.473  0.1139 -0.2168 -0.2848
31448W        W48295  15.385  14.812  13.867  0.0483  0.2255 -0.1314
31449W        W48296   0.301  13.720  12.021  0.1334  0.0959  0.0183
31450W        W48297   0.572  11.738  12.180 -0.0738 -0.0716  0.0985
31451W        W48298  19.205  14.223   4.054  0.0119 -0.1189  0.2698
31452W        W48299   6.185   3.940  14.226 -0.0527 -0.0065  0.0088
31453W        W48300   4.712   0.415  12.519  0.2539  0.0392  0.1156
31454W        W48301  17.411   6.086   0.291  0.0105  0.1380  0.0724
31455W        W48302  10.612   0.130  10.082  0.0725 -0.6058 -0.2848
31456W        W48303   5.211   7.191   0.467 -0.2674  0.1307  0.1677
31457W        W48304   2.394   6.679   0.021  0.2726  0.0990  0.0785
31458W        W48305   5.449  16.975   3.850 -0.2911 -0.0205  0.2742
31459W        W48306  14.560  18.535  13.257  0.0031 -0.1180  0.1847
31460W        W48307   9.935   2.751   0.224  0.2556 -0.2107  0.0913
31461W        W48308   1.865   6.572   4.182  0.0616  0.3663  0.4323
31462W        W48309   8.184   0.655  12.421 -0.0050  0.3407  0.0800
31463W        W48310  12.778   9.803  14.019  0.1167 -0.1674 -0.2174
31464W        W48311  18.463  17.972   2.457 -0.1249 -0.0161 -0.1738
31465W        W48312  14.355   6.724  10.437 -0.2206 -0.2330  0.3375
31466W        W48313   9.048   0.850   5.153  0.1303 -0.1724  0.0714
31467W        W48314   2.273  11.097  12.012  0.2398 -0.0468 -0.0488
31468W        W48315  11.496   8.700   0.680  0.3008 -0.2150 -0.1274
31469W        W48316  11.603  15.549   0.576 -0.1460 -0.1470 -0.1914
31470W        W48317   0.373   5.179  12.028  0.1992 -0.0081  0.0107
31471W        W48318  11.476   9.647   1.738 -0.0047 -0.1023 -0.1722
31472W        W48319  13.999   1.705   2.103  0.1408 -0.0419 -0.1197
31473W        W48320   2.047  16.142  10.352 -0.1888 -0.2141  0.1852
31474W        W48321  19.874  19.146   0.314  0.1882  0.1041 -0.1789
31475W        W48322  12.784  14.913   3.537 -0.1383 -0.3460 -0.4118
31476W        W48323  18.627   0.631  12.906 -0.2527  0.5907  0.0318
31477W        W48324   1.687  14.464  10.898 -0.0239  0.0916  0.1222
31478W        W48325   9.067   9.164   9.942  0.2432 -0.0460 -0.0100
31479W        W48326  15.364  16.493  12.793  0.3689  0.0645 -0.0473
31480W        W48327   0.453  18.597   2.662  0.0085  0.0630 -0.2522
31481W        W48328   8.448  18.359   9.621 -0.1557  0.0052 -0.0056
31482W        W48329  15.195  18.122  13.728 -0.0644  0.0911 -0.1340
31483W        W48330   9.824  11.746   5.063 -0.1579  0.0805 -0.1805
31484W        W48331  15.740  14.486   3.901  0.0042 -0.1321  0.3236
31485W        W48332   2.314  15.096   4.022 -0.0410  0.3139 -0.2292
31486W        W48333   9.284   1.786   4.451  0.0151 -0.0253 -0.0381
31487W        W48334   2.457   0.375  11.061  0.1693 -0.3089 -0.1736
31488W        W48335  14.428   0.708   1.543  0.0614  0.0550 -0.4807
31489W        W48336  11.446  10.221  11.299  0.2447  0.1303 -0.1110
31490W        W48337   5.001   4.472  13.100 -0.1034 -0.1412  0.0806
31491W        W48338  17.944  10.798  11.119 -0.0815  0.3451  0.3712
31492W        W48339   5.702  16.848   0.335 -0.2623  0.1397  0.0644
31493W        W48340  10.459  10.482   1.460  0.1633  0.1105  0.2412
31494W        W48341  19.515  14.524   3.581  0.0578 -0.0669  0.0315
31495W        W48342   1.685   4.911  14.211  0.1428  0.3486 -0.3724
31496W        W48343  15.865   9.368  13.386  0.2011  0.1629  0.0843
31497W        W48344   7.739   6.567  10.370 -0.1329 -0.1746  0.0162
31498W        W48345   2.862  14.485   1.044  0.3231  0.0476  0.0352
31499W        W48346   7.076  18.959  10.283 -0.2004  0.2452  0.0282
31500W        W48347   9.934  11.203  10.027  0.0903 -0.0084 -0.0480
31501W        W48348   8.645   2.487  12.509 -0.3892  0.3266  0.0929
31502W        W48349   3.235  12.052  14.094  0.1471  0.1499  0.2661
31503W        W48350  17.977  11.574  12.742 -0.3154 -0.3551  0.1047
31504W        W48351   4.978   2.001  11.441 -0.0830  0.4042  0.0581
31505W        W48352  13.546   6.982   1.235 -0.0828 -0.1502  0.1096
31506W        W48353   0.989  19.039  11.159 -0.2711 -0.0453 -0.1935
31507W        W48354   7.460   4.885   0.027  0.2289  0.1546 -0.1183
31508W        W48355  18.504  11.920   2.935  0.0975 -0.0112  0.1625
31509W        W48356   2.181   1.792   3.017  0.0353 -0.0929 -0.1472
31510W        W48357  10.933  13.837  11.604  0.1282 -0.0604 -0.1617
31511W        W48358   4.927   6.624   0.570  0.0709  0.2635 -0.3186
31512W        W48359   1.465  16.146  13.673 -0.2410  0.0536 -0.2277
31513W        W48360  17.471   1.878  11.158 -0.0018  0.3868 -0.1550
31514W        W48361  10.198   4.292   0.667  0.2481  0.1416 -0.0677
31515W        W48362  17.791   9.287  11.402 -0.2134  0.1820  0.1410
31516W        W48363   8.204  13.421   0.843  0.1196  0.2663 -0.0109
31517W        W48364  15.271   8.749   4.616  0.4399 -0.1963 -0.0044
31518W        W48365   7.444   6.577  13.609 -0.3108 -0.0522 -0.2176
31519W        W48366   1.855   9.330   9.788 -0.0239 -0.1415  0.1290
31520W        W48367  14.466   4.415   5.398  0.0518 -0.0205 -0.4233
31521W        W48368  13.808  15.361  11.046 -0.1389  0.1385  0.0989
31522W        W48369  18.074  19.436  10.595 -0.3120 -0.1946 -0.3347
31523W        W48370  17.653   5.911  11.121 -0.1757  0.1755  0.3040
31524W        W48371  10.804   2.960   4.394 -0.0618  0.0840 -0.2861
31525W        W48372  10.213   2.558   1.741  0.1950  0.0888  0.0070
31526W        W48373  17.176   0.213   4.080  0.2851  0.0012 -0.1056
31527W        W48374   9.392   8.635  11.403  0.1962 -0.0859 -0.0895
31528W        W48375   4.164  13.231   4.783 -0.0464  0.1674 -0.0063
31529W        W48376   8.635   8.408   2.756  0.1611 -0.0864 -0.2814
31530W        W48377   1.538  11.963  14.052 -0.0305  0.1483  0.2344
31531W        W48378   0.980   4.534   0.398 -0.0411 -0.1756 -0.2532
31532W        W48379   8.416  11.237   3.799  0.2422  0.2602 -0.0171
31533W        W48380  14.967  19.863   1.338 -0.1567  0.0536 -0.3659
31534W        W48381  10.502  19.158   2.390 -0.0658 -0.3330 -0.3680
31535W        W48382  10.410  16.834   4.171  0.2446 -0.1211  0.1608
31536W        W48383  10.421   4.306   3.396 -0.0324 -0.2960  0.1105
31537W        W48384   7.533   0.531  11.607  0.0627  0.2590  0.3090
31538W        W48385   2.726  13.018  10.520  0.1707 -0.2706  0.2659
31539W        W48386   1.789   8.660   0.198  0.0253  0.2137 -0.1385
31540W        W48387  15.352   8.093  14.241 -0.1647 -0.3900  0.3415
31541W        W48388   4.542   4.424   3.944 -0.0559 -0.2758 -0.0153
31542W        W48389   3.395   5.462  13.299  0.4056 -0.0528  0.4859
31543W        W48390  13.756   8.107  10.019 -0.1649 -0.0196  0.0468
31544W        W48391  11.081   2.836  13.080 -0.0401 -0.1789 -0.3259
31545W        W48392   2.228  15.965   3.499  0.0667  0.1264 -0.2945
31546W        W48393  15.343   2.135   4.791 -0.1342 -0.0723 -0.0401
31547W        W48394  19.118  15.896   9.948 -0.0555  0.1659  0.0922
31548W        W48395  15.415  16.905  12.227 -0.0735 -0.0927 -0.0618
31549W        W48396  13.739   2.348  13.272 -0.4246  0.0945 -0.2691
31550W        W48397  10.364   2.578  12.406 -0.1226  0.2386  0.1712
31551W        W48398   5.005   1.249   9.603  0.2515  0.0313 -0.0091
31552W        W48399   3.505  14.046  11.854 -0.1467  0.2923 -0.0063
31553W        W48400   9.056   5.677   1.567  0.0265  0.2748  0.2600
31554W        W48401  15.083  18.764  11.458  0.0974 -0.0068  0.0982
31555W        W48402   3.741  13.146  13.367 -0.0335  0.3301  0.4058
31556W        W48403  14.703  18.261   2.726  0.0752  0.1110  0.5145
31557W        W48404  13.343  15.568   2.427  0.2873 -0.3270 -0.3102
31558W        W48405  13.417  14.885  10.434 -0.2487  0.3068 -0.3474
31559W        W48406  17.443  12.379  11.151 -0.0349 -0.1959  0.0412
31560W        W48407  19.873  11.143   2.224 -0.0433  0.4522 -0.0525
31561W        W48408   3.206  18.169  14.139  0.0199  0.0432 -0.2915
31562W        W48409  12.487   2.160  11.173  0.1167 -0.0757 -0.1773
31563W        W48410  17.106   2.698   3.304  0.1247 -0.2728  0.1040
31564W        W48411   7.145   2.886  12.499 -0.3448  0.0669 -0.2470
31565W        W48412  11.103  16.927  12.873  0.1770  0.2409  0.1539
31566W        W48413  11.123   1.429   3.805  0.2625 -0.0856 -0.0594
31567W        W48414  10.116   1.126  12.071  0.1510  0.0307 -0.0907
31568W        W48415   5.746   0.637   4.052  0.1436 -0.1204 -0.1649
31569W        W48416  17.214  14.064   4.348 -0.1979  0.1759 -0.2146
31570W        W48417  17.346  18.457   1.370  0.2123 -0.3716 -0.1675
31571W        W48418   1.492   4.041   3.617  0.0273  0.2796 -0.0467
31572W        W48419  16.440  16.817   0.085  0.1310 -0.0590  0.0425
31573W        W48420   9.304   6.357  12.306  0.3805  0.1138 -0.0478
31574W        W48421   6.191  14.442   1.541  0.0811 -0.1993 -0.1939
31575W        W48422  18.669   1.689  10.177 -0.2239 -0.1279  0.4948
31576W        W48423   7.036  13.552   3.190  0.0212  0.0065 -0.1868
31577W        W48424   1.040   7.121  11.439  0.1215  0.1287  0.0843
31578W        W48425  19.261   2.676   0.340  0.0554  0.0610 -0.1138
31579W        W48426   9.396  19.169   4.199  0.2721  0.1534  0.1391
31580W        W48427   1.481   6.654   4.522  0.1983 -0.1327 -0.1658
31581W        W48428   2.564   0.429  11.741  0.4835 -0.0127  0.1908
31582W        W48429   3.190  15.136  13.010  0.1928  0.2877  0.1914
31583W        W48430  14.205  13.458  10.545 -0.1330 -0.0582 -0.2016
31584W        W48431   6.546  19.232   2.317  0.2419  0.1627 -0.2792
31585W        W48432  13.938   6.658   3.677 -0.4731 -0.1819  0.1140
31586W        W48433  17.736   4.525  11.587 -0.0216  0.2463 -0.2391
31587W        W48434  11.550  13.721   4.589  0.1073 -0.1449  0.0552
31588W        W48435  10.642   5.058   5.284  0.2437 -0.1405  0.2442
31589W        W48436  10.527   6.649  10.326  0.0534  0.0231  0.0304
31590W        W48437  15.830  10.476  14.032  0.2168  0.1536  0.2076
31591W        W48438   9.105  15.920   0.798  0.1312  0.1107  0.1636
31592W        W48439  12.107  12.852  10.575 -0.1380  0.2997  0.2610
31593W        W48440  18.196  18.830   1.439  0.0527 -0.0416 -0.2726
31594W        W48441   1.401   0.487  13.122  0.0819 -0.0881  0.0205
31595W        W48442   1.274  11.653  12.601  0.0758 -0.0590 -0.1908
31596W        W48443  17.491   0.578   4.311 -0.2432  0.0212 -0.1109
31597W        W48444   5.002   1.346   2.132  0.3137 -0.1763  0.2751
31598W        W48445  19.001   9.681  10.147 -0.0793 -0.1543  0.2416
31599W        W48446   9.090   6.838  12.493  0.1050 -0.0319 -0.0942
31600W        W48447   5.184   4.263   1.096 -0.4963  0.0609  0.0884
31601W        W48448   7.574   7.727  11.257  0.0718 -0.1897  0.0382
31602W        W48449  15.494  19.346  12.528  0.0191 -0.1597 -0.0380
31603W        W48450   3.931   9.793  11.494  0.1173  0.1654 -0.1115
31604W        W48451  12.276   4.153   9.291  0.1385 -0.1576 -0.1371
31605W        W48452   5.148   6.429  11.611  0.0996 -0.2904  0.0698
31606W        W48453  18.547  15.697   2.511 -0.4169  0.1710 -0.1654
31607W        W48454   8.063  16.374   4.105 -0.3834 -0.1472  0.1763
31608W        W48455   5.767  11.884  13.960  0.0156 -0.2842 -0.0728
31609W        W48456   0.550  17.617   1.526 -0.0244 -0.2013  0.1377
31610W        W48457  11.542  15.185   4.059 -0.0157 -0.1004 -0.0685
31611W        W48458   6.755  13.977   0.735  0.0804  0.0492 -0.3847
31612W        W48459   5.299   3.323   1.250 -0.1005 -0.0563  0.4766
31613W        W48460  11.136  14.834  11.439 -0.2750  0.2115  0.1506
31614W        W48461   3.180   5.666   1.702 -0.0281 -0.1663  0.1120
31615W        W48462  11.008  12.391  12.186 -0.4870  0.0882 -0.0836
31616W        W48463  10.475  14.167   1.053  0.0567  0.1592 -0.0744
31617W        W48464  10.705  14.284   0.045 -0.0853  0.0305 -0.0720
31618W        W48465   2.323  11.200   1.116  0.0903  0.3476  0.3884
31619W        W48466  18.973   6.899  10.507  0.1541 -0.1305  0.0797
31620W        W48467   1.984  19.640   2.940 -0.0250 -0.1635  0.1554
31621W        W48468  10.941   4.947   4.188  0.0040  0.2246  0.2074
31622W        W48469  15.307  12.774  11.236  0.1650 -0.2134 -0.0225
31623W        W48470  10.925   0.736  10.928  0.2103  0.0717  0.1653
31624W        W48471   2.700  19.277   0.983 -0.2357 -0.0092  0.1036
31625W        W48472   4.730  18.037  14.262  0.1063 -0.2637 -0.1510
31626W        W48473   5.639  11.209  11.049  0.0412 -0.0806 -0.2088
31627W        W48474  13.288   1.529   2.666 -0.0415 -0.1584  0.0532
31628W        W48475  19.462   9.337  12.301  0.2204  0.0940  0.0636
31629W        W48476  11.330   0.382  11.891  0.2035 -0.2846 -0.0422
31630W        W48477  18.613  10.758   2.929  0.1302  0.2725  0.1180
31631W        W48478  11.537   5.108   2.581 -0.1324 -0.0961  0.0723
31632W        W48479   2.483   1.128  10.388  0.1166  0.1311  0.1519
31633W        W48480  16.471  10.023   1.092  0.1996 -0.2952  0.0402
31634W        W48481  14.842   7.156   4.599  0.3537  0.0937 -0.0790
31635W        W48482   4.630  16.999  13.741  0.3052  0.2370 -0.3381
31636W        W48483  11.113   1.257   1.400  0.0952  0.1538 -0.0203
31637W        W48484   2.370   1.096   0.331 -0.0202  0.1597 -0.1210
31638W        W48485  14.105   8.201  10.360 -0.1649  0.3157 -0.1372
31639W        W48486   6.944  12.970   1.638  0.0557 -0.0700 -0.3525
31640W        W48487   7.894   5.465   4.802  0.0942  0.4666 -0.0076
31641W        W48488   0.991   9.856   0.293 -0.1470 -0.0909  0.4779
31642W        W48489   2.526  16.279   4.709 -0.2198 -0.0814 -0.0028
31643W        W48490   4.725  15.815   9.838  0.0588  0.4724  0.1961
31644W        W48491   3.530  14.541   1.806  0.0447 -0.2012 -0.2212
31645W        W48492   3.151  19.354  11.378 -0.2854 -0.0164 -0.0319
31646W        W48493   2.138   8.745  11.654 -0.0501 -0.0298  0.2480
31647W        W48494  18.873  18.138   4.799  0.0697 -0.1337 -0.1476
31648W        W48495  10.400  10.171  10.592  0.0485  0.1263  0.0286
31649W        W48496   5.299  15.707  11.063 -0.1047 -0.1131  0.0505
31650W        W48497   0.454   8.332   8.852  0.0848  0.1907 -0.1591
31651W        W48498  19.427  14.434  11.235 -0.0889  0.1389 -0.0552
31652W        W48499   3.776   7.888   1.362  0.1838  0.0730  0.0092
31653W        W48500   3.157   8.613  12.419 -0.1593 -0.0405 -0.3598
31654W        W48501   8.427  12.572   4.168  0.1094  0.0201 -0.6096
31655W        W48502  14.438   8.164  13.006 -0.3521 -0.1553 -0.2388
31656W        W48503  18.472  18.134   1.960 -0.0346  0.2353  0.1321
31657W        W48504   4.931   9.830   2.766 -0.1377  0.1141 -0.1998
31658W        W48505   7.028  10.629   1.068 -0.0610 -0.2107  0.1260
31659W        W48506   2.044   9.867  11.444  0.2000 -0.0132  0.3042
31660W        W48507   0.061   3.013   2.102 -0.3227  0.2694  0.0637
31661W        W48508  16.221   5.162  11.596  0.0270  0.0651 -0.4000
31662W        W48509  10.502   6.848  12.894 -0.1597 -0.2654 -0.3293
31663W        W48510  13.494  16.334  14.073 -0.0530 -0.3052 -0.3100
31664W        W48511   9.778   0.018   1.926 -0.1215 -0.1184 -0.0397
31665W        W48512  11.516   5.694   1.042 -0.1457  0.0746  0.0877
31666W        W48513  13.484   4.744  10.842  0.4121  0.1143 -0.1580
31667W        W48514   6.797   3.419   4.135 -0.1826 -0.0828  0.2499
31668W        W48515  12.061  11.920   0.851  0.0837 -0.2438  0.2276
31669W        W48516  16.427  15.208   3.751 -0.0508  0.2054  0.2599
31670W        W48517   1.715   0.982   1.104 -0.0503 -0.0448  0.1383
31671W        W48518   3.259  10.981  13.744 -0.0033  0.0661  0.1429
31672W        W48519  11.160  17.508   1.734 -0.0644 -0.2618  0.1126
31673W        W48520   2.182  16.818   4.627  0.2118  0.3332 -0.2986
31674W        W48521   7.257  19.702  11.012  0.1670 -0.1455 -0.0829
31675W        W48522  12.987  17.819   4.991 -0.1021 -0.1638  0.2972
31676W        W48523   8.465  19.123   1.546 -0.1450 -0.2669 -0.0498
31677W        W48524   3.178  11.041   4.262 -0.0683 -0.0402 -0.1718
31678W        W48525   2.752   1.637   3.835  0.2002  0.1195 -0.1256
31679W        W48526  13.901  10.267   0.274 -0.3255  0.1457  0.0788
31680W        W48527  18.486   5.535   4.153 -0.0724 -0.1624  0.2386
31681W        W48528   4.775  15.105  11.396 -0.0805  0.2379 -0.2491
31682W        W48529  17.656  10.601   2.402 -0.0478 -0.2811 -0.0876
31683W        W48530   8.696   6.443   3.703  0.1945  0.3370 -0.1602
31684W        W48531   9.525  18.099   0.633 -0.2525  0.0918  0.4413
31685W        W48532  14.139  15.202  13.243  0.2198  0.2105  0.1621
31686W        W48533  16.371  10.362   4.436  0.2981  0.4246 -0.0454
31687W        W48534   9.632   7.112   2.487  0.0953 -0.2838  0.2015
31688W        W48535   4.854   6.463   9.966  0.1228 -0.0394 -0.0503
31689W        W48536   8.820   1.941   3.869 -0.1653  0.0070  0.1654
31690W        W48537   8.308  15.189   0.247  0.1090  0.1265 -0.1621
31691W        W48538   9.176  10.459   2.432  0.1762  0.1809 -0.0256
31692W        W48539  11.617   3.053  12.919 -0.1091  0.0290  0.0002
31693W        W48540  12.366  14.910  12.835  0.0503  0.0405 -0.0440
31694W        W48541  10.121  16.017  10.444  0.3150  0.1405 -0.2112
31695W        W48542   3.336   9.199  11.195  0.3127  0.0216  0.1458
31696W        W48543   8.417   7.924  13.590  0.1751  0.1480 -0.1324
31697W        W48544   2.885  11.883  12.623 -0.0048 -0.0510  0.4872
31698W        W48545   5.582   0.365   3.503 -0.0263  0.2228  0.1348
31699W        W48546   2.373   3.531  10.351 -0.1983 -0.0825 -0.0328
31700W        W48547   2.628   8.144  12.677 -0.1253 -0.0102 -0.2822
31701W        W48548  13.002  14.088  10.075 -0.2167 -0.0350  0.0123
31702W        W48549   1.113   0.663   3.219 -0.2288 -0.0056  0.0642
31703W        W48550  16.319  11.988   2.224  0.1823  0.1042  0.2941
31704W        W48551  11.135   0.303  10.839 -0.1430  0.3158  0.2651
31705W        W48552   0.769  11.177  12.068 -0.6592 -0.0666  0.3808
31706W        W48553   9.068  15.035   3.732  0.1301  0.0718  0.0173
31707W        W48554  16.675   7.709   2.079 -0.2481  0.1379 -0.0916
31708W        W48555   9.601   4.360   5.076  0.0158  0.3123  0.3375
31709W        W48556   3.037   5.880  11.400 -0.0385  0.0669  0.0796
31710W        W48557   3.345  13.165  13.852  0.5204 -0.2130 -0.0297
31711W        W48558   4.782  14.336   2.328  0.2068  0.4605  0.3280
31712W        W48559   3.029   0.514  10.468  0.1427  0.0361  0.1044
31713W        W48560   0.171   2.150  13.849 -0.0587  0.2429  0.1896
31714W        W48561   4.962  16.443  10.639 -0.0907  0.0994  0.0856
31715W        W48562  13.595  17.827   4.562  0.3256 -0.1553  0.0198
31716W        W48563  16.358   6.317   9.767 -0.0374  0.0162  0.2262
31717W        W48564  10.591  11.326   3.497 -0.1852  0.3618  0.2628
31718W        W48565  12.909   6.764   0.904 -0.1494 -0.1072  0.0447
31719W        W48566  13.354   1.284  11.365  0.0775 -0.4248  0.2092
31720W        W48567   1.730  19.145   0.058 -0.2011  0.1692 -0.6322
31721W        W48568  15.926  14.633   1.801 -0.1604 -0.2101 -0.2677
31722W        W48569  10.001   1.619  11.010 -0.0061 -0.3311  0.0164
31723W        W48570   9.401   9.384   0.031  0.0523 -0.4106 -0.0549
31724W        W48571   6.955  17.362   1.538 -0.6325 -0.1216  0.1633
31725W        W48572   2.966   5.033  10.486  0.0945  0.0580  0.0279
31726W        W48573   4.514   1.584  14.092  0.0682  0.3770  0.0117
31727W        W48574  12.279  10.356  11.621 -0.0125 -0.2903 -0.1802
31728W        W48575  15.514  14.049   2.241 -0.0588 -0.3394 -0.0571
31729W        W48576  13.584  17.232   0.625  0.1664  0.1312 -0.0472
31730W        W48577   3.625  15.144  10.555  0.2478  0.1706 -0.5800
31731W        W48578  18.353  14.811   1.130  0.2070 -0.1138  0.2349
31732W        W48579   3.259  18.942   9.679  0.0119  0.3111 -0.2177
31733W        W48580  10.278  12.564   1.431  0.2914  0.0989  0.2609
31734W        W48581  12.949   0.622   0.876  0.0533 -0.0691 -0.0360
31735W        W48582  13.033  10.496   0.979  0.2612  0.0786  0.1873
31736W        W48583  15.730  10.696  11.949 -0.2162 -0.0970  0.2806
31737W        W48584  11.729   8.682  13.697 -0.0422  0.1831 -0.2069
31738W        W48585  14.456  14.964  13.630 -0.1786 -0.3708  0.2556
31739W        W48586  19.015  18.635  10.988 -0.5012 -0.1116 -0.2149
31740W        W48587  12.974   8.240  14.077  0.0576  0.1196 -0.2931
31741W        W48588   5.034  16.262   2.694  0.2635  0.3074 -0.0718
31742W        W48589  13.332   4.208   2.862  0.0714  0.3046  0.1110
31743W        W48590   1.545   7.093   2.019 -0.0818 -0.0599 -0.2209
31744W        W48591  11.777   0.888   2.638  0.0360  0.0471 -0.0508
31745W        W48592  16.846   8.164  12.197 -0.1373 -0.4650 -0.1772
31746W        W48593   1.976  19.606   4.243 -0.1369 -0.1050 -0.0530
31747W        W48594   8.581   4.102   0.200 -0.1935 -0.1149 -0.0168
31748W        W48595  16.616  12.762   4.123  0.3308  0.2982 -0.1191
31749W        W48596  14.521  17.706  12.142 -0.2903 -0.1476  0.1084
31750W        W48597  18.374  19.707   1.111  0.0040  0.2214 -0.0222
31751W        W48598   4.141   9.586   1.270  0.2265  0.0201  0.1750
31752W        W48599   8.505  19.828   9.577  0.0377  0.1212 -0.0784
31753W        W48600   5.288   1.775  12.392 -0.0547  0.1084 -0.1434
31754W        W48601  17.388  19.851   2.045  0.0284 -0.1946 -0.0731
31755W        W48602  10.808  13.908   4.973  0.4513 -0.2475 -0.0531
31756W        W48603  19.184  12.417   4.967 -0.0546 -0.4045 -0.0153
31757W        W48604  11.079  17.708  13.420 -0.1176 -0.1682  0.2515
31758W        W48605  15.793   8.071  12.344 -0.3153 -0.1336 -0.1114
31759W        W48606  13.489  18.867   2.139 -0.2229 -0.1034 -0.1024
31760W        W48607   9.253   4.084   0.926 -0.1430  0.3288  0.4995
31761W        W48608  11.105  14.709   4.635 -0.1850 -0.1737  0.3059
31762W        W48609   5.389   3.700   2.665  0.2488 -0.2705  0.0096
31763W        W48610  10.755  18.453   3.585  0.0974  0.0285  0.0557
31764W        W48611  15.865  11.996  11.291 -0.0643  0.2224  0.0183
31765W        W48612   2.619  14.952  12.326 -0.2786  0.0095  0.0426
31766W        W48613   5.271  19.563   0.241 -0.0007 -0.0445 -0.0343
31767W        W48614  13.830   4.747   4.188 -0.3663  0.0552 -0.0149
31768W        W48615  16.088   6.300   3.906 -0.0780  0.1795  0.2865
31769W        W48616  19.731  19.011   2.522 -0.0936  0.0098  0.2959
31770W        W48617  16.794   9.556  13.962 -0.1516  0.0790  0.0994
31771W        W48618   4.442   9.114   1.874 -0.0460  0.3030  0.0067
31772W        W48619   6.357   8.487  11.020  0.0015 -0.0985 -0.2192
31773W        W48620   3.294   1.512   3.089  0.0007 -0.0130 -0.0454
31774W        W48621  12.550   5.592   3.380  0.2279  0.1617 -0.1835
31775W        W48622  16.535  12.862  12.397  0.4264 -0.2771  0.0565
31776W        W48623  18.984   4.017   0.868 -0.0670  0.4675  0.0489
31777W        W48624  14.994   9.441  11.247 -0.1400 -0.2718  0.1799
31778W        W48625  18.367   3.530  13.864 -0.0022 -0.0583  0.1916
31779W        W48626   9.182  12.187   1.295  0.0347  0.1741  0.0585
31780W        W48627   9.738   8.105  12.209 -0.0125 -0.2318  0.0284
31781W        W48628  18.474   0.491  11.497 -0.2192 -0.1022  0.0712
31782W        W48629   4.955  18.344   1.530  0.1784  0.1765 -0.1818
31783W        W48630  11.832   3.788  13.739 -0.0028  0.1445  0.4225
31784W        W48631  11.425  17.897  14.261  0.1996 -0.1034 -0.0337
31785W        W48632  17.146  14.298   3.072  0.2597 -0.2910  0.1395
31786W        W48633  19.767  18.355  10.175 -0.0681 -0.1743 -0.0011
31787W        W48634  15.554  17.204  11.793 -0.0371 -0.0043 -0.2613
31788W        W48635  11.359   3.678  12.472 -0.0541  0.1075 -0.1546
31789W        W48636  16.278   1.963  13.299 -0.1989 -0.0480  0.1515
31790W        W48637   3.293   9.742  11.499 -0.0587 -0.1371  0.0019
31791W        W48638  11.862   4.643   4.180  0.1173  0.0092  0.1883
31792W        W48639   9.677  15.271  12.357 -0.0097  0.2030 -0.0726
31793W        W48640   7.450  12.991   9.811 -0.1086  0.1649 -0.0378
31794W        W48641   6.194   7.316  14.195 -0.0793 -0.1643 -0.5764
31795W        W48642   7.343   2.426  11.418  0.1018 -0.2333  0.1430
31796W        W48643   4.866  18.256   9.517 -0.1241 -0.3408  0.1843
31797W        W48644   7.555  12.702   5.138 -0.0518 -0.1115 -0.0009
31798W        W48645  11.694   9.495  13.450 -0.4012 -0.1038  0.1879
31799W        W48646  12.591  14.013   3.926 -0.1512 -0.2290 -0.0616
31800W        W48647   1.945  13.032  10.656  0.2324 -0.1990 -0.1031
31801W        W48648   2.333   1.856   3.868 -0.0108  0.0877 -0.1640
31802W        W48649  11.416  14.767  12.737 -0.0491  0.1622  0.1034
31803W        W48650  17.206   3.516  10.289 -0.2635 -0.1678 -0.1451
31804W        W48651   0.014  13.831   2.964  0.1490 -0.0847 -0.1899
31805W        W48652   3.290  11.848  12.231  0.1932  0.1893 -0.0372
31806W        W48653   5.271   7.540   2.908 -0.0180 -0.0520 -0.2664
31807W        W48654  17.576  12.764   9.529 -0.5086 -0.1079  0.2521
31808W        W48655  14.430  12.392  11.681 -0.0732 -0.1463  0.3363
31809W        W48656  19.106  12.496  14.005 -0.3765 -0.0928 -0.0996
31810W        W48657   5.878  19.899   2.324  0.1113  0.1124 -0.2118
31811W        W48658  17.959  15.419  13.145 -0.2502 -0.1809  0.1245
31812W        W48659  16.562  12.110  12.277 -0.0217 -0.3160 -0.1091
31813W        W48660   2.085   7.876  12.029  0.1022 -0.2504 -0.1245
31814W        W48661  15.566  13.162  11.590  0.3307  0.2026  0.2551
31815W        W48662   2.391   4.216  14.240  0.4499  0.1136 -0.2430
31816W        W48663   9.569  11.369   4.872  0.1953 -0.1852  0.1178
31817W        W48664  16.974   1.329  13.032  0.0726  0.2086 -0.0101
31818W        W48665  12.208   5.185  14.199  0.1024  0.4872 -0.1925
31819W        W48666  10.043   6.694  10.027  0.2058  0.0536 -0.0397
31820W        W48667  10.101  13.074   1.469  0.0688  0.4462  0.1340
31821W        W48668  13.863  19.242   1.477  0.1165 -0.0352  0.1060
31822W        W48669   3.042  10.387   3.059  0.1823  0.0926  0.1451
31823W        W48670  13.708  10.580   2.887 -0.1542 -0.2002  0.0203
31824W        W48671  14.243  16.892  13.399 -0.5260  0.1395 -0.0572
31825W        W48672  19.622   4.761  13.315  0.1814  0.2692 -0.1753
31826W        W48673   2.491   9.576   2.268 -0.0426  0.0760  0.3134
31827W        W48674   7.977  12.341   3.871  0.2871 -0.1190 -0.2210
31828W        W48675  15.097  16.696   0.812 -0.2555  0.3948  0.0693
31829W        W48676   1.416   9.112  13.213  0.1856  0.0450  0.1753
31830W        W48677   7.620  14.601   2.843 -0.0768  0.0971  0.2555
31831W        W48678  18.121  19.119  11.020  0.2063 -0.2142  0.1149
31832W        W48679  16.741   6.696   1.024  0.1616 -0.0947 -0.1302
31833W        W48680  15.388   2.411  14.026  0.3323  0.1337 -0.2609
31834W        W48681  16.845  12.230   0.592 -0.0730  0.2363 -0.0217
31835W        W48682   2.286   8.072   4.969 -0.2159 -0.0256 -0.0955
31836W        W48683   8.441   8.844  12.494 -0.1226 -0.2027  0.0381
31837W        W48684  19.835   7.909  14.029  0.1476 -0.3003 -0.0799
31838W        W48685  11.185  17.025   1.603  0.1144 -0.1642  0.1019
31839W        W48686   8.771   0.243   0.912 -0.5859  0.1486  0.4787
31840W        W48687  15.437   9.854  10.497 -0.0123 -0.2404 -0.0932
31841W        W48688   3.205  12.100  10.397  0.0386  0.1145  0.3306
31842W        W48689   7.733   6.864   4.722 -0.3585 -0.0393  0.0502
31843W        W48690   5.548   5.844  10.431  0.0149 -0.1204 -0.0303
31844W        W48691  18.061  19.889  10.471  0.0964 -0.1246 -0.0207
31845W        W48692  19.163  19.108  10.853 -0.0275  0.3226 -0.1298
31846W        W48693   3.995  17.962   0.612  0.0928 -0.3650  0.0685
31847W        W48694  17.485  16.031  13.568 -0.1167 -0.1916  0.1927
31848W        W48695  10.693  17.316  10.539  0.0207  0.3695  0.2941
31849W        W48696  10.179   4.206  11.662 -0.0885 -0.0157  0.0177
31850W        W48697   8.000   1.296  11.801  0.1054  0.0764  0.1664
31851W        W48698   0.464   1.467   1.312 -0.0652 -0.1400  0.3776
31852W        W48699  13.194  15.409  12.979  0.1254  0.1061 -0.1403
31853W        W48700  17.609  10.575   0.606  0.1713 -0.2565  0.2455
31854W        W48701  16.144   8.688   4.044  0.2052  0.0640  0.1268
31855W        W48702   6.379  19.118  10.387  0.1184 -0.0863  0.0851
31856W        W48703   9.524  11.488  13.364 -0.0685 -0.0931  0.0285
31857W        W48704   0.294  11.786  14.173  0.2404 -0.0861 -0.1283
31858W        W48705  11.969   8.641   2.029 -0.1251  0.1414 -0.0778
31859W        W48706  13.436   2.284  11.172  0.0373 -0.1909 -0.1252
31860W        W48707   2.524  15.337  10.039  0.0954 -0.0875  0.0853
31861W        W48708   0.667  13.340   1.764  0.1770 -0.1508 -0.1259
31862W        W48709  14.664  16.953   0.919 -0.1452 -0.1987  0.3727
31863W        W48710  16.055   9.186   4.072  0.1032  0.0371 -0.0591
31864W        W48711  19.369   8.346  13.719 -0.3028  0.2406  0.1632
31865W        W48712   7.239  18.949   9.612  0.0647 -0.2220 -0.3160
31866W        W48713  13.238  15.622   1.954 -0.3082  0.3990  0.0975
31867W        W48714  15.897  16.574  12.815 -0.1316  0.2457 -0.0506
31868W        W48715   4.420  11.982  12.980  0.2196  0.1575  0.2465
31869W        W48716   2.274  11.164   4.628 -0.2397 -0.2265 -0.0610
31870W        W48717   2.482   2.483  11.896  0.2728  0.0373 -0.2030
31871W        W48718   5.155  13.340   4.204  0.0720 -0.1246 -0.2074
31872W        W48719   6.200  13.302   0.959 -0.0424 -0.0504 -0.3252
31873W        W48720  12.451   3.949  10.172  0.3364  0.0424 -0.2913
31874W        W48721  11.149   2.148   9.307 -0.0208 -0.1148  0.1459
31875W        W48722  14.415   1.437   4.128  0.1215  0.2745  0.1745
31876W        W48723  10.452  18.295   2.808  0.3854 -0.2345  0.2744
31877W        W48724   2.029  10.110   1.372 -0.1331 -0.1736 -0.0604
31878W        W48725  15.147  19.380   3.477 -0.5080  0.1834 -0.1776
31879W        W48726  18.635   1.187  12.842 -0.0737 -0.2040 -0.1676
31880W        W48727  11.108  14.213  11.087  0.0426  0.0628 -0.1807
31881W        W48728   2.188  13.782  12.567 -0.0086 -0.2489  0.0178
31882W        W48729   3.921  17.598   2.990  0.3460 -0.1224  0.0324
31883W        W48730   6.876   5.586  10.934  0.1775 -0.1137  0.2136
31884W        W48731   6.740   7.801  13.353 -0.5034 -0.4620  0.1304
31885W        W48732   3.187  13.701   3.335  0.2844 -0.0317 -0.0419
31886W        W48733  17.336   1.440  13.380 -0.1296 -0.0100  0.1253
31887W        W48734  12.824   2.135   3.525  0.1589  0.3141 -0.1176
31888W        W48735  19.805   8.958   0.699 -0.2072 -0.0109  0.4680
31889W        W48736   9.717   4.687   9.964  0.1290 -0.1979 -0.0885
31890W        W48737  13.794  12.456   4.795  0.0804  0.0048 -0.1644
31891W        W48738  11.444  11.165   8.880 -0.0663  0.0447 -0.1549
31892W        W48739  15.258   3.284  12.012 -0.0617  0.0285 -0.2322
31893W        W48740  16.995   4.288   2.671  0.0560 -0.0017  0.1841
31894W        W48741  18.952   1.640  13.639 -0.3090 -0.1350  0.0690
31895W        W48742   7.597  17.362   4.280  0.0434  0.1513  0.3737
31896W        W48743  15.213  16.777   1.877  0.0323  0.2708 -0.0978
31897W        W48744  13.318  18.287   4.041  0.3308  0.0081 -0.0080
31898W        W48745  14.419  14.703   2.955  0.0390 -0.1057  0.3942
31899W        W48746  12.397   5.824   1.931  0.0022 -0.1330  0.0106
31900W        W48747  17.384   9.039   1.632  0.1791 -0.2583 -0.1740
31901W        W48748   5.536  16.530   9.402  0.4276  0.1711  0.1424
31902W        W48749   1.286  10.658   1.931 -0.0197 -0.1465 -0.0097
31903W        W48750   9.364  18.637   3.268 -0.3167  0.2222 -0.1354
31904W        W48751   5.144   3.514  11.192 -0.0977  0.1131  0.1205
31905W        W48752   1.574   4.701   3.038 -0.0358  0.0489  0.2926
31906W        W48753   0.125   8.694  11.527  0.3571 -0.0199  0.2994
31907W        W48754   9.322   7.338   2.800 -0.1036  0.1523 -0.0203
31908W        W48755  11.509  19.116   3.340  0.1431  0.2129 -0.1339
31909W        W48756  10.675  12.040   4.939 -0.2114  0.0546 -0.2225
31910W        W48757   4.528   5.612  10.486 -0.3936  0.3846 -0.1086
31911W        W48758   7.684   3.862   3.957 -0.1474 -0.2145 -0.4350
31912W        W48759  16.707   6.230  11.164  0.0873 -0.1812  0.0002
31913W        W48760  14.368  12.588   0.553  0.1534 -0.2728  0.0035
31914W        W48761   0.496   9.425  13.940 -0.0834 -0.1027 -0.1693
31915W        W48762   2.604  13.280   4.488 -0.2256  0.1677  0.0599
31916W        W48763  17.911  10.271  11.095 -0.2562  0.0987 -0.0906
31917W        W48764  13.353   5.096   1.807  0.0746 -0.0408  0.2493
31918W        W48765   9.353   9.439   3.615 -0.0625 -0.0723  0.1842
31919W        W48766  19.866  12.294   2.925 -0.1079 -0.1389  0.0820
31920W        W48767  14.394  13.735  10.912 -0.0514 -0.0391  0.2622
31921W        W48768   1.312  16.603   9.963  0.0826 -0.1595  0.1989
31922W        W48769  14.859   9.501   1.871  0.0558 -0.1705 -0.1167
31923W        W48770  12.283   7.675   1.367 -0.2121 -0.0848 -0.2404
31924W        W48771   0.840   3.040   4.899  0.2122 -0.2158 -0.0590
31925W        W48772  11.735   7.216  13.699  0.0850 -0.0936 -0.2182
31926W        W48773  12.490  17.221   4.107  0.0067  0.1703 -0.0939
31927W        W48774  15.340  15.583  11.456 -0.0791 -0.2173 -0.0225
31928W        W48775  15.969  16.049  14.205 -0.3639  0.1627 -0.2329
31929W        W48776   0.706   4.674  11.590  0.0996  0.1689 -0.3400
31930W        W48777   2.588   6.740   3.028 -0.0290  0.0463  0.0035
31931W        W48778  12.281  11.095  11.938  0.1162 -0.2011 -0.0109
31932W        W48779  14.791   3.286  10.387  0.3184  0.0575 -0.1293
31933W        W48780  19.609   6.918   3.912 -0.1177 -0.1800  0.2776
31934W        W48781   0.162  10.345   1.792 -0.2220 -0.0523 -0.0455
31935W        W48782   6.455  19.269   0.053 -0.2743  0.1146  0.2888
31936W        W48783   3.116  16.210  10.977 -0.0068 -0.0161 -0.1360
31937W        W48784  17.470   6.185  10.633 -0.0109  0.0673 -0.1277
31938W        W48785  12.766  16.793  13.980 -0.0575 -0.0855 -0.1562
31939W        W48786   0.813   4.402   1.664 -0.2436 -0.4306 -0.3559
31940W        W48787   6.238   8.525  10.095 -0.1642  0.0532 -0.0308
31941W        W48788  19.768   6.841  11.511 -0.0008 -0.1204  0.1803
31942W        W48789  13.999   8.632   1.208 -0.0202  0.0613 -0.1288
31943W        W48790  14.219   8.453   2.894  0.1848  0.1236  0.2974
31944W        W48791   2.158   1.808  14.149  0.3187  0.3357  0.1039
31945W        W48792   6.631  12.545  10.345  0.0377 -0.3695  0.0478
31946W        W48793  17.931  18.416   1.216 -0.0227  0.1208 -0.1314
31947W        W48794   1.147   7.694  13.849  0.0102 -0.2269 -0.0932
31948W        W48795   4.251  14.353  10.774  0.1253  0.1169 -0.1195
31949W        W48796   9.563  10.370   2.763 -0.0543 -0.1182 -0.0979
31950W        W48797  11.421   0.990  14.172  0.0151 -0.2244 -0.0212
31951W        W48798  16.512   1.749   3.044  0.2544  0.1710 -0.2527
31952W        W48799   7.792   1.139   4.241  0.1618  0.3468 -0.0204
31953W        W48800   4.131   7.326  10.158 -0.0106 -0.2345  0.1773
31954W        W48801  16.596  14.533   9.405 -0.1695 -0.0558 -0.1382
31955W        W48802  17.448   6.991   1.695 -0.0446 -0.1613 -0.3899
31956W        W48803  11.810  15.260  10.669  0.3213 -0.1666 -0.1614
31957W        W48804  18.833  11.263  10.633  0.1027 -0.0089 -0.3339
31958W        W48805  10.197   3.398   3.740 -0.0452 -0.0841 -0.3135
31959W        W48806   1.293  10.336   0.370 -0.0439 -0.0639  0.2422
31960W        W48807   1.190  13.386  12.071 -0.0606  0.2404  0.3138
31961W        W48808  18.431  12.346  10.377 -0.0842 -0.1958  0.2245
31962W        W48809  15.365   2.305   1.333  0.0331  0.2430 -0.1621
31963W        W48810  18.415  16.805   3.449 -0.1667  0.2757 -0.1731
31964W        W48811   9.131   2.898  14.067  0.1383  0.0384  0.0642
31965W        W48812  11.722   9.709   3.749  0.0009 -0.1583  0.3150
31966W        W48813   3.085  18.382   8.790  0.0494  0.0594 -0.2087
31967W        W48814   5.008   0.033   0.609  0.0086 -0.3000  0.5217
31968W        W48815  11.377  16.975  13.854 -0.1511  0.0735  0.0386
31969W        W48816  13.685   7.094  13.156  0.2204 -0.2660  0.1282
31970W        W48817   3.195  18.419   2.315  0.2264  0.1801 -0.1084
31971W        W48818  12.478   4.785  14.024  0.2355  0.1942  0.0452
31972W        W48819   2.650   7.314   9.732  0.2154  0.1904 -0.0358
31973W        W48820   2.006   6.681   0.735  0.0821  0.0682  0.0604
31974W        W48821   8.968  17.377  11.052  0.1604 -0.2587  0.0946
31975W        W48822   4.544  12.485   9.379 -0.4792 -0.1840  0.2510
31976W        W48823  10.846  16.180  11.143 -0.1280 -0.5433 -0.0627
31977W        W48824  11.343   4.202   8.689  0.0220  0.2534 -0.1215
31978W        W48825   2.108   9.194   1.881 -0.1407  0.0418 -0.0506
31979W        W48826  18.879   9.724  11.498 -0.2764  0.2162 -0.2950
31980W        W48827  18.976   0.368   3.822  0.0376 -0.4227 -0.2694
31981W        W48828  16.957   4.576  11.339  0.0930  0.3854 -0.1511
31982W        W48829   2.478  19.389   2.998  0.0465  0.1103  0.2981
31983W        W48830   0.137  12.112  10.533  0.1812  0.1519  0.1217
31984W        W48831   6.151   9.464   2.865  0.0830 -0.0024  0.1562
31985W        W48832  14.213   8.630  10.855  0.2869  0.2396  0.0613
31986W        W48833  14.431  15.662  13.233 -0.2026 -0.1513 -0.1855
31987W        W48834   9.850  19.288   4.364  0.0710  0.0374 -0.1654
31988W        W48835  10.240  10.807   4.241 -0.1053  0.0290  0.0273
31989W        W48836  19.242  10.161  10.090  0.0159  0.1969  0.3163
31990W        W48837   3.661   9.349  11.565 -0.1694 -0.1476 -0.0042
31991W        W48838  18.181   0.952   0.017  0.0953 -0.2397 -0.2896
31992W        W48839  15.872   8.769   2.732  0.1238  0.1036 -0.2133
31993W        W48840  11.226  12.412   4.309  0.2928 -0.0116  0.2239
31994W        W48841  12.213   0.014  13.407 -0.1184  0.1209  0.1545
31995W        W48842   2.240   3.948  10.665  0.0963  0.0356 -0.1588
31996W        W48843  19.872  19.452  10.230  0.2189  0.0970  0.0867
31997W        W48844   7.029  12.552   2.967 -0.1354  0.3914 -0.2470
31998W        W48845   6.494   4.404   2.604  0.0908  0.4350  0.2011
31999W        W48846  18.650  18.297  10.413  0.0928  0.1541  0.1742
32000W        W48847  14.930   0.912  11.107  0.0167  0.1844  0.0736
32001W        W48848   1.559   0.460   4.623  0.0192  0.0040  0.0622
32002W        W48849  14.894  19.146   1.318  0.3809 -0.0898 -0.1789
32003W        W48850   3.750  19.225   2.472 -0.0668  0.1903  0.3634
32004W        W48851   9.627   6.681  10.748  0.2236  0.0612  0.3431
32005W        W48852   8.397  11.020  10.292  0.1021  0.0939 -0.1491
32006W        W48853   4.377   2.440   4.142 -0.1031 -0.2802  0.0081
32007W        W48854   9.436  13.368   2.484  0.2777 -0.0439  0.0268
32008W        W48855  12.448   2.657  11.321  0.0981  0.0217  0.2716
32009W        W48856   6.519  10.483   0.266 -0.1967  0.0027 -0.3524
32010W        W48857   2.795   0.027  12.272 -0.0807  0.0133 -0.1762
32011W        W48858  16.933  18.217   4.795 -0.3898 -0.1017  0.0187
32012W        W48859  19.269  12.217   4.558 -0.1221  0.0774  0.1796
32013W        W48860  16.243   2.200   3.267 -0.0602 -0.0437 -0.0594
32014W        W48861  10.596   4.293   2.912  0.0958  0.1120  0.0554
32015W        W48862  13.333   6.531   4.970 -0.0515 -0.1815 -0.2927
32016W        W48863  19.264  15.277   1.080  0.0159 -0.1247  0.1882
32017W        W48864   8.257   2.770   1.454  0.7201  0.1047  0.1017
32018W        W48865   7.683   2.603  12.267  0.0195  0.2349  0.1794
32019W        W48866  15.490  15.870   3.098 -0.0339  0.0959  0.0630
32020W        W48867   0.317  19.295  11.138  0.1632  0.2493 -0.2966
32021W        W48868  17.482   0.255   4.757  0.1616 -0.0106  0.1305
32022W        W48869   4.175  13.907   3.651  0.0880  0.1091  0.0372
32023W        W48870   0.658   8.685   1.036 -0.0263  0.4833  0.2569
32024W        W48871   4.836   6.322   9.210  0.0919  0.2725 -0.0679
32025W        W48872   6.426   8.401   4.454 -0.0651 -0.0555  0.1612
32026W        W48873   9.251  17.859  12.564 -0.1189  0.1993  0.0265
32027W        W48874  12.208   7.485   2.661 -0.0785 -0.3549  0.0114
32028W        W48875   6.767   9.036   0.506  0.2521 -0.2833  0.1354
32029W        W48876   4.706   5.617   2.776  0.0441 -0.1131 -0.0628
32030W        W48877   0.430   2.653   0.871  0.1820 -0.1239  0.2289
32031W        W48878   0.644   5.946   0.453 -0.1993 -0.2148 -0.1061
32032W        W48879   8.968   6.016   3.085 -0.0941 -0.3166  0.1481
32033W        W48880   1.321   7.168   9.436 -0.1904 -0.3896 -0.1300
32034W        W48881  16.203   2.686   3.573 -0.1468 -0.1906 -0.2914
32035W        W48882   7.329  19.420   4.112 -0.0968  0.2563 -0.0952
32036W        W48883  13.210  13.843   5.058  0.0824 -0.2438  0.0647
32037W        W48884   6.513  12.891   1.183 -0.0444 -0.0918  0.0217
32038W        W48885  18.033  12.635   1.333 -0.1002  0.0162  0.2941
32039W        W48886  19.720   3.570  14.015 -0.2391 -0.0516  0.3112
32040W        W48887   3.528   5.319  11.942 -0.1511  0.0922 -0.1473
32041W        W48888  18.242   4.720   3.514  0.1696  0.0533 -0.1256
32042W        W48889   4.188  17.899   0.005  0.0626 -0.0891  0.0836
32043W        W48890  15.828   9.584  10.287  0.1542  0.1094  0.0535
32044W        W48891  18.579   1.066   3.398 -0.1855 -0.2587 -0.4797
32045W        W48892  16.936  19.656   4.475 -0.0678  0.2355 -0.0116
32046W        W48893  10.593   1.064   0.768  0.0783  0.5549 -0.1673
32047W        W48894  17.129   0.732   0.638 -0.2383  0.4215 -0.2272
32048W        W48895  18.241  16.515  11.006 -0.0040  0.0404 -0.2354
32049W        W48896   0.144   6.321   0.929  0.1103  0.1577  0.0779
32050W        W48897  18.463  14.928   2.558  0.0813  0.1680 -0.3491
32051W        W48898   5.310   5.311   0.646  0.1429 -0.1301  0.3004
32052W        W48899  17.367  19.339  11.894  0.1679 -0.1163 -0.0069
32053W        W48900   9.597   1.388  11.201  0.0819  0.0594 -0.0587
32054W        W48901   5.902  12.496  14.194  0.2084  0.1244  0.0854
32055W        W48902  17.769   1.138   9.416  0.1844 -0.2269 -0.1842
32056W        W48903   9.099   8.282  11.236  0.0196 -0.0662  0.4393
32057W        W48904  12.420   9.003  11.088  0.0165 -0.1673  0.4382
32058W        W48905   9.347   3.667   0.623 -0.0231 -0.1146  0.0384
32059W        W48906  13.604  14.485   3.199  0.1002 -0.1510 -0.1438
32060W        W48907  17.041   0.456   4.668 -0.3402 -0.1980 -0.0059
32061W        W48908  10.820  12.108  10.695 -0.1213  0.2123  0.3447
32062W        W48909  10.683   2.684  13.302  0.0587 -0.2148 -0.1471
32063W        W48910  10.315  19.424  13.969  0.0626  0.0912 -0.2240
32064W        W48911   8.140  15.603   1.522  0.1896  0.0781 -0.2927
32065W        W48912   7.919  16.635  11.823  0.1941 -0.1277 -0.1307
32066W        W48913   2.826   8.954   4.791 -0.1897 -0.1724 -0.0061
32067W        W48914  18.501   1.859   3.947  0.4550  0.0336 -0.5995
32068W        W48915   6.992  13.772  13.173  0.0505  0.0230  0.0234
32069W        W48916  13.781   4.803  10.466 -0.1716 -0.0677  0.0626
32070W        W48917   9.987   7.392   2.686  0.1383  0.1459 -0.4493
32071W        W48918  13.981   6.695  12.445  0.1204 -0.0140  0.3865
32072W        W48919   7.438   7.155   2.520 -0.1080 -0.0045  0.3018
32073W        W48920  11.548  17.364   1.307 -0.1881 -0.1390  0.0813
32074W        W48921  16.969   2.142  11.763 -0.3907 -0.1070 -0.1428
32075W        W48922   9.484  16.551  11.393  0.2112 -0.0757  0.0114
32076W        W48923   8.753   5.664  12.554 -0.0929  0.0931  0.0660
32077W        W48924   4.364   0.683  14.300 -0.0925  0.0623  0.0653
32078W        W48925  11.818   4.889   1.974 -0.1682  0.4772  0.1009
32079W        W48926   0.346   3.420   3.269  0.1662 -0.1433 -0.0452
32080W        W48927  18.356   8.725   3.333 -0.0713  0.0870 -0.1268
32081W        W48928  15.982  13.718  12.569 -0.0117 -0.4797 -0.1771
32082W        W48929  12.577   1.947   1.037  0.2431 -0.1882 -0.1189
32083W        W48930   2.929   3.652   1.596 -0.1360  0.0397  0.1479
32084W        W48931  15.268  14.116   0.840 -0.0336 -0.1452 -0.4292
32085W        W48932   0.383  16.258  11.655 -0.0898 -0.0642 -0.2870
32086W        W48933  17.181   7.032  12.312  0.0667  0.1739  0.0107
32087W        W48934   8.928  12.394   4.834 -0.0412  0.0449 -0.1426
32088W        W48935   7.979  19.625   0.657  0.1274 -0.1630 -0.0902
32089W        W48936   3.921  13.497  11.246  0.2919 -0.4082 -0.0700
32090W        W48937   7.136  15.260  11.037  0.0047  0.0276 -0.0666
32091W        W48938   3.008  17.127  12.521  0.2298 -0.1359  0.0873
32092W        W48939  17.726   2.976  10.879  0.0766 -0.0015  0.0055
32093W        W48940   6.656   7.229   0.162 -0.1669  0.0456  0.1607
32094W        W48941   7.751   6.310  12.744  0.5726 -0.0823  0.3315
32095W        W48942  14.797   2.673   3.232 -0.1394  0.0585 -0.1731
32096W        W48943  15.742  18.467  11.007  0.0072  0.2495  0.0647
32097W        W48944   8.592  15.454  10.697 -0.2276 -0.0445  0.1350
32098W        W48945   5.487   2.980   4.847  0.1598 -0.0532  0.1717
32099W        W48946  11.283  14.682   1.671 -0.2982  0.0401  0.1450
32100W        W48947   9.049  15.068   4.692  0.0927 -0.0630  0.1786
32101W        W48948  16.004  15.941   3.385  0.0261  0.0491 -0.1460
32102W        W48949  11.756  14.412   2.846 -0.0799  0.3167 -0.4442
32103W        W48950  13.172   8.102  13.233  0.0729  0.0095 -0.1530
32104W        W48951  10.003   6.858  13.745 -0.1094  0.1632  0.2470
32105W        W48952   8.322   7.427  10.636 -0.0379  0.2872  0.0084
32106W        W48953  13.576   5.547   0.728 -0.0239 -0.1457  0.2730
32107W        W48954   5.922  17.023  11.266  0.2620 -0.2529  0.1313
32108W        W48955  15.328   9.098   0.728  0.0313 -0.0280 -0.2281
32109W        W48956  13.684  14.375  13.939 -0.3219  0.1389 -0.0946
32110W        W48957   7.522   0.820  10.028 -0.0579  0.2104  0.1516
32111W        W48958   3.015  12.974  11.351  0.0514 -0.2119 -0.2517
32112W        W48959  18.555   1.852   2.291  0.1976 -0.0624 -0.2944
32113W        W48960   1.835  10.104  10.564  0.1525 -0.0910  0.0292
32114W        W48961  11.332  16.278   2.039  0.1535 -0.0959  0.1741
32115W        W48962  11.712  13.274   4.506  0.3144 -0.0011  0.1992
32116W        W48963  17.291   4.686   2.683  0.1199  0.0419  0.0450
32117W        W48964  14.062  18.167   4.415 -0.3305  0.2230  0.0645
32118W        W48965   5.502  16.280  11.884 -0.1184  0.1702 -0.1824
32119W        W48966   0.074   2.072   4.531  0.0942  0.0536 -0.1340
32120W        W48967  13.029  19.122   1.980  0.1772  0.4406 -0.2457
32121W        W48968  13.020   7.961   2.655  0.3016  0.1445  0.4386
32122W        W48969   1.358   0.015  12.985 -0.4311  0.2384  0.3900
32123W        W48970  18.243  17.955   3.450 -0.1492  0.0488 -0.0194
32124W        W48971  15.122  12.007   1.910 -0.0018 -0.2415 -0.2399
32125W        W48972  17.359  11.226   1.250  0.1453 -0.1762  0.0534
32126W        W48973   0.166   9.414  12.192 -0.1178  0.5075 -0.0866
32127W        W48974  16.779  14.342  11.278  0.1061 -0.1334  0.1866
32128W        W48975   6.664   4.783   4.484 -0.0133  0.0272  0.2410
32129W        W48976  11.056   7.410  10.008 -0.0547 -0.1156 -0.0425
32130W        W48977  17.293  11.041  12.946  0.2953  0.3509 -0.1857
32131W        W48978  10.809   1.580   0.072 -0.1687  0.0940 -0.0412
32132W        W48979   7.617   0.146   2.243 -0.0076  0.1081 -0.1069
32133W        W48980   0.873  15.448   5.058  0.0234  0.0939 -0.0728
32134W        W48981   9.218   6.996  10.690 -0.0575 -0.0848 -0.1669
32135W        W48982  10.807   6.810   1.575  0.2738  0.2560 -0.1906
32136W        W48983   1.238  14.354  10.880 -0.4408 -0.0918 -0.1324
32137W        W48984   7.568  19.586   2.075  0.0134 -0.0665  0.0835
32138W        W48985   2.912  16.283   2.364  0.0394  0.1857 -0.0616
32139W        W48986  12.530  17.344  13.147 -0.1343  0.5297 -0.1940
32140W        W48987   4.606   9.022   4.199  0.2594 -0.0858  0.1886
32141W        W48988   2.951  12.026  13.238 -0.0236  0.1019  0.2739
32142W        W48989  16.428   6.678   4.244 -0.2028  0.3731  0.2040
32143W        W48990  19.008  12.906  10.922  0.0382 -0.2904  0.0736
32144W        W48991  16.879  18.364   2.999 -0.3094  0.0309 -0.2981
32145W        W48992  13.796  14.616   4.194  0.1036 -0.2215 -0.1417
32146W        W48993  16.175   2.601   2.904 -0.2992 -0.0542 -0.1426
32147W        W48994   0.548   4.092  10.696 -0.1728  0.0354  0.5050
32148W        W48995  11.603  17.198  12.929  0.1767 -0.3340 -0.3229
32149W        W48996   3.885   1.199   4.739 -0.0454 -0.0994 -0.0295
32150W        W48997  18.976   6.856  13.805  0.0333  0.2503 -0.0038
32151W        W48998  13.797   0.215   1.980  0.0344  0.5171 -0.1206
32152W        W48999  12.685   6.719  11.899  0.0832  0.2444  0.0585
32153W        W49000   2.317   0.890  11.943  0.2036 -0.2287  0.2222
32154W        W49001  10.160   0.047   1.586 -0.0383 -0.3464  0.0989
32155W        W49002  15.609   1.864   4.433 -0.1816 -0.1890  0.0094
32156W        W49003  19.864  10.226   4.995 -0.1858  0.1181  0.0106
32157W        W49004   7.883  12.620   2.662 -0.0297 -0.3277 -0.0624
32158W        W49005   1.190  17.868  10.400  0.3346  0.0391  0.0564
32159W        W49006  12.163   5.806  10.646 -0.1355 -0.0092  0.1949
32160W        W49007  10.336  10.464   4.650  0.2547 -0.0417  0.0638
32161W        W49008   6.908  15.363  12.875 -0.2314  0.0027 -0.0683
32162W        W49009  15.579   1.392   0.544  0.0308  0.2455  0.2417
32163W        W49010  16.709  17.584   1.931  0.1838  0.0138  0.0155
32164W        W49011  17.051   2.916   0.733  0.0059  0.0801 -0.0335
32165W        W49012   7.442   5.870   2.888 -0.1129 -0.0336  0.1819
32166W        W49013   6.093   0.007   3.308 -0.0240  0.0948 -0.2016
32167W        W49014  12.875  13.694   4.244  0.4023  0.1611 -0.1748
32168W        W49015  17.578  12.257   1.397  0.1193  0.1264 -0.3772
32169W        W49016  15.973   4.656  12.912 -0.2603 -0.0818 -0.0713
32170W        W49017  13.329  15.994   2.777  0.1488 -0.1304 -0.0992
32171W        W49018   7.543  18.479  10.709 -0.0846  0.2437 -0.1441
32172W        W49019   8.060   8.174  13.943 -0.4604  0.3258  0.2230
32173W        W49020   0.173   9.919   3.661  0.1009 -0.1998  0.1567
32174W        W49021   6.665   6.106   1.039 -0.0573  0.2734  0.0714
32175W        W49022  10.373  13.283  12.093 -0.0150  0.3215  0.1827
32176W        W49023   7.419  13.276   3.462  0.0664  0.0235  0.0369
32177W        W49024   4.929   7.926  12.471 -0.0582 -0.1302  0.2832
32178W        W49025  14.817   8.508   0.141  0.4202  0.2412  0.0331
32179W        W49026   8.197  18.883   3.446  0.2412 -0.0948  0.1106
32180W        W49027  19.415  19.663   0.868  0.1831  0.1325  0.1545
32181W        W49028  16.760  12.833   1.855  0.3135  0.2137 -0.1706
32182W        W49029   2.380   7.056  11.181  0.0274  0.0908  0.0254
32183W        W49030   3.056   1.303   0.986 -0.0065  0.2173  0.2076
32184W        W49031   7.889  17.753  12.504  0.4064  0.0686  0.0872
32185W        W49032   0.454  15.398  11.886  0.1106  0.1319 -0.5821
32186W        W49033   6.193  11.617   4.640  0.1300 -0.3398  0.1170
32187W        W49034  10.167  11.444   1.504 -0.2483  0.0898  0.1843
32188ION     NA49035   2.852  12.927   2.710 -0.4358  0.0304  0.2097
32189ION     NA49036   4.812   3.066   0.466 -0.2952  0.0438  0.3798
32190ION     NA49037  12.919   1.911   9.570  0.1327  0.0355 -0.1612
32191ION     NA49038   3.479  14.473   8.879  0.0887  0.1039 -0.1164
32192ION     NA49039  14.741   8.025   9.565  0.2990 -0.2308  0.1877
32193ION     NA49040   1.768   5.356   9.124  0.1619  0.0617  0.0582
32194ION     NA49041   0.254   5.082   0.098 -0.3205 -0.3127  0.2469
32195ION     NA49042  10.942   0.696  11.783  0.1156  0.1045  0.0403
32196ION     NA49043  17.904  18.607   5.489  0.1029 -0.0767  0.3657
32197ION     NA49044   7.617  19.876   9.140 -0.0199 -0.3490 -0.0864
32198ION     NA49045   0.047   6.160   9.109  0.0972 -0.0526 -0.0753
32199ION     NA49046   9.784  19.260   4.890  0.1195  0.4968  0.1109
32200ION     NA49047  13.064   8.631  10.300 -0.1534 -0.1023 -0.0050
32201ION     NA49048   6.587  12.305   9.292  0.0903  0.0547  0.4509
32202ION     NA49049   0.482  13.251   8.884 -0.0554  0.3348  0.0302
32203ION     NA49050  14.676   1.765   9.586 -0.1079  0.0519  0.0407
32204ION     NA49051  18.456   1.541   9.161 -0.1963 -0.0829  0.2508
32205ION     NA49052  10.019   8.106   8.944 -0.3117  0.3792  0.1310
32206ION     NA49053   4.102   5.858  13.486  0.3233  0.1389  0.4795
32207ION     NA49054   8.047  11.385   9.265  0.2551 -0.2633 -0.0632
32208ION     NA49055  13.459   1.868  10.367 -0.1635 -0.2457 -0.1722
32209ION     NA49056   2.124   3.933   9.262 -0.3559  0.0430 -0.1118
32210ION     NA49057  18.059  13.127   9.432 -0.0098 -0.4525 -0.0615
32211ION     NA49058   3.101  14.777   1.806 -0.2440  0.0712 -0.1168
32212ION     NA49059  13.639  15.508   5.470  0.0238 -0.4037 -0.1294
32213ION     NA49060   5.430  18.798   8.717  0.2890  0.2783 -0.1143
32214ION     NA49061  11.260   4.319   9.221  0.0806 -0.1781 -0.0320
32215ION     NA49062   8.166   8.785   0.794 -0.3770 -0.4198 -0.3276
32216ION     NA49063   5.806   2.095   9.484 -0.0686 -0.3116  0.0097
32217ION     NA49064  19.346  13.830   1.020  0.3669  0.1254  0.1838
32218ION     NA49065  18.164  16.594  10.414  0.1843 -0.1338  0.0834
32219ION     NA49066   8.246  14.399  14.167 -0.2062 -0.0093  0.2119
32220ION     NA49067  18.505   2.677  11.560  0.0228  0.0461 -0.1083
32221ION     NA49068  14.118   1.090   9.430  0.0861 -0.0847 -0.1814
32222ION     NA49069  16.663   0.441   3.193 -0.0947  0.3560 -0.1827
32223ION     NA49070  18.418  12.180   9.551  0.0574 -0.0954 -0.0014
32224ION     NA49071   2.642  11.485   8.917  0.1341 -0.2658  0.1167
32225ION     NA49072  17.221  10.488   4.584  0.3555 -0.0363  0.1585
32226ION     NA49073  10.073  10.312   9.146  0.0044 -0.3283  0.3319
32227ION     NA49074   3.874   6.615   0.996 -0.2863 -0.1028  0.3307
32228ION     NA49075  13.943   7.607  10.085  0.2298 -0.1165  0.2237
32229ION     NA49076  11.089  19.927   9.159 -0.1238  0.3429  0.1456
32230ION     NA49077   3.665  19.182   8.998 -0.0881 -0.0815 -0.0853
32231ION     NA49078   8.529  14.036   9.282  0.2286 -0.0176  0.1594
32232ION     NA49079  19.571  18.827   5.280  0.1209 -0.2279 -0.0651
32233ION     NA49080   9.534   4.467   9.176 -0.2824 -0.0753  0.0969
32234ION     NA49081  17.085   8.616  12.237  0.0264 -0.2806 -0.1017
32235ION     NA49082  17.959   8.523   9.653 -0.2965 -0.2410  0.1272
32236ION     NA49083  11.482  10.624  10.333  0.0398  0.0465  0.1260
32237ION     NA49084  18.329   0.012   9.311  0.2941  0.3315  0.1266
32238ION     NA49085   9.593  14.354  10.426  0.0081  0.0917 -0.3594
32239ION     NA49086  13.207  12.892   9.232  0.2697  0.2893  0.2646
32240ION     NA49087  12.829  19.659  10.823  0.3501 -0.2009 -0.3077
32241ION     NA49088  12.889   7.884   3.719  0.1995  0.1444  0.1905
32242ION     NA49089   5.851  15.958  11.812  0.1237  0.3527 -0.2826
32243ION     NA49090   9.069  11.416   1.885 -0.3405 -0.0470 -0.1245
32244ION     NA49091   2.667  11.611  13.382 -0.2411 -0.0430 -0.0455
32245ION     NA49092   9.959   3.070   9.613  0.2143 -0.1171  0.1882
32246ION     NA49093  16.666   3.063   0.985 -0.0323  0.1434  0.3748
32247ION     NA49094  16.301   5.848   9.663 -0.1239  0.0691  0.0027
32248ION     NA49095   7.215  15.538   2.650  0.1226  0.1964  0.1271
32249ION     NA49096  12.245  10.641  10.747  0.1287  0.1214 -0.1052
32250ION     NA49097   5.215   3.962   9.213 -0.0381  0.2394 -0.0863
32251ION     NA49098   2.228  17.374  13.805  0.0729 -0.0087  0.1045
32252ION     NA49099  14.943  19.140   9.527  0.0906 -0.1816 -0.0225
32253ION     NA49100   4.086  15.716   4.464  0.1597 -0.1620 -0.0073
32254ION     NA49101  14.867   2.551  12.756  0.0102  0.1278  0.0096
32255ION     NA49102  16.043  16.263   9.443 -0.0762 -0.0848  0.1128
32256ION     NA49103  14.528  15.372   5.054  0.0806 -0.0786 -0.0729
32257ION     NA49104  19.500   1.017   5.475 -0.0822 -0.1668 -0.0179
32258ION     NA49105  12.981  11.094   2.914 -0.2109 -0.1422 -0.2449
32259ION     NA49106   6.936  10.655   9.918  0.2424  0.0431 -0.1204
32260ION     NA49107  18.845  13.073   4.457 -0.2026  0.2612  0.4539
32261ION     NA49108   9.094  11.099   4.408  0.3164 -0.0724  0.1464
32262ION     NA49109  15.598  16.682  10.652  0.2486 -0.0352 -0.0016
32263ION     NA49110  13.989   3.623   3.729 -0.0472  0.1835 -0.1929
32264ION     NA49111  17.990  10.794   9.635 -0.2209  0.0804  0.1283
32265ION     NA49112  11.664   2.806  14.098  0.0508  0.1002 -0.0222
32266ION     NA49113  11.308  12.752   9.406  0.0470 -0.3724 -0.0415
32267ION     NA49114  14.908   0.800   1.183  0.0476  0.3138  0.0638
32268ION     NA49115   7.034  18.851   8.926  0.1357  0.1853  0.3533
32269ION     NA49116  18.478  14.539  12.486 -0.0285  0.0471  0.2132
32270ION     NA49117  10.117  17.904  13.578  0.0485 -0.2612 -0.1816
32271ION     NA49118  19.493  16.459   9.181 -0.0836  0.2530  0.0494
32272ION     NA49119  13.654  13.890  12.047 -0.2328  0.0494 -0.1740
32273ION     NA49120  17.209   3.531   5.397  0.0982 -0.0245  0.1633
32274ION     NA49121  16.668  11.966   9.872  0.3322 -0.0382  0.1279
32275ION     NA49122  15.098  14.381   5.307  0.1187  0.2360 -0.4442
32276ION     NA49123   2.159   8.132  13.409 -0.1412 -0.2607 -0.1849
32277ION     NA49124  18.048  18.494   4.934 -0.1067  0.2216  0.0699
32278ION     NA49125  13.156  16.320   9.200  0.2675 -0.1443 -0.3415
32279ION     NA49126  11.400   9.219   9.006  0.0275 -0.0081 -0.0511
32280ION     NA49127   6.675  19.791   8.822 -0.2194  0.3939  0.0418
32281ION     NA49128   9.787   7.345   3.149  0.0747 -0.0608 -0.0585
32282ION     NA49129  15.298  10.531   4.931  0.0275  0.0601  0.0556
32283ION     NA49130   4.747  18.824   2.795 -0.2964 -0.3331 -0.3038
32284ION     NA49131  13.560   6.463   9.371  0.0232 -0.1468  0.1099
32285ION     NA49132  11.559   6.349   9.426 -0.2775 -0.2382  0.0975
32286ION     NA49133  12.594  13.317   9.305 -0.2802  0.2271 -0.0588
32287ION     NA49134   9.486   5.445  12.888  0.2060 -0.0787  0.4041
32288ION     NA49135   7.606  10.153   0.043 -0.2041 -0.1111 -0.0005
32289ION     NA49136   8.980   5.362  12.887 -0.0479 -0.0651 -0.2072
32290ION     NA49137  17.143   3.887   9.328  0.0702 -0.2391 -0.3457
32291ION     NA49138   7.832  16.263   2.686 -0.1625 -0.1563  0.5214
32292ION     NA49139   0.209   9.139  11.254 -0.4290 -0.0126 -0.0470
32293ION     NA49140  10.107  17.175  12.476 -0.2928 -0.2776 -0.0349
32294ION     NA49141   7.848   1.179  13.677 -0.1599  0.0424 -0.0921
32295ION     NA49142  16.565  14.549   4.539 -0.0196 -0.0647  0.0847
32296ION     NA49143   3.675   8.892   8.997 -0.2634  0.2367 -0.2903
32297ION     NA49144   6.507   9.636   9.391  0.0975 -0.1223  0.4572
32298ION     NA49145   3.617  11.900   9.246  0.2917  0.1896 -0.1598
32299ION     NA49146   9.192  12.257  11.796  0.2866 -0.0569 -0.1802
32300ION     NA49147   3.807   3.104   9.149 -0.1547 -0.0015  0.0708
32301ION     NA49148  14.318   9.494   9.666  0.3501 -0.0762  0.0040
32302ION     NA49149  19.140   6.463   9.294  0.1075 -0.0231  0.0217
32303ION     NA49150  15.640  10.587   9.770  0.0750  0.2217 -0.0009
32304ION     NA49151   7.915  16.611   3.709 -0.2069  0.1758  0.0535
32305ION     NA49152   9.148   3.558   9.286 -0.0429 -0.0095  0.0848
32306ION     NA49153  12.468  11.645   4.859  0.1596 -0.0424 -0.1295
32307ION     NA49154   5.462   0.168   2.558 -0.1484  0.1439  0.3385
32308ION     NA49155   8.253   0.669   1.724  0.0212  0.2048  0.0275
32309ION     NA49156  13.400  12.152   4.615 -0.2657  0.0026  0.2075
32310ION     NA49157   2.363   6.794   2.350  0.2657  0.1805 -0.0809
32311ION     NA49158   9.760  16.780   9.072  0.1034  0.1652  0.1709
32312ION     NA49159   8.695   0.116   2.934  0.1138  0.0797 -0.2500
32313ION     NA49160   0.940  11.644   0.004 -0.2392  0.0454 -0.0267
32314ION     NA49161   7.984   2.831  13.179  0.1538 -0.1681  0.0704
32315ION     NA49162  15.495   3.073   5.639 -0.2740  0.0380 -0.2587
32316ION     NA49163   3.355   4.175   2.455 -0.1613 -0.1848  0.1979
32317ION     NA49164  14.218   4.436   9.548  0.0838 -0.3934 -0.0630
32318ION     NA49165   6.390  19.140   1.853  0.1267  0.3247 -0.1303
32319ION     NA49166  15.142  11.905  12.825 -0.0023  0.1137  0.1076
32320ION     NA49167   6.609  12.248   0.364 -0.0545  0.2655 -0.4529
32321ION     NA49168  12.843   9.081  12.544 -0.0991 -0.1767  0.2316
32322ION     NA49169   3.031  17.770   8.664 -0.1538  0.1022  0.0665
32323ION     NA49170  15.635  15.557   0.009  0.0712 -0.0671 -0.0099
32324ION     NA49171   3.880   6.675   9.024 -0.1840 -0.0439  0.1146
32325ION     NA49172  12.547   5.848   4.336  0.0276 -0.0219  0.2156
32326ION     NA49173   8.399  11.529   4.940 -0.1153  0.1935  0.2544
32327ION     NA49174  13.010   7.200   9.207  0.0423  0.0461  0.1985
32328ION     NA49175  19.031  11.563   9.340 -0.0281  0.0616  0.2217
32329ION     NA49176  10.278  16.013   0.127 -0.1131 -0.0390  0.1238
32330ION     NA49177   7.310  16.612   8.657  0.0734 -0.2081 -0.3319
32331ION     NA49178  11.127  12.453  10.324  0.1790  0.0251 -0.1328
32332ION     NA49179   7.586  14.162  12.705  0.3785  0.1546  0.1946
32333ION     NA49180  13.695  13.003  11.690 -0.1603  0.2528 -0.1857
32334ION     NA49181   4.925   9.612   4.892  0.0010  0.0582 -0.5068
32335ION     NA49182  11.059  13.779   9.570 -0.3456 -0.3301  0.0042
32336ION     NA49183  11.242   8.853  11.692  0.2174  0.0032  0.1108
32337ION     NA49184  19.499   8.083   9.588 -0.2865 -0.3191  0.3368
32338ION     NA49185   4.753  17.198   8.921  0.1183 -0.0954 -0.3436
32339ION     NA49186  11.677   5.922   4.983  0.0889  0.3279 -0.1648
32340ION     NA49187  16.623  13.743   9.614 -0.1140 -0.1841 -0.0922
32341ION     NA49188   1.937  18.410  12.760  0.1503  0.2972 -0.0285
32342ION     NA49189   2.183  11.230   2.776 -0.3083 -0.0220 -0.0717
32343ION     NA49190   5.369  16.548   0.534 -0.0046  0.1063 -0.0277
32344ION     NA49191  17.892  18.022   9.909 -0.1169 -0.0720  0.0987
32345ION     NA49192  16.222   9.379   9.455 -0.0798 -0.0876  0.0573
32346ION     NA49193  19.755  12.140   4.274  0.1924  0.0839 -0.0167
32347ION     NA49194  19.025   9.949   4.497 -0.0088  0.0030  0.2667
32348ION     NA49195  17.372   9.979   5.142  0.1862 -0.0848 -0.2041
32349ION     NA49196  16.846  16.498  11.226 -0.1284 -0.0901 -0.3423
32350ION     NA49197  12.573  18.236   9.345 -0.3712 -0.4401  0.2430
32351ION     NA49198  19.510   7.316   5.279  0.0728  0.0651 -0.1145
32352ION     NA49199  15.517  17.395   4.688 -0.0527  0.1253  0.2171
32353ION     NA49200   7.163   3.317   2.740 -0.1769  0.0833 -0.1379
32354ION     NA49201   0.060  19.452   9.346 -0.1894  0.0537 -0.1510
32355ION     NA49202   4.085   5.920   4.857  0.2383  0.0257 -0.2873
32356ION     NA49203   6.104   9.904   3.138 -0.0556 -0.1565 -0.5750
32357ION     NA49204   6.678   1.003   9.145  0.3002 -0.0188  0.1311
32358ION     NA49205   5.948   5.397   8.975  0.0214  0.1363 -0.0779
32359ION     NA49206  11.481   4.986  12.509 -0.1334 -0.0242 -0.0545
32360ION     NA49207  17.170   2.428   9.569 -0.0185  0.1700  0.1319
32361ION     NA49208  13.347   7.449  13.658 -0.0424  0.3911  0.0669
32362ION     NA49209   8.589   0.072   9.110 -0.1620  0.0349  0.3289
32363ION     NA49210   7.672   2.597   2.544 -0.0458 -0.0489 -0.0696
32364ION     NA49211   4.967   2.567  11.588 -0.0254 -0.1941 -0.2028
32365ION     NA49212  12.201   1.868   9.220 -0.1760  0.1929 -0.2945
32366ION     NA49213  18.697  19.165   5.090 -0.1734  0.0203 -0.5044
32367ION     NA49214   6.588  18.366   9.573 -0.1370 -0.0554  0.2199
32368ION     NA49215   2.016  18.744   9.233 -0.1667 -0.2448  0.0657
32369ION     NA49216   4.892  12.632   2.673  0.0768 -0.0751 -0.1578
32370ION     NA49217  17.792   9.948   0.640 -0.0155  0.0540 -0.2547
32371ION     NA49218   0.675   2.838  11.632 -0.2171  0.2522  0.2358
32372ION     NA49219  17.900  13.759   2.017 -0.0172  0.1275 -0.0151
32373ION     NA49220   1.898   3.487  13.694  0.2253 -0.1585 -0.3193
32374ION     NA49221   0.831   6.577   9.059 -0.4595 -0.2899  0.0754
32375ION     NA49222  16.765   4.863   9.635 -0.1389 -0.1704 -0.0049
32376ION     NA49223   6.558  14.436   4.828  0.0537  0.1283  0.2049
32377ION     NA49224  15.786   4.882   5.431  0.3094  0.0773  0.0863
32378ION     NA49225   6.888  16.431  10.811 -0.0393  0.2744  0.1141
32379ION     NA49226   4.172   7.157   9.180  0.0976  0.1007 -0.3178
32380ION     NA49227   6.535  16.034   8.812  0.1777 -0.3658  0.0257
32381ION     NA49228   9.147   2.689   9.341  0.0365 -0.0943 -0.1754
32382ION     NA49229   1.922   1.165   9.103 -0.1545  0.5896 -0.0371
32383ION     NA49230  16.220  16.705   4.619  0.1565  0.0348 -0.1518
32384ION     NA49231  13.626   6.562  13.337 -0.0539  0.2858 -0.0383
32385ION     NA49232   7.224   3.873  13.995 -0.0190  0.0443  0.2963
32386ION     NA49233  18.252   2.756  11.965  0.1670 -0.0873  0.0803
32387ION     NA49234  13.355   4.217   9.905  0.1679 -0.4234 -0.0445
32388ION     NA49235   9.235  13.420   4.614  0.2977 -0.1877 -0.1704
32389ION     NA49236   2.384   3.398  12.836  0.0062 -0.0007 -0.0421
32390ION     NA49237  17.785   3.155   9.418  0.0725  0.1357 -0.2662
32391ION     NA49238  10.037  11.184   9.171  0.2708  0.0289  0.3468
32392ION     NA49239  11.161  11.789   9.273 -0.1481 -0.0929 -0.0506
32393ION     NA49240  14.384  12.291   9.539  0.2249  0.1705 -0.0311
32394ION     NA49241  12.456   1.056   9.455 -0.0789 -0.2212 -0.2462
32395ION     NA49242  12.719  19.227   9.233  0.2092 -0.3243  0.2336
32396ION     NA49243   5.658  12.163  11.844 -0.1735  0.2561  0.1020
32397ION     NA49244  13.949   5.044   9.720 -0.0558 -0.3381 -0.1360
32398ION     NA49245   1.283  14.473   9.435 -0.0782 -0.0865 -0.0608
32399ION     NA49246   1.252   8.358   4.075  0.0349 -0.1119  0.1232
32400ION     NA49247  19.501   7.143   3.473 -0.2356 -0.0581 -0.2982
32401ION     NA49248   1.874   1.209  12.767  0.3492  0.0719 -0.0851
32402ION     NA49249   7.267   4.522  12.263 -0.1411 -0.0821 -0.2892
32403ION     NA49250   6.624   8.622  11.812  0.2252 -0.1625  0.0179
32404ION     NA49251  13.837   3.520   5.670  0.4125 -0.1530  0.0294
32405ION     NA49252   7.187   1.976   4.887 -0.0045 -0.1307 -0.2354
32406ION     NA49253  13.798  17.814  13.858 -0.0367 -0.2377 -0.0219
32407ION     NA49254   9.287   5.758   9.280 -0.0627  0.0915 -0.1181
32408ION     NA49255  18.699   0.792   9.023  0.0805 -0.1502 -0.1689
32409ION     NA49256   9.432  15.059   4.929 -0.1140  0.1010 -0.0169
32410ION     NA49257   0.668  19.635   0.379 -0.0723 -0.1903 -0.0297
32411ION     NA49258  12.244  19.361   2.336 -0.5122 -0.2655  0.3930
32412ION     NA49259  17.020   0.837   9.828 -0.0222  0.1450  0.3364
32413ION     NA49260  16.180  17.101  10.241  0.2326  0.1399 -0.2929
32414ION     NA49261   0.789  17.924   9.164 -0.1811  0.4458 -0.1488
32415ION     NA49262   4.640   3.344   9.185 -0.0265  0.4115  0.0828
32416ION     NA49263  17.361   2.563   1.088 -0.2837  0.0565  0.1358
32417ION     NA49264  10.645  16.903   9.573 -0.1301  0.0657 -0.0731
32418ION     NA49265  12.581  12.007  11.169 -0.3759 -0.2772 -0.3540
32419ION     NA49266  17.714  11.501  11.274  0.0737  0.0387 -0.0481
32420ION     NA49267   3.325  15.978   8.693 -0.0779 -0.1805  0.0683
32421ION     NA49268  16.834   7.876  10.482 -0.0940 -0.1717  0.0042
32422ION     NA49269  17.213   9.200   9.604 -0.2543  0.1547 -0.2807
32423ION     NA49270  10.151   2.582   9.556  0.2067 -0.1300 -0.0125
32424ION     NA49271  12.819   4.241  10.371 -0.3671  0.1736 -0.0868
32425ION     NA49272   8.288   9.113   4.540  0.0163  0.1370  0.0448
32426ION     NA49273  13.167  14.536   9.589  0.2456 -0.3604  0.0896
32427ION     NA49274   6.156   5.116   4.544 -0.2222  0.0926  0.0326
32428ION     NA49275   0.614   2.176   9.362 -0.0059  0.1050  0.1139
32429ION     NA49276  15.949  12.733   9.274  0.1871  0.1621 -0.0223
32430ION     NA49277   5.462  10.907   9.137  0.0959 -0.2839 -0.2403
32431ION     NA49278   4.409   7.473   4.811  0.1897  0.0273  0.4035
32432ION     NA49279   6.812   2.697   9.057  0.1903  0.2751  0.0158
32433ION     NA49280  14.307   6.745   9.407  0.3488 -0.1561  0.0035
32434ION     NA49281  16.063   1.333   5.498 -0.0488  0.0384 -0.1220
32435ION     NA49282  10.028   4.226   9.327  0.0014 -0.0275  0.0812
32436ION     NA49283  10.329  12.956   9.329 -0.0248  0.0471 -0.0791
32437ION     NA49284  10.703  10.969   9.258 -0.1746 -0.0970  0.0959
32438ION     NA49285   9.765   5.300   9.216 -0.0606  0.0348 -0.3111
32439ION     NA49286   1.501   8.605   8.989 -0.0566  0.4262 -0.1140
32440ION     NA49287  14.160  17.519   5.063 -0.1376  0.4219  0.0958
32441ION     NA49288   7.700   2.442   0.438 -0.1094  0.4393 -0.0678
32442ION     NA49289   9.982  14.697   9.200  0.0683  0.2588 -0.2694
32443ION     NA49290  14.078  19.497   9.639 -0.2486 -0.1734 -0.3062
32444ION     NA49291  17.468  16.473   9.660 -0.2247  0.0131 -0.2511
32445ION     NA49292  14.054  16.452   9.725 -0.0261 -0.0841 -0.2898
32446ION     NA49293   1.174   3.849   9.023 -0.1299  0.0045  0.1096
32447ION     NA49294  18.998  10.539   9.265 -0.0382 -0.3060  0.0518
32448ION     NA49295   5.312   3.138  14.074 -0.4334  0.3284 -0.1421
32449ION     NA49296  13.140  14.280  13.782 -0.2751 -0.1676 -0.5146
32450ION     NA49297   5.989   6.056  14.190  0.1394  0.5058  0.2195
32451ION     NA49298  13.185  10.018   9.299 -0.0370  0.0959  0.1209
32452ION     NA49299  15.714  13.775   9.471  0.5440  0.0344 -0.2103
32453ION     NA49300   2.847   9.281   8.886 -0.2018 -0.0007 -0.1602
32454ION     NA49301  19.607  12.943   9.101  0.4148 -0.2802 -0.1159
32455ION     NA49302   5.176   5.270   9.114 -0.0396  0.0989  0.1593
32456ION     NA49303  19.760   7.176   9.179 -0.1022 -0.0265  0.3167
32457ION     NA49304   1.550  12.410  11.877  0.0483  0.2597  0.0731
32458ION     NA49305  14.794   0.118   9.475 -0.1129  0.1221 -0.3996
32459ION     NA49306   1.194   5.410   4.280 -0.0812 -0.0232 -0.1173
32460ION     NA49307   4.248  16.397   1.908 -0.0746 -0.3096 -0.0454
32461ION     NA49308   7.083   6.969   9.329  0.1693  0.2679 -0.0709
32462ION     NA49309   4.823   5.503   3.288  0.0209 -0.1471 -0.1128
32463ION     NA49310  14.825  18.054   9.318  0.0877  0.0985  0.1205
32464ION     NA49311   4.978  13.640   9.242 -0.2904  0.0831 -0.3787
32465ION     NA49312  14.273   8.359   5.229  0.1590  0.0421  0.0492
32466ION     NA49313  14.674  17.066   9.491 -0.3519 -0.1422 -0.0979
32467ION     NA49314  12.263   2.939   9.999  0.2098 -0.2000  0.0625
32468ION     NA49315  18.657   5.763   9.548  0.2648  0.0548 -0.0879
32469ION     NA49316   9.177  12.057   3.072  0.1506 -0.0071  0.3691
32470ION     NA49317  11.701   3.625   9.605  0.3509 -0.0405 -0.1912
32471ION     NA49318  12.802   8.187   2.276  0.3240  0.0227  0.1720
32472ION     NA49319  14.148   3.071  12.954  0.2116 -0.4548 -0.0584
32473ION     NA49320  13.246   7.858   1.223 -0.3157 -0.0049  0.1497
32474ION     NA49321  19.409   5.526   9.219 -0.1905  0.0577  0.0067
32475ION     NA49322   7.222   2.826   9.352 -0.2614  0.1078 -0.0461
32476ION     NA49323   0.386   9.990   9.298 -0.1591  0.1477 -0.1309
32477ION     NA49324  13.447  11.947   9.279  0.2056 -0.1331 -0.1594
32478ION     NA49325  15.740  11.340  10.270 -0.3223 -0.3309  0.1353
32479ION     NA49326   5.803  16.643   8.904  0.0811  0.1028 -0.1286
32480ION     NA49327  18.834  18.719   9.260 -0.0490  0.1187  0.1033
32481ION     NA49328   9.224  16.794   4.822  0.2956 -0.2796 -0.2178
32482ION     NA49329   7.888   5.205   9.498 -0.0366  0.0432 -0.5874
32483ION     NA49330   4.310   0.337   3.819  0.1428  0.2955 -0.0910
32484ION     NA49331  10.022   7.077   9.367  0.3178 -0.0267  0.2892
32485ION     NA49332   7.274  13.890   9.364 -0.4380  0.0374  0.3115
32486ION     NA49333   2.811   2.829  11.058 -0.0090  0.1299  0.1795
32487ION     NA49334  19.745   3.510   9.136 -0.0259 -0.1733  0.0102
32488ION     NA49335  11.571  15.588   9.257  0.0119 -0.0226  0.0570
32489ION     NA49336   9.800   2.225   5.233 -0.1370  0.0745  0.0061
32490ION     NA49337  19.155  14.507   0.125 -0.0513 -0.0395 -0.0251
32491ION     NA49338   8.172  19.890  11.997  0.2695  0.1679 -0.0390
32492ION     NA49339  15.368  10.251  13.851 -0.0756 -0.3699 -0.2370
32493ION     NA49340  18.236   3.682   1.408  0.3155  0.0354  0.1387
32494ION     NA49341  14.635   2.828   5.282 -0.0376 -0.0547 -0.2631
32495ION     NA49342  17.732   6.255   9.802 -0.2245 -0.2741 -0.0037
32496ION     NA49343  19.101  17.514   9.328  0.2333 -0.1409  0.0186
32497ION     NA49344  10.825  14.870   9.206 -0.0145  0.2380 -0.0323
32498ION     NA49345  16.938   2.731   5.198  0.1374 -0.1377 -0.0671
32499ION     NA49346   1.141   9.506   8.954  0.2062  0.2621  0.0261
32500ION     NA49347  11.318   5.291   9.289  0.2699  0.2375  0.0876
32501ION     NA49348   8.288  15.013   9.053  0.0059  0.0664  0.2198
32502ION     NA49349  11.287  18.118   9.157  0.2713  0.0357  0.2149
32503ION     NA49350   0.937   6.648   9.519  0.2398  0.0578  0.1762
32504ION     NA49351  14.190  18.758   9.402  0.1783  0.1235  0.1459
32505ION     NA49352   8.197   2.710   9.302 -0.2651 -0.6066  0.1909
32506ION     NA49353  16.428   9.069  10.154  0.0055 -0.2019 -0.0600
32507ION     NA49354   3.615   0.740   9.303 -0.1533 -0.1486  0.1403
32508ION     NA49355  18.653   3.957   2.179  0.3727 -0.0737  0.1738
32509ION     NA49356  15.703  19.473   9.583  0.0017  0.2387  0.0375
32510ION     NA49357   9.383  12.013   4.262 -0.2938 -0.0373 -0.1515
32511ION     NA49358   5.094   7.304  11.607  0.4582  0.0389  0.0454
32512ION     NA49359   1.460  13.570   8.874  0.3210 -0.3343 -0.0217
32513ION     NA49360  15.259   5.120  11.331  0.0486  0.3229 -0.0139
32514ION     NA49361  15.179  19.811  12.809 -0.1874 -0.1544  0.1205
32515ION     NA49362   6.543   3.506   4.759 -0.0417 -0.0202  0.2361
32516ION     NA49363  13.043   4.614   5.345 -0.0731  0.0174 -0.2419
32517ION     NA49364   1.698  11.049   9.031  0.0129 -0.0942  0.3031
32518ION     NA49365   2.637   3.305   1.360  0.1607  0.1698 -0.3587
32519ION     NA49366  17.555   7.904  12.997 -0.0212  0.0985 -0.1010
32520ION     NA49367   7.059   0.711  10.764 -0.0333  0.1716  0.1308
32521ION     NA49368  16.314   0.315   9.661  0.0634 -0.1497 -0.1345
32522ION     NA49369   6.737   1.025   3.429 -0.3502 -0.3494  0.1426
32523ION     NA49370   8.557  14.117   1.763 -0.3018 -0.0755 -0.1158
32524ION     NA49371  19.422  14.917   9.395 -0.2433 -0.2645  0.1011
32525ION     NA49372  12.609  16.306  14.233 -0.0480  0.0096  0.1359
32526ION     NA49373   8.089   2.225   4.891 -0.0768  0.0802  0.1807
32527ION     NA49374  15.694   8.831   9.631 -0.1801  0.2071 -0.0510
32528ION     NA49375   5.057  12.747   9.262  0.1093  0.1109 -0.2254
32529ION     NA49376  11.453   7.522   8.917 -0.0902  0.2004 -0.2275
32530ION     NA49377   9.438  15.254   4.380 -0.0843  0.0222 -0.2387
32531ION     NA49378  19.465   9.698   9.212 -0.2416 -0.0999 -0.2326
32532ION     NA49379   7.226  11.473   9.484  0.0677 -0.4431  0.2515
32533ION     NA49380  12.204   7.836   9.089 -0.2021  0.0421  0.1575
32534ION     NA49381  19.481  10.489   9.075  0.0923  0.2957 -0.1474
32535ION     NA49382  15.304   7.362   9.802  0.3133 -0.0912  0.1381
32536ION     NA49383   3.406   7.422   8.899 -0.0480 -0.3030 -0.1731
32537ION     NA49384   9.978   5.726   3.246 -0.0074  0.0270  0.4135
32538ION     NA49385  15.443   0.895  11.016  0.1511 -0.1329 -0.0851
32539ION     NA49386  19.229  15.570   9.534 -0.0226  0.3938 -0.2877
32540ION     NA49387   7.904  18.331   8.746 -0.2083  0.0249  0.1274
32541ION     NA49388   2.826   6.237   8.994  0.0722 -0.2394 -0.0946
32542ION     NA49389   9.822   0.158   9.122 -0.2643 -0.3163  0.0892
32543ION     NA49390   3.456  10.572   8.978  0.3379 -0.1683  0.1029
32544ION     NA49391   5.227   6.977   9.268 -0.1126 -0.0771  0.1628
32545ION     NA49392  16.782  15.836   9.470 -0.1471 -0.3158  0.1103
32546ION     NA49393   3.920  17.532   9.706  0.0382  0.1198 -0.2673
32547ION     NA49394  11.667   2.383   5.181  0.0348 -0.2348 -0.0145
32548ION     NA49395   3.385  15.911   4.648 -0.0749  0.1257  0.0063
32549ION     NA49396   5.476  15.564   8.945 -0.0511 -0.0447  0.1299
32550ION     NA49397  16.159  10.280   0.067  0.0686  0.0806  0.3456
32551ION     NA49398  14.042  12.462   9.231  0.2238 -0.3107 -0.2421
32552ION     NA49399  13.622   6.327  12.355  0.4322 -0.3429 -0.3443
32553ION     NA49400  18.039   9.529   9.476 -0.3332 -0.0590 -0.0718
32554ION     NA49401   0.223   0.424   9.308 -0.3061 -0.3478 -0.1474
32555ION     NA49402  17.551   4.082   3.683  0.1283  0.6280 -0.1890
32556ION     NA49403   0.348  12.482   9.203 -0.2579  0.2203  0.2322
32557ION     NA49404   8.429   1.795  12.397 -0.0131  0.1196  0.1384
32558ION     NA49405  17.945   2.913   9.907 -0.1565 -0.2401  0.1748
32559ION     NA49406  19.529   4.613   8.908  0.1419  0.1511  0.2273
32560ION     NA49407  10.072   9.036   9.485 -0.1132 -0.0710  0.0693
32561ION     NA49408   3.881   1.098   0.921 -0.2373  0.1753  0.0529
32562ION     NA49409   1.846   2.895  12.244 -0.1931 -0.1096  0.0915
32563ION     NA49410  11.939   7.808   4.734 -0.0267 -0.0388 -0.2042
32564ION     NA49411   9.102   6.516   9.441 -0.4033 -0.0452 -0.1129
32565ION     NA49412  16.372   9.325   3.375  0.0441 -0.2080 -0.0862
32566ION     NA49413  10.016  12.099   9.301  0.2621  0.0083 -0.0099
32567ION     NA49414  19.207   9.344   2.247  0.3512 -0.1871  0.0808
32568ION     NA49415  19.840  18.515   9.160  0.0263  0.1948 -0.0052
32569ION     NA49416  19.929  17.140   9.324 -0.0717 -0.1266 -0.4286
32570ION     NA49417  12.788  18.889   5.198  0.2765 -0.0496 -0.0873
32571ION     NA49418   9.235   9.090   4.370 -0.3112  0.0704 -0.2044
32572ION     NA49419  14.048   3.434   0.575 -0.2759  0.1314  0.1656
32573ION     NA49420   4.317  14.636   8.924 -0.3142 -0.1272  0.0192
32574ION     NA49421   5.591  13.252  13.463 -0.0535 -0.0316  0.2442
32575ION     NA49422   4.826   7.610   8.905  0.0803 -0.3211 -0.2533
32576ION     NA49423   2.299  10.336   0.164  0.1344 -0.1403 -0.3926
32577ION     NA49424   6.263  10.780   4.441  0.0208  0.1789  0.2307
32578ION     NA49425   7.792  17.832  11.245 -0.2266  0.2593  0.2726
32579ION     NA49426  14.876  15.156  12.755 -0.2211 -0.3537  0.2232
32580ION     NA49427   6.250   6.540  11.572  0.0409  0.1957 -0.0076
32581ION     NA49428   3.323  11.089   9.116 -0.1435 -0.1512 -0.1363
32582ION     NA49429  19.103  19.860   9.267 -0.0958  0.0415  0.2332
32583ION     NA49430  19.795   1.905   9.350  0.1174 -0.0050 -0.3145
32584ION     NA49431  19.682   6.295   5.186 -0.0301  0.1654 -0.3529
32585ION     NA49432  12.519   0.133   9.476  0.1321  0.0320 -0.0073
32586ION     NA49433  13.233   2.610  10.110 -0.2871  0.0006  0.0348
32587ION     NA49434  12.486  15.272   9.268  0.1850  0.2551  0.0718
32588ION     NA49435   1.177  12.729   8.842  0.0870  0.1468  0.2699
32589ION     NA49436  11.220  16.253  14.153 -0.0103  0.0207  0.2246
32590ION     NA49437  15.437   6.857  10.402 -0.2002  0.0078  0.2322
32591ION     NA49438  19.248  16.495   2.226  0.2701 -0.4068  0.4392
32592ION     NA49439  13.452   1.496  12.433 -0.0230  0.1142  0.0034
32593ION     NA49440  12.804   5.915   9.491 -0.1722  0.0366 -0.2107
32594ION     NA49441  18.938   9.165   9.491  0.3796  0.0771 -0.1840
32595ION     NA49442  11.136   9.291   3.163  0.3100 -0.4565 -0.0089
32596ION     NA49443   4.537  19.069   8.921 -0.2216 -0.0523 -0.1533
32597ION     NA49444   6.922   3.590   9.392 -0.0478 -0.2256 -0.0336
32598ION     NA49445   2.154   7.972   8.910  0.0461 -0.0583  0.0162
32599ION     NA49446  19.828  17.943   9.161  0.0236  0.1630 -0.0275
32600ION     NA49447   1.431  10.761   2.971  0.2274 -0.3366  0.3528
32601ION     NA49448   2.697   8.747   8.916  0.0179  0.0564  0.0556
32602ION     NA49449   0.629  16.482   0.904  0.5747 -0.1614 -0.1336
32603ION     NA49450  17.916   6.903  12.786  0.2630 -0.2888  0.2019
32604ION     NA49451   2.925  18.437   9.284 -0.0347 -0.0865 -0.1242
32605ION     NA49452  13.714   8.343   9.579 -0.2582 -0.0024 -0.0207
32606ION     NA49453   5.450  10.823   3.759  0.1560  0.1325  0.3352
32607ION     NA49454  12.585  17.227  14.055 -0.1190 -0.3004  0.2571
32608ION     NA49455  14.925  12.944   9.330  0.0777  0.2832 -0.0144
32609ION     NA49456   6.747   4.652   9.246  0.1862 -0.4502 -0.0728
32610ION     NA49457   4.287  12.790   9.038  0.0503 -0.0912  0.0506
32611ION     NA49458  13.678   3.214  11.521 -0.1865 -0.1532 -0.2150
32612ION     NA49459  18.859   3.275   9.345 -0.2231 -0.0874 -0.2208
32613ION     NA49460  11.728   0.361   9.426  0.0876  0.1180 -0.1971
32614ION     NA49461  15.478   9.993  12.500  0.0095  0.1924  0.2859
32615ION     NA49462  16.393  12.125   0.819  0.2697 -0.1447  0.1550
32616ION     NA49463  18.846  16.479   5.022  0.0333 -0.2873  0.0729
32617ION     NA49464  14.764  17.337   0.646 -0.1504  0.0117 -0.0600
32618ION     NA49465  19.369  12.207   9.338 -0.0032 -0.3389  0.0216
32619ION     NA49466   3.718   6.992  10.376  0.0217 -0.0958 -0.0735
32620ION     NA49467   7.749   0.987   8.707 -0.1015 -0.2419  0.0825
32621ION     NA49468   2.518  18.613   3.550  0.1919 -0.0820 -0.2629
32622ION     NA49469   6.375  13.444   9.570  0.1858  0.1200  0.2342
32623ION     NA49470   8.551   6.412   9.421 -0.0346  0.3785 -0.2156
32624ION     NA49471  18.896  19.650  10.106  0.2604  0.3748 -0.0433
32625ION     NA49472  16.737  16.747   9.728 -0.2850 -0.2397  0.2595
32626ION     NA49473  14.968  13.755   9.592 -0.0449 -0.2442  0.0588
32627ION     NA49474  18.652   4.895   9.218  0.1027  0.0294 -0.0775
32628ION     NA49475  10.453   3.689  11.368  0.2027 -0.2201 -0.1334
32629ION     NA49476  19.322  18.981   9.228 -0.1064  0.0173 -0.0653
32630ION     NA49477  13.011  13.954   3.094 -0.1099 -0.2143 -0.0363
32631ION     NA49478  13.969  15.044   9.443  0.1264 -0.5445 -0.1782
32632ION     NA49479   1.469   2.755   9.091 -0.3504  0.0740  0.0291
32633ION     NA49480   5.009  19.327  11.237  0.0963  0.3325  0.2883
32634ION     NA49481  11.562  16.866   8.959 -0.0837  0.0514 -0.1643
32635ION     NA49482  18.716  17.750  10.503 -0.2708 -0.1448  0.0310
32636ION     NA49483  13.437  18.614   2.880 -0.0623  0.1179 -0.2834
32637ION     NA49484   5.964  10.206   9.270 -0.1530  0.0321  0.3105
32638ION     NA49485  15.597  16.442   5.074 -0.0479  0.1875 -0.0989
32639ION     NA49486   3.518  10.450   4.758  0.1115 -0.1100  0.5163
32640ION     NA49487  10.160  13.539   9.299  0.1549 -0.1509  0.1938
32641ION     NA49488  15.296   4.177   9.870 -0.1957 -0.1269  0.0697
32642ION     NA49489   4.367  10.514   8.977  0.0705 -0.1216 -0.1639
32643ION     NA49490   5.011   4.267   4.005 -0.4065  0.2419  0.3392
32644ION     NA49491   4.906  13.926   1.354  0.0207  0.0310  0.1832
32645ION     NA49492  12.500   9.448   9.053  0.1090  0.3790  0.0744
32646ION     NA49493   1.418  14.369  11.327  0.2372  0.1547 -0.1124
32647ION     NA49494  13.974  11.735   4.770  0.1350  0.0823  0.1903
32648ION     NA49495  17.787  19.830   5.227  0.1031  0.2647 -0.0841
32649ION     NA49496   1.573  12.183   9.478 -0.1222  0.1948 -0.3054
32650ION     NA49497  10.093   8.882  13.930  0.1377 -0.2248 -0.0462
32651ION     NA49498  15.174  17.320   9.574  0.0454 -0.2324  0.0484
32652ION     NA49499  14.841   5.961   5.743 -0.3080  0.2657  0.3639
32653ION     NA49500   1.095  10.364   9.098  0.1390 -0.0993  0.0989
32654ION     NA49501   0.040   6.958   0.761  0.1012 -0.3301  0.0126
32655ION     NA49502   9.025  14.736   3.349 -0.1474 -0.1122  0.3397
32656ION     NA49503   4.499  16.671   9.714  0.0605 -0.1360 -0.0290
32657ION     NA49504   3.148   3.322   9.858  0.2974 -0.1109  0.0756
32658ION     NA49505   3.809  12.770  12.997 -0.1430 -0.4077  0.0605
32659ION     NA49506  16.376   4.437   9.638 -0.0672 -0.4462 -0.0637
32660ION     NA49507   0.668   5.525   8.910  0.0818  0.1555  0.2569
32661ION     NA49508   0.278  14.274   9.641  0.1648 -0.2155 -0.0273
32662ION     NA49509  11.011   9.057  13.536  0.0967 -0.0905 -0.0111
32663ION     NA49510   2.582  14.809   8.967 -0.3033  0.1744  0.0366
32664ION     NA49511   4.263  11.576   8.994  0.2043  0.3339  0.1306
32665ION     NA49512  15.360   4.224   1.487 -0.0605 -0.1971 -0.1899
32666ION     NA49513   0.226  13.653   8.981 -0.1553  0.1288 -0.3029
32667ION     NA49514  14.394  14.165   2.204  0.0707 -0.1969 -0.2111
32668ION     NA49515   9.044  15.712   9.031  0.0297  0.4382 -0.0206
32669ION     NA49516  14.293   3.793   9.817  0.2210  0.2398 -0.2611
32670ION     NA49517  13.747   2.082   9.551  0.0147  0.1244  0.2610
32671ION     NA49518  10.326   4.271   4.844  0.3382  0.0420  0.0474
32672ION     NA49519   8.503   2.249   8.949  0.2069 -0.0812 -0.2551
32673ION     NA49520   1.866  17.185   0.440 -0.1515  0.1282  0.1445
32674ION     NA49521   5.048  11.698   9.241  0.1584 -0.2006 -0.1075
32675ION     NA49522   1.950  16.049   8.978 -0.0698 -0.0432  0.3544
32676ION     NA49523  18.605   0.343   5.616  0.0507 -0.2093  0.1743
32677ION     NA49524  12.659  10.504  12.427  0.2333 -0.2353  0.1690
32678ION     NA49525   3.951  15.011   4.725 -0.2714 -0.1237 -0.2589
32679ION     NA49526   6.316  14.193   9.119  0.1722 -0.3855 -0.0963
32680ION     NA49527  15.673   7.978   9.840  0.0474 -0.1912  0.1407
32681ION     NA49528   0.326  19.825   1.533  0.1744  0.0495 -0.0443
32682ION     NA49529  12.423   6.391  11.065  0.0858  0.2485  0.3152
32683ION     NA49530   5.563   5.999   9.207 -0.2811 -0.1538  0.2207
32684ION     NA49531   3.248  10.707  12.891 -0.1029 -0.0922  0.4283
32685ION     NA49532  10.962   2.982   9.633 -0.0221 -0.2649  0.0654
32686ION     NA49533   6.365  19.232  13.688 -0.0846  0.0536 -0.0969
32687ION     NA49534   5.379   9.659   1.270  0.1114 -0.0340 -0.0151
32688ION     NA49535  14.512  15.965   5.494  0.2298 -0.1321 -0.0209
32689ION     NA49536   9.225  12.454   9.027  0.1888 -0.2007 -0.0508
32690ION     NA49537   6.948   0.220   2.924  0.4881  0.3469  0.5687
32691ION     NA49538  14.999   8.674   9.419 -0.0465  0.2167 -0.2463
32692ION     NA49539   5.352   0.965  12.002 -0.0335 -0.1657 -0.2069
32693ION     NA49540   8.570  15.905   8.990  0.1397  0.4437 -0.0291
32694ION     NA49541   9.011   7.843   9.455 -0.0245 -0.3180  0.2936
32695ION     NA49542  18.946   1.646   2.015  0.1322 -0.1781  0.0960
32696ION     NA49543  16.062  14.571   0.482  0.1550  0.0646  0.0979
32697ION     NA49544   2.413  19.229   9.114  0.0993 -0.1886 -0.3042
32698ION     NA49545  11.488   8.357   8.913  0.3193 -0.0325 -0.0975
32699ION     NA49546   2.823   5.272  10.874  0.2564 -0.1112  0.3557
32700ION     NA49547   0.289   7.450   9.511  0.0218 -0.1633 -0.0750
32701ION     NA49548  12.328  16.236   9.071  0.3679 -0.0124  0.1383
32702ION     NA49549   7.989   9.516   9.431 -0.2466 -0.4977 -0.3914
32703ION     NA49550   6.120   4.015   9.244  0.2665 -0.1628 -0.3223
32704ION     NA49551  16.132   6.993   5.115  0.2483 -0.2277 -0.1052
32705ION     NA49552  15.830  13.080   3.606  0.2260 -0.0288 -0.0202
32706ION     NA49553   1.769   6.063   8.866 -0.2681 -0.0225  0.1234
32707ION     NA49554   8.664  11.895   9.198  0.0859  0.1959  0.3219
32708ION     NA49555   8.193   5.837   4.627  0.1182  0.0543  0.1210
32709ION     NA49556   5.650  19.529   8.690 -0.1392 -0.1913  0.0862
32710ION     NA49557  10.919  19.066   9.109  0.1824  0.1511  0.1246
32711ION     NA49558   9.884  15.746   9.250 -0.1212 -0.2278  0.1342
32712ION     NA49559  10.057   0.232   4.320  0.1697 -0.1390  0.1949
32713ION     NA49560   9.565  18.789   9.076 -0.4658 -0.0509 -0.1510
32714ION     NA49561   1.225   2.976   0.727 -0.0589 -0.0304  0.0511
32715ION     NA49562  17.390   6.246   5.336 -0.2469 -0.0091  0.2245
32716ION     NA49563  11.576  12.989   4.100 -0.2936 -0.0119  0.1318
32717ION     NA49564  13.283   9.112   9.287  0.4694 -0.0913 -0.0247
32718ION     NA49565   3.649   2.713   4.903  0.0168  0.3047  0.6276
32719ION     NA49566  18.459   3.259  14.250  0.4558 -0.2704  0.3415
32720ION     NA49567   4.252   5.752   9.097 -0.0418 -0.1056 -0.2181
32721ION     NA49568   0.687  17.049   9.793  0.2401  0.2124  0.1968
32722ION     NA49569  13.590   8.601   4.862 -0.0951 -0.0351 -0.0765
32723ION     NA49570  18.784  11.461  10.200  0.0782 -0.0156  0.1932
32724ION     NA49571   5.838   1.292   9.209  0.0963 -0.1076 -0.0360
32725ION     NA49572   0.809   1.682   4.710  0.0247 -0.0372  0.1237
32726ION     NA49573  15.073   1.437   9.547 -0.5604  0.0413  0.1628
32727ION     NA49574   0.744  11.184   9.062  0.1363  0.1085  0.0607
32728ION     NA49575   8.208  13.081   9.125 -0.0246  0.0457 -0.4015
32729ION     NA49576   1.258  16.775   4.973 -0.1130 -0.0923  0.0925
32730ION     NA49577   7.467  17.511   8.685  0.1225  0.0905 -0.3895
32731ION     NA49578  12.430  16.090   3.517 -0.1586 -0.0392 -0.1768
32732ION     NA49579   4.658   1.959   4.618 -0.1227  0.0574 -0.0876
32733ION     NA49580  16.387   1.670   1.119 -0.1917  0.1265 -0.0622
32734ION     NA49581  17.957   9.961   9.671 -0.0328 -0.0064  0.1545
32735ION     NA49582  16.827   6.585   9.741 -0.0284  0.1700  0.3355
32736ION     NA49583  11.643  10.792   9.190 -0.0731 -0.2866 -0.1875
32737ION     NA49584  12.416  13.578   4.981 -0.0885  0.1225  0.2452
32738ION     NA49585  17.816   4.889   0.973  0.1691  0.0578 -0.0693
32739ION     NA49586   6.552  14.931  12.884  0.2399  0.0855 -0.2201
32740ION     NA49587   5.660  17.142  12.329  0.1842  0.0407  0.2580
32741ION     NA49588  18.254   0.302   2.126 -0.2414  0.0833 -0.1150
32742ION     NA49589  13.053   3.403   9.837 -0.2284 -0.1185  0.2822
32743ION     NA49590   8.005  13.233  12.695  0.1047 -0.3704  0.0015
32744ION     NA49591   5.771  12.968   9.435  0.1577 -0.0996  0.0647
32745ION     NA49592  17.696   4.600   9.328  0.1147 -0.1915  0.3225
32746ION     NA49593   6.376   1.554   2.909 -0.0729 -0.0629 -0.1369
32747ION     NA49594   3.360  13.151   8.910 -0.3752 -0.1163 -0.1171
32748ION     NA49595   3.800  15.348   8.924 -0.1133  0.3562 -0.2150
32749ION     NA49596  18.359  15.922   9.540 -0.0250 -0.2668 -0.1262
32750ION     NA49597   5.915  14.924   3.484 -0.0273  0.2576 -0.3768
32751ION     NA49598  12.394  12.477  10.227 -0.2807  0.0021  0.5265
32752ION     NA49599   5.135   0.814   3.039  0.0145 -0.1618 -0.1408
32753ION     NA49600   9.878   1.934   4.428 -0.0805  0.1200  0.0884
32754ION     NA49601   6.380   7.829  11.513  0.1790  0.1063  0.4438
32755ION     NA49602   1.939   4.268   8.935  0.0332  0.1344 -0.2607
32756ION     NA49603  12.655  16.616   1.569 -0.0191  0.2277  0.1724
32757ION     NA49604   0.961  15.397   9.574  0.1298  0.3582 -0.2938
32758ION     NA49605  14.260  11.718   9.684 -0.1034  0.0306 -0.0402
32759ION     NA49606   8.614   3.598   9.314 -0.1010 -0.0483  0.1136
32760ION     NA49607   2.464   2.484   9.018  0.0273  0.1819  0.2698
32761ION     NA49608  13.842  17.058   9.138  0.2094  0.0964 -0.1450
32762ION     NA49609  10.011  10.944  12.485 -0.0559  0.1343  0.1476
32763ION     NA49610  17.473  12.172   9.275  0.0659 -0.0200 -0.1141
32764ION     NA49611   2.878  12.469   8.962  0.0259 -0.1534 -0.0886
32765ION     NA49612  14.812   5.753   5.217 -0.0192 -0.1351 -0.1924
32766ION     NA49613   1.652  15.884   4.511 -0.0375  0.0781 -0.0278
32767ION     NA49614  16.034  13.587   4.891  0.2505 -0.1290 -0.3426
32768ION     NA49615  17.792   2.235   9.351  0.1459 -0.0559 -0.0920
32769ION     NA49616  16.477  17.650   9.598  0.2285 -0.1389 -0.1029
32770ION     NA49617   2.388  16.420   8.883  0.2422  0.0329 -0.0055
32771ION     NA49618   6.633   5.621   4.967  0.0212  0.0106  0.0142
32772ION     NA49619  10.948  18.783   9.669  0.0110 -0.0062  0.1015
32773ION     NA49620   0.056   4.007   3.876  0.1152 -0.2512  0.1517
32774ION     NA49621  16.192   2.955   9.727 -0.1839 -0.0776 -0.3706
32775ION     NA49622   9.186  13.332   8.978 -0.1159 -0.1471  0.0098
32776ION     NA49623  12.092   8.484  12.732  0.5146  0.0496 -0.2293
32777ION     NA49624   8.636  15.530  11.617 -0.2428 -0.0447 -0.0886
32778ION     NA49625   5.515  14.469   8.989  0.1857 -0.0500 -0.3844
32779ION     NA49626  17.966   3.602   9.236  0.0344  0.1702  0.1324
32780ION     NA49627   6.177   8.676   9.277 -0.0692  0.0628  0.0779
32781ION     NA49628   7.893   5.257  12.210  0.1357 -0.0711 -0.0213
32782ION     NA49629   8.356   1.784   2.964  0.0631  0.0344 -0.1205
32783ION     NA49630   2.293  17.921   8.985  0.0875 -0.4038 -0.3738
32784ION     NA49631  18.022  15.897   2.568  0.4540  0.1346 -0.2446
32785ION     NA49632   9.229  11.573   9.022  0.0259 -0.0146 -0.2915
32786ION     NA49633   8.680   9.101   9.093 -0.4031  0.2143  0.1158
32787ION     NA49634   7.973   8.471   9.055 -0.2059 -0.1423 -0.2373
32788ION     NA49635  16.393   6.739  11.056  0.0325 -0.0545 -0.0806
32789ION     NA49636  15.684  11.942   9.482 -0.3064 -0.2933 -0.0812
32790ION     NA49637   0.164  13.248  11.134  0.0451  0.2858  0.0341
32791ION     NA49638  16.560  10.666   9.570  0.2447  0.0086 -0.1902
32792ION     NA49639  11.104   4.398  13.676  0.0274  0.3173 -0.0578
32793ION     NA49640  15.618  19.731  11.744  0.5293  0.0506  0.0813
32794ION     NA49641  12.475  18.658   0.801 -0.0871  0.0798 -0.0163
32795ION     NA49642   1.594   7.434   5.089 -0.2692 -0.3223  0.0511
32796ION     NA49643   4.132   5.081   9.623  0.1244 -0.1624 -0.1287
32797ION     NA49644   8.606   5.124   5.069  0.7236  0.1398 -0.1965
32798ION     NA49645   3.896  14.350   9.136  0.1442  0.0471 -0.1046
32799ION     NA49646   4.102   1.587   9.109  0.0738  0.1108 -0.0864
32800ION     NA49647   7.243  10.367   9.370 -0.0862 -0.0605 -0.3821
32801ION     NA49648  12.434   9.587   5.029 -0.1313 -0.0935 -0.0188
32802ION     NA49649   1.519   4.359   4.885 -0.1620 -0.3102  0.3420
32803ION     NA49650   6.256  18.903   8.828 -0.1511 -0.2307  0.2735
32804ION     NA49651  11.372   3.790   1.326  0.2638 -0.3517 -0.3697
32805ION     NA49652   4.484   0.752   9.227  0.0191  0.1906  0.1002
32806ION     NA49653  14.787  18.667   4.913  0.1155 -0.1887 -0.0472
32807ION     NA49654  14.826  14.296   3.618  0.1892  0.2184 -0.2278
32808ION     NA49655  15.714   4.913   9.547  0.1520 -0.0179  0.0081
32809ION     NA49656  11.696   7.805   0.177 -0.1911 -0.3133  0.0990
32810ION     NA49657  10.754   5.240   2.861  0.1408 -0.0184  0.2372
32811ION     NA49658  10.710   5.727   9.290 -0.1901  0.1550 -0.0149
32812ION     NA49659  19.126   3.591   0.519 -0.0012  0.1061 -0.0204
32813ION     NA49660  12.463  11.127   4.743  0.2413 -0.1866 -0.0642
32814ION     NA49661   1.798   1.776   9.493 -0.3965 -0.0101 -0.0938
32815ION     NA49662  17.382   2.047  10.368  0.1557  0.1184  0.1345
32816ION     NA49663   8.742   4.007   1.020 -0.2276  0.0553 -0.2713
32817ION     NA49664   0.400   3.604   9.600 -0.0194 -0.0721  0.1577
32818ION     NA49665  17.347  17.876   9.640 -0.0078  0.0138  0.0705
32819ION     NA49666  12.950   0.250  11.977  0.1569  0.1382 -0.3816
32820ION     NA49667  11.918   3.817   4.374  0.2797 -0.2791  0.0272
32821ION     NA49668  18.891   7.340   9.618  0.1542 -0.0359  0.0340
32822ION     NA49669  17.250   9.997   9.329 -0.2485 -0.0279 -0.0312
32823ION     NA49670  11.350  16.022   4.643  0.3165 -0.0410  0.1676
32824ION     NA49671  13.366   0.310   2.755  0.0578 -0.1857 -0.1193
32825ION     NA49672   6.114  11.598   9.339 -0.2520 -0.0609  0.0704
32826ION     NA49673  17.200  13.019   9.630  0.1862 -0.4324 -0.3107
32827ION     NA49674  18.512  14.117   9.511  0.1374  0.1605 -0.1648
32828ION     NA49675  18.806  10.493  10.186  0.2032  0.2523  0.0374
32829ION     NA49676  11.814   2.740   9.709  0.0340  0.4079 -0.3146
32830ION     NA49677  12.222  12.932   9.315 -0.1038 -0.0141 -0.0107
32831ION     NA49678  16.142   9.726   5.345  0.4818 -0.5218  0.0070
32832ION     NA49679  10.845   9.932   9.068 -0.2972 -0.1294  0.1614
32833ION     NA49680   1.133  10.543   4.745  0.2730  0.0055  0.1817
32834ION     NA49681  14.967   5.525  10.195 -0.0353 -0.0892  0.0295
32835ION     NA49682   4.637   4.818  10.047 -0.1520  0.1101  0.1453
32836ION     NA49683   4.650  13.892  14.204 -0.1420  0.1669 -0.0882
32837ION     NA49684   1.753  10.090   8.852 -0.2169 -0.1266 -0.0507
32838ION     NA49685   2.486   7.163   9.116  0.0627 -0.0793  0.0186
32839ION     NA49686   9.281   8.057   4.774  0.1961 -0.1967  0.0342
32840ION     NA49687  14.313   5.855   9.421 -0.1097  0.1365  0.2613
32841ION     NA49688   1.854  14.375   4.731  0.4015 -0.1582  0.0728
32842ION     NA49689   0.807  13.711  12.136 -0.0132  0.2971 -0.0427
32843ION     NA49690  18.837   0.539   6.032 -0.0785  0.1015 -0.2689
32844ION     NA49691  13.682  15.612  11.500 -0.4157  0.1092  0.1021
32845ION     NA49692  13.940  10.765  11.995  0.2468  0.0152 -0.0690
32846ION     NA49693   9.518  13.124  10.183 -0.3253  0.0086 -0.0306
32847ION     NA49694   7.789   3.381   9.454  0.1297  0.1866  0.2789
32848ION     NA49695   3.096   8.349   8.797  0.0146  0.0360 -0.1312
32849ION     NA49696  14.173  10.167   9.417  0.0498  0.0970  0.3763
32850ION     NA49697   9.295   1.802   9.279 -0.3282  0.0861  0.2460
32851ION     NA49698  17.189  18.805   9.671 -0.0862 -0.1777  0.2914
32852ION     NA49699   9.466  18.074   2.902 -0.2237  0.3538 -0.1510
32853ION     NA49700  17.736  11.390   5.253 -0.0613  0.1786  0.1059
32854ION     NA49701  17.102   3.067  10.017 -0.0984 -0.3375 -0.3091
32855ION     NA49702   5.107  11.868   4.542 -0.0350 -0.1021 -0.1037
32856ION     NA49703   8.913  18.392   8.967 -0.0029  0.1860  0.3918
32857ION     NA49704   1.279  13.691   4.786  0.1679 -0.0683  0.4070
32858ION     NA49705   8.274  14.016  10.485  0.0112  0.2721 -0.0194
32859ION     NA49706   1.451   1.343   3.093 -0.1408  0.1590  0.3104
32860ION     NA49707   0.439  14.632  12.623 -0.0269  0.0691 -0.1482
32861ION     NA49708  19.798   8.831   9.148  0.3296 -0.2745  0.0865
32862ION     NA49709  13.511  13.354   9.476  0.4216  0.1353  0.0946
32863ION     NA49710  15.110   9.694   9.606  0.0600  0.0880  0.3028
32864ION     NA49711  10.366  17.951   9.046  0.0918 -0.2377 -0.3895
32865ION     NA49712   0.996   4.769   4.746 -0.3180 -0.0997  0.2783
32866ION     NA49713   9.979   2.441  14.199 -0.2801  0.1355  0.1966
32867ION     NA49714   2.782   6.984  10.377 -0.0063  0.0076 -0.0340
32868ION     NA49715   0.401  16.298   8.931 -0.2626 -0.0852 -0.1998
32869ION     NA49716   4.976   9.622  11.941  0.2368 -0.2123  0.0511
32870ION     NA49717  18.436   8.423   5.185 -0.2862  0.0031 -0.0438
32871ION     NA49718   1.424   2.485  13.313 -0.2968 -0.0199  0.2719
32872ION     NA49719   4.291   2.471   9.263 -0.2920  0.2591  0.1373
32873ION     NA49720  11.863  19.341   9.166 -0.0272 -0.2523 -0.0356
32874ION     NA49721   9.251  15.895   9.924  0.1502 -0.2981 -0.1311
32875ION     NA49722   6.256   7.265   8.983  0.2546  0.1728 -0.0242
32876ION     NA49723  16.107  18.144   4.604 -0.2377 -0.4003  0.2617
32877ION     NA49724  13.558  17.954   9.411 -0.2151  0.0201 -0.0712
32878ION     NA49725   4.513   3.244   4.644  0.2664 -0.0336  0.1530
32879ION     NA49726  12.922   7.506   4.937 -0.5004  0.2224 -0.2406
32880ION     NA49727   9.245  17.302   8.902 -0.0009 -0.1727 -0.2767
32881ION     NA49728  13.762   3.987   2.638  0.2458 -0.1266  0.1372
32882ION     NA49729  11.579  15.287   2.895 -0.0801 -0.0311  0.0626
32883ION     NA49730   2.644   0.886   9.599  0.0757 -0.2783 -0.1737
32884ION     NA49731   7.222  14.966   9.381  0.0075 -0.0520 -0.0877
32885ION     NA49732   8.189  10.929   0.735  0.1009 -0.1322  0.0102
32886ION     NA49733  17.713   6.797   2.300 -0.0795  0.0782 -0.3122
32887ION     NA49734   3.844  18.257   8.698  0.1177  0.1183  0.0486
32888ION     NA49735  18.135  17.242   9.896 -0.1139 -0.1081  0.2551
32889ION     NA49736   2.207  13.039   9.082  0.3990 -0.2041 -0.0850
32890ION     NA49737  12.477   6.855   9.277  0.1540  0.0129 -0.2894
32891ION     NA49738  15.619  16.814  14.037  0.3029  0.2068 -0.1619
32892ION     NA49739   3.199  14.865   9.102 -0.1705 -0.2022 -0.2429
32893ION     NA49740   8.576  18.664   9.241 -0.0238  0.2266  0.1820
32894ION     NA49741   3.633  10.963   2.504 -0.1134 -0.0188 -0.0625
32895ION     NA49742   7.412  14.834   4.428  0.3319 -0.2492  0.3027
32896ION     NA49743   8.091   7.629   9.266  0.0612 -0.2149  0.0466
32897ION     NA49744   0.491   6.605   1.259  0.0510  0.1866 -0.1034
32898ION     NA49745   7.472   8.522   9.253 -0.3512 -0.2554 -0.1373
32899ION     NA49746  18.706   2.501   9.405 -0.0303  0.1952  0.0494
32900ION     NA49747   6.101   3.097   9.256  0.3070 -0.1511 -0.0529
32901ION     NA49748   2.456   0.031   9.901 -0.1172  0.1692 -0.0553
32902ION     NA49749   6.611  17.126   8.649  0.2492 -0.2044 -0.1828
32903ION     NA49750   6.995   5.556   8.907  0.0024  0.2250  0.1957
32904ION     NA49751  17.384  15.120   9.601 -0.0145 -0.0745 -0.4403
32905ION     NA49752  10.063  12.923  13.968  0.0305  0.1532  0.1189
32906ION     NA49753  12.334  12.067   9.126  0.2668  0.0134 -0.2252
32907ION     NA49754  12.365   5.151   9.371  0.1596 -0.0132  0.0267
32908ION     NA49755  17.684  18.558   2.280 -0.4392  0.1155  0.1197
32909ION     NA49756  10.052   6.708  12.760  0.1206 -0.0527 -0.0150
32910ION     NA49757  11.947  15.433  10.162 -0.2462  0.0759 -0.6116
32911ION     NA49758  19.919   1.333   0.517  0.0055 -0.2460  0.0032
32912ION     NA49759  10.349   5.245   9.190  0.1019 -0.0594  0.2061
32913ION     NA49760   6.406  10.908   3.500 -0.1999  0.0567 -0.4415
32914ION     NA49761  16.162   3.951   9.669 -0.3241  0.3778  0.0511
32915ION     NA49762   4.822  18.462  11.276  0.3202  0.2047 -0.1718
32916ION     NA49763   1.928  17.018   8.728 -0.2052 -0.0769 -0.1123
32917ION     NA49764   4.033  16.194   8.823 -0.0579 -0.1110 -0.1537
32918ION     NA49765  12.628  10.731   2.823 -0.2867  0.1021  0.0808
32919ION     NA49766  11.965  10.619   5.142  0.0520  0.2481  0.0669
32920ION     NA49767   5.207   4.701   0.799  0.1058 -0.0427 -0.1447
32921ION     NA49768   8.040  16.496   9.159  0.1980  0.3192  0.0850
32922ION     NA49769   7.939   5.857   2.798  0.0139 -0.1439 -0.2663
32923ION     NA49770   4.712   7.408   0.270 -0.1316  0.1826 -0.3202
32924ION     NA49771   2.495   8.347   3.297 -0.0584  0.2070  0.0965
32925ION     NA49772   3.112   9.501   4.659 -0.0229 -0.0641 -0.1257
32926ION     NA49773   5.446  13.892   9.326 -0.1462  0.0878 -0.2655
32927ION     NA49774  11.163  10.780   4.986 -0.1812  0.3016  0.0539
32928ION     NA49775   1.189  16.619   9.120 -0.0795 -0.1186  0.1688
32929ION     NA49776   0.409   2.029   4.955  0.0764 -0.0383 -0.0805
32930ION     NA49777   5.114   8.714   9.253  0.3388  0.4309  0.2215
32931ION     NA49778  16.168  18.549   9.547  0.0586 -0.0289 -0.1570
32932ION     NA49779  10.800   7.591   8.973 -0.1406 -0.0708  0.0211
32933ION     NA49780  15.047   6.412   9.644  0.3220 -0.0790 -0.2541
32934ION     NA49781   7.990   1.941   9.031  0.0388  0.0687 -0.0381
32935ION     NA49782   8.598   4.302   5.046  0.1993 -0.2634  0.2922
32936ION     NA49783  11.070   6.763   8.979 -0.0579 -0.0241  0.1225
32937ION     NA49784   7.268  15.755   9.094 -0.3091 -0.0908 -0.0043
32938ION     NA49785  11.687  14.223   0.315  0.0390  0.0995  0.2981
32939ION     NA49786   0.325  17.012   8.898 -0.1773  0.2081 -0.2033
32940ION     NA49787   2.699  10.165   9.012  0.0669  0.0137  0.2435
32941ION     NA49788   3.796   1.529   4.347  0.0724 -0.2154  0.0145
32942ION     NA49789   4.946  18.084   8.991  0.2133 -0.3819 -0.1329
32943ION     NA49790   7.443   6.344   4.842 -0.0159 -0.0288 -0.1169
32944ION     NA49791  15.022   0.561   9.694 -0.0672  0.2320  0.2259
32945ION     NA49792  16.310  14.351  11.041  0.1920 -0.1282 -0.2425
32946ION     NA49793   7.555  12.626   9.440 -0.0279 -0.0953  0.0194
32947ION     NA49794  11.494   0.052   2.868  0.0424  0.0390 -0.1091
32948ION     NA49795   3.808   6.753   2.358 -0.0652 -0.0346  0.0184
32949ION     NA49796  16.781  14.947  14.195 -0.0372 -0.2188 -0.0906
32950ION     NA49797  13.929  16.221   9.226  0.1143 -0.1275 -0.6073
32951ION     NA49798   0.121  10.608   9.201 -0.1404  0.4085  0.3558
32952ION     NA49799   8.738   5.536   9.392  0.1227 -0.0562 -0.1472
32953ION     NA49800  12.573   7.776   9.516 -0.2227  0.2177 -0.2232
32954ION     NA49801   3.639   3.461   4.550  0.1148 -0.2497 -0.2052
32955ION     NA49802  16.754  13.349  11.735  0.1653  0.0240  0.1112
32956ION     NA49803  16.332  18.502  11.430 -0.1982  0.4401 -0.0528
32957ION     NA49804  15.319   2.292   9.836  0.0768  0.0965 -0.1730
32958ION     NA49805   0.756  11.136   3.644  0.3776  0.1698  0.1703
32959ION     NA49806   2.504   2.860   4.633  0.3055  0.0459  0.1278
32960ION     NA49807   3.575   5.010   8.998  0.0404  0.1277 -0.0807
32961ION     NA49808  16.061  14.930   5.137 -0.0086 -0.2599 -0.1357
32962ION     NA49809   1.617   2.299   9.366  0.1087  0.1035  0.0451
32963ION     NA49810   6.386  15.053   9.244  0.2077 -0.2451 -0.2223
32964ION     NA49811   8.542  10.017   9.175 -0.0933 -0.1135  0.3786
32965ION     NA49812   9.742  15.598  11.134  0.0319  0.0430 -0.2660
32966ION     NA49813  15.724   4.170  14.192 -0.0733  0.2144  0.3384
32967ION     NA49814  10.643  17.067   4.546 -0.1816  0.1594 -0.1698
32968ION     NA49815   5.376   2.725   9.286 -0.3207  0.0785  0.1939
32969ION     NA49816   0.889  19.550   9.317 -0.1447  0.1923 -0.0730
32970ION     NA49817   1.911  15.217   9.178 -0.0606 -0.4555 -0.0787
32971ION     NA49818  17.069  11.807   4.471  0.3340 -0.0520 -0.2589
32972ION     NA49819  13.217  19.683   9.253  0.2288  0.1759  0.1331
32973ION     NA49820  10.853  15.847   9.098  0.0335  0.0597  0.0004
32974ION     NA49821  17.842   7.670   5.400  0.1662 -0.0724 -0.1895
32975ION     NA49822   6.938   6.502   9.305 -0.0690  0.5316  0.1183
32976ION     NA49823  15.606  15.109   4.322  0.0489 -0.0735 -0.3884
32977ION     NA49824   3.423   2.323   9.041  0.0489  0.3734 -0.0454
32978ION     NA49825  17.873  11.590   9.769 -0.1662  0.1508  0.0788
32979ION     NA49826   0.655   1.154   9.311  0.1095 -0.0654  0.0924
32980ION     NA49827   3.780  11.873  13.723 -0.1104 -0.0118  0.0395
32981ION     NA49828   7.081   1.885   9.316  0.2035 -0.0157 -0.0529
32982ION     NA49829   4.743  14.930   8.893 -0.3209 -0.0884 -0.1385
32983ION     NA49830   1.277  18.618   9.459  0.1834  0.0505  0.1587
32984ION     NA49831   7.356   9.037   2.607 -0.1824  0.1988 -0.2892
32985ION     NA49832  19.517  19.417   3.472  0.0026 -0.1436  0.0861
32986ION     NA49833  18.809   3.885   9.168  0.0492 -0.0535 -0.0406
32987ION     NA49834   2.858  18.989   5.071 -0.0931  0.4169 -0.4024
32988ION     NA49835   3.940   8.039   8.883  0.0274  0.0951 -0.4214
32989ION     NA49836   1.317   8.106   9.080  0.0865  0.0889  0.0317
32990ION     NA49837  17.833   0.676   9.362  0.1591  0.2304  0.1114
32991ION     NA49838  17.348   4.559   0.139 -0.3368  0.1574  0.1701
32992ION     NA49839  15.519   6.755   1.648  0.2914  0.3039  0.0985
32993ION     NA49840  16.444  15.385   9.541  0.1317  0.0021 -0.1343
32994ION     NA49841  10.770   0.367  13.240 -0.0746  0.0933 -0.1746
32995ION     NA49842  14.038   2.872   9.929 -0.0331 -0.3300 -0.0396
32996ION     NA49843  13.849  19.184   4.928 -0.1296 -0.0710  0.0343
32997ION     NA49844   1.184   7.661   9.204 -0.3240 -0.0531 -0.0392
32998ION     NA49845   9.360  10.631   9.021 -0.0796  0.1788 -0.0318
32999ION     NA49846  13.010   8.623   4.259  0.0443 -0.0196 -0.0269
33000ION     NA49847  13.261  15.452   9.326 -0.0115 -0.0770 -0.0697
33001ION     NA49848  14.601   5.058  12.919  0.2036 -0.0054  0.1383
33002ION     NA49849  16.163   7.240   9.958 -0.4562 -0.0095  0.0746
33003ION     NA49850  17.342  17.289  11.217  0.0487  0.0757 -0.1653
33004ION     NA49851   9.130   8.629   0.373  0.1231  0.0064  0.0225
33005ION     NA49852   7.034  12.145   4.689  0.1740 -0.0828  0.1710
33006ION     NA49853   3.523   9.707   9.258  0.0729 -0.0647 -0.0687
33007ION     NA49854   4.706   2.274   9.025 -0.4323 -0.1624  0.0882
33008ION     NA49855  15.215   1.368   5.562 -0.1130 -0.3053 -0.3022
33009ION     NA49856  13.306   0.668   9.436 -0.0897 -0.1734 -0.1045
33010ION     NA49857   9.800   3.861   2.065 -0.1493 -0.1310 -0.0016
33011ION     NA49858  18.214   7.607   9.626  0.1099  0.0070  0.3631
33012ION     NA49859   0.037  14.942   9.305 -0.0736  0.0626  0.0463
33013ION     NA49860  12.652   6.146   3.317  0.0112  0.0480 -0.1337
33014ION     NA49861   6.958   4.876  10.273  0.1375 -0.2003  0.1202
33015ION     NA49862  12.244  18.543   9.191 -0.2399  0.1523  0.0774
33016ION     NA49863  17.776  11.219   9.391  0.1292  0.0550 -0.0982
33017ION     NA49864  12.359  10.272   8.971  0.1202 -0.0915 -0.0977
33018ION     NA49865  19.829   4.638  12.029 -0.0399  0.3421 -0.0725
33019ION     NA49866   9.208  12.600   1.019  0.0226  0.0213  0.1083
33020ION     NA49867   6.897   7.864   9.160 -0.0799 -0.2657 -0.2749
33021ION     NA49868  14.073  14.147   9.530 -0.2501  0.0505 -0.0962
33022ION     NA49869  19.846  11.487   9.350  0.3676  0.0994  0.3277
33023ION     NA49870  14.817  10.891   9.506  0.1391 -0.0185  0.0373
33024ION     NA49871   2.220   9.813   4.845 -0.1063  0.3452 -0.1667
33025ION     NA49872  18.742  17.771  11.154  0.0197 -0.1929 -0.0118
33026ION     NA49873  12.131  13.030   5.180  0.2864 -0.1426  0.2198
33027ION     NA49874  15.293  18.349   9.320  0.1731  0.0720 -0.0695
33028ION     NA49875  15.004  15.700  10.883 -0.0996  0.2757 -0.2200
33029ION     NA49876   0.521   8.222   9.340  0.1649  0.0786 -0.1364
33030ION     NA49877  10.092   1.331   9.326 -0.0318 -0.2920 -0.0189
  19.92938  19.92938  14.31133
